 Gaussian 09, Revision E.01,
 Gaussian 09:  EM64L-G09RevE.01 30-Nov-2015

 ---------------------------------------------
 #p b3lyp/6-311++G(3df,2p) freq symmetry=Loose
 ---------------------------------------------

 ---------
 b3lyp opt
 ---------
 Symbolic Z-matrix:
 Charge =  0 Multiplicity = 4

                         Standard orientation:
 ---------------------------------------------------------------------
 Center     Atomic      Atomic             Coordinates (Angstroms)
 Number     Number       Type             X           Y           Z
 ---------------------------------------------------------------------
      1          6           0        0.712106   -0.679829   -0.510724
      2          6           0        0.264564    0.604329    0.495739
      3          6           0       -1.027382    0.959031   -0.138499
      4          6           0        1.537462    0.443551   -0.171061
      5          6           0       -1.291848   -0.360843   -0.362257
      6          7           0       -0.167060   -0.828205    0.588687
 ---------------------------------------------------------------------

 SCF Done:  E(UB3LYP) =  -244.803836200     A.U. after   21 cycles

 The electronic state is 4-A.
 Alpha  occ. eigenvalues --  -14.43987 -10.32647 -10.32367 -10.30552 -10.29231
 Alpha  occ. eigenvalues --  -10.27002  -1.13278  -0.87406  -0.81726  -0.65997
 Alpha  occ. eigenvalues --   -0.56509  -0.54156  -0.50577  -0.49397  -0.37598
 Alpha  occ. eigenvalues --   -0.36404  -0.35114  -0.32727  -0.30715  -0.28218
 Alpha virt. eigenvalues --   -0.11973  -0.08279  -0.02306   0.01869   0.02445
 Alpha virt. eigenvalues --    0.02983   0.03995   0.05284   0.06447   0.07224
 Alpha virt. eigenvalues --    0.07415   0.07743   0.08382   0.09651   0.12053

  Beta  occ. eigenvalues --  -14.43429 -10.32282 -10.31729 -10.29260 -10.27256
  Beta  occ. eigenvalues --  -10.25818  -1.11549  -0.84403  -0.78961  -0.63751
  Beta  occ. eigenvalues --   -0.53142  -0.50791  -0.47176  -0.46836  -0.35086
  Beta  occ. eigenvalues --   -0.31207  -0.29381
  Beta virt. eigenvalues --   -0.19903  -0.18879  -0.15559  -0.09484  -0.05745
  Beta virt. eigenvalues --    0.01006   0.02549   0.03062   0.03776   0.04808
  Beta virt. eigenvalues --    0.05988   0.06803   0.07536   0.07638   0.08180

 Mulliken charges and spin densities:
               1          2
     1  C    0.314146   0.437175
     2  C    0.600817  -0.184379
     3  C    0.123362   1.229299
     4  C   -0.463021   0.780302
     5  C   -0.008656   0.556450
     6  N   -0.566647   0.181153
 Sum of Mulliken charges =  -0.00000   3.00000

 Dipole moment (field-independent basis, Debye):
    X=             -0.8178    Y=              0.3088    Z=              0.1926  Tot=              0.8951
 Quadrupole moment (field-independent basis, Debye-Ang):
   XX=            -37.7352   YY=            -33.6475   ZZ=            -35.3660
   XY=             -1.9722   XZ=              0.1455   YZ=              0.3227

  Exact polarizability:  97.867   5.348  56.605   0.264   3.504  45.394
 Approx polarizability: 222.436  10.645 125.357   1.819  17.256  81.015

                      1                      2                      3
                      A                      A                      A
 Frequencies --    167.7172               320.5724               414.8879
 Red. masses --     12.1513                12.0078                12.0931
 Frc consts  --      0.2014                 0.7271                 1.2264
 IR Inten    --      9.5080                18.7916                12.2226

                      4                      5                      6
                      A                      A                      A
 Frequencies --    533.9840               634.5213               687.3509
 Red. masses --     12.0047                12.8221                12.4325
 Frc consts  --      2.0168                 3.0416                 3.4607
 IR Inten    --      1.4381                20.9562                 2.1728

                      7                      8                      9
                      A                      A                      A
 Frequencies --    765.0227               854.9382               982.9655
 Red. masses --     12.5728                12.5784                12.0706
 Frc consts  --      4.3354                 5.4168                 6.8716
 IR Inten    --     33.7698                23.4956                21.2455

                     10                     11                     12
                      A                      A                      A
 Frequencies --   1096.1127              1164.2672              1334.0364
 Red. masses --     12.7480                12.0357                12.0269
 Frc consts  --      9.0241                 9.6123                12.6106
 IR Inten    --     21.7405               115.0998                16.1927

 - Thermochemistry -
 -------------------
 Temperature   298.150 Kelvin.  Pressure   1.00000 Atm.
 Atom     1 has atomic number  6 and mass  12.00000

 Molecular mass:    74.00307 amu.
 Principal axes and moments of inertia in atomic units:
                           1         2         3
     Eigenvalues --   169.91794 290.90606 367.34753
           X            1.00000  -0.00001   0.00001
           Y            0.00001   1.00000   0.00007
           Z           -0.00001  -0.00007   1.00000
 This molecule is an asymmetric top.
 Rotational symmetry number  1.
 Rotational temperatures (Kelvin)      0.50974     0.29774     0.23578
 Rotational constants (GHZ):          10.62125     6.20386     4.91290
 Zero-point vibrational energy      53571.0 (Joules/Mol)
                                   12.80378 (Kcal/Mol)
 Warning -- explicit consideration of   4 degrees of freedom as
           vibrations may cause significant error
 Vibrational temperatures:    241.31   461.23   596.93   768.28   912.93
          (Kelvin)            988.94  1100.70  1230.06  1414.27  1577.06
                             1675.12  1919.38

 Zero-point correction=                           0.020404 (Hartree/Particle)
 Thermal correction to Energy=                    0.025247
 Thermal correction to Enthalpy=                  0.026191
 Thermal correction to Gibbs Free Energy=        -0.008302
 Sum of electronic and zero-point Energies=           -244.783432
 Sum of electronic and thermal Energies=              -244.778589
 Sum of electronic and thermal Enthalpies=            -244.777645
 Sum of electronic and thermal Free Energies=         -244.812139

                     E (Thermal)             CV                S
                      KCal/Mol        Cal/Mol-Kelvin    Cal/Mol-Kelvin
 Total                   15.843             16.220             72.597
 Electronic               0.000              0.000              2.755
 Translational            0.889              2.981             38.821
 Rotational               0.889              2.981             24.411
 Vibrational             14.065             10.258              6.611
 Vibration     1          0.624              1.882              2.461
 Vibration     2          0.706              1.634              1.307
 Vibration     3          0.778              1.438              0.910
 Vibration     4          0.889              1.175              0.578

 Optimization completed.
    -- Stationary point found.
 Normal termination of Gaussian 09 at Tue Aug 16 18:53:05 2016.
