 Gaussian 09, Revision E.01,
 Gaussian 09:  EM64L-G09RevE.01 30-Nov-2015

 ---------------------------------------------
 #p b3lyp/6-311++G(3df,2p) freq symmetry=Loose
 ---------------------------------------------

 ---------
 b3lyp opt
 ---------
 Symbolic Z-matrix:
 Charge =  1 Multiplicity = 3

                         Standard orientation:
 ---------------------------------------------------------------------
 Center     Atomic      Atomic             Coordinates (Angstroms)
 Number     Number       Type             X           Y           Z
 ---------------------------------------------------------------------
      1          6           0       -2.191805    0.000914    0.000041
      2          6           0        0.107781   -0.002314    0.000510
      3          7           0        1.397449   -0.003977    0.000532
      4          6           0       -1.069861   -0.776968   -0.000305
      5          6           0        2.594978    0.004485   -0.000569
      6          6           0       -1.071450    0.778523   -0.000297
 ---------------------------------------------------------------------

 SCF Done:  E(UB3LYP) =  -244.638429461     A.U. after   16 cycles

 The electronic state is 3-A.
 Alpha  occ. eigenvalues --  -14.61933 -10.59326 -10.58243 -10.58222 -10.56517
 Alpha  occ. eigenvalues --  -10.48958  -1.32417  -1.23731  -1.05907  -0.96093
 Alpha  occ. eigenvalues --   -0.86742  -0.76406  -0.75377  -0.67864  -0.66059
 Alpha  occ. eigenvalues --   -0.61583  -0.58646  -0.54819  -0.50582
 Alpha virt. eigenvalues --   -0.36737  -0.33477  -0.27903  -0.22127  -0.15570
 Alpha virt. eigenvalues --   -0.15273  -0.12061  -0.11897  -0.11668  -0.10704
 Alpha virt. eigenvalues --   -0.07662  -0.07212  -0.06278  -0.05775  -0.04999

  Beta  occ. eigenvalues --  -14.61992 -10.58350 -10.58044 -10.58023 -10.53929
  Beta  occ. eigenvalues --  -10.48628  -1.31261  -1.23208  -1.03783  -0.94120
  Beta  occ. eigenvalues --   -0.85498  -0.74162  -0.73248  -0.63642  -0.61408
  Beta  occ. eigenvalues --   -0.61348  -0.54119
  Beta virt. eigenvalues --   -0.43948  -0.38917  -0.36631  -0.31296  -0.23103
  Beta virt. eigenvalues --   -0.21663  -0.15251  -0.12360  -0.11413  -0.11191
  Beta virt. eigenvalues --   -0.10589  -0.09684  -0.07555  -0.06427  -0.05683

 Mulliken charges and spin densities:
               1          2
     1  C   -0.321178   1.296875
     2  C    0.394196   0.459984
     3  N   -0.650011  -0.021752
     4  C    0.667414   0.041646
     5  C    0.242139   0.184265
     6  C    0.667441   0.038982
 Sum of Mulliken charges =   1.00000   2.00000

 Dipole moment (field-independent basis, Debye):
    X=             -3.3846    Y=             -0.0043    Z=             -0.0001  Tot=              3.3846
 Quadrupole moment (field-independent basis, Debye-Ang):
   XX=            -21.2907   YY=            -28.4842   ZZ=            -29.0414
   XY=             -0.0121   XZ=              0.0030   YZ=              0.0000

  Exact polarizability:  88.757   0.032  39.896  -0.002   0.000  29.150
 Approx polarizability: 161.431   0.148  83.774  -0.010   0.000  44.222

                      1                      2                      3
                      A                      A                      A
 Frequencies --    144.1167               151.1945               315.9183
 Red. masses --     12.5209                12.2032                13.0279
 Frc consts  --      0.1532                 0.1644                 0.7661
 IR Inten    --      0.5457                 0.9959                 0.1132

                      4                      5                      6
                      A                      A                      A
 Frequencies --    475.2848               509.1393               570.0906
 Red. masses --     12.6840                12.0025                12.0000
 Frc consts  --      1.6882                 1.8331                 2.2978
 IR Inten    --      2.7892                 2.1804                 7.7018

                      7                      8                      9
                      A                      A                      A
 Frequencies --    654.4126               916.3163               926.2967
 Red. masses --     12.2939                12.0209                12.0850
 Frc consts  --      3.1020                 5.9467                 6.1094
 IR Inten    --      8.7681                36.9406                14.9429

                     10                     11                     12
                      A                      A                      A
 Frequencies --   1472.1616              1596.7705              2053.3929
 Red. masses --     12.0054                12.0023                13.1048
 Frc consts  --     15.3299                18.0301                32.5555
 IR Inten    --     46.1590                12.3745               755.6002

 - Thermochemistry -
 -------------------
 Temperature   298.150 Kelvin.  Pressure   1.00000 Atm.
 Atom     1 has atomic number  6 and mass  12.00000

 Molecular mass:    74.00307 amu.
 Principal axes and moments of inertia in atomic units:
                           1         2         3
     Eigenvalues --    51.84429 690.82910 742.67330
           X            1.00000   0.00000  -0.00000
           Y           -0.00000   1.00000   0.00000
           Z            0.00000  -0.00000   1.00000
 This molecule is an asymmetric top.
 Rotational symmetry number  1.
 Rotational temperatures (Kelvin)      1.67065     0.12538     0.11662
 Rotational constants (GHZ):          34.81080     2.61243     2.43006
 Zero-point vibrational energy      58527.9 (Joules/Mol)
                                   13.98850 (Kcal/Mol)
 Warning -- explicit consideration of   6 degrees of freedom as
           vibrations may cause significant error
 Vibrational temperatures:    207.35   217.53   454.54   683.83   732.54
          (Kelvin)            820.23   941.55  1318.37  1332.73  2118.11
                             2297.39  2954.37

 Zero-point correction=                           0.022292 (Hartree/Particle)
 Thermal correction to Energy=                    0.027699
 Thermal correction to Enthalpy=                  0.028643
 Thermal correction to Gibbs Free Energy=        -0.007009
 Sum of electronic and zero-point Energies=           -244.616137
 Sum of electronic and thermal Energies=              -244.610730
 Sum of electronic and thermal Enthalpies=            -244.609786
 Sum of electronic and thermal Free Energies=         -244.645439

                     E (Thermal)             CV                S
                      KCal/Mol        Cal/Mol-Kelvin    Cal/Mol-Kelvin
 Total                   17.381             17.053             75.037
 Electronic               0.000              0.000              2.183
 Translational            0.889              2.981             38.821
 Rotational               0.889              2.981             24.790
 Vibrational             15.604             11.092              9.243
 Vibration     1          0.616              1.909              2.748
 Vibration     2          0.619              1.901              2.657
 Vibration     3          0.703              1.643              1.331
 Vibration     4          0.832              1.305              0.723
 Vibration     5          0.864              1.230              0.636
 Vibration     6          0.926              1.096              0.504

 Normal termination of Gaussian 09 at Tue Aug 16 18:16:05 2016.
