 Gaussian 09, Revision E.01,
 Gaussian 09:  EM64L-G09RevE.01 30-Nov-2015

 ---------------------------------------------
 #p b3lyp/6-311++G(3df,2p) freq symmetry=Loose
 ---------------------------------------------

 ---------
 b3lyp opt
 ---------
 Symbolic Z-matrix:
 Charge =  0 Multiplicity = 2

                         Standard orientation:
 ---------------------------------------------------------------------
 Center     Atomic      Atomic             Coordinates (Angstroms)
 Number     Number       Type             X           Y           Z
 ---------------------------------------------------------------------
      1          6           0       -1.770545    0.004613    0.002980
      2          7           0        2.028973   -0.599783   -0.001273
      3          6           0        2.159328    0.664833   -0.001273
      4          6           0       -0.483914   -0.011757    0.002902
      5          6           0        0.789695    0.029968    0.000748
      6          6           0       -3.061699    0.012089   -0.003871
 ---------------------------------------------------------------------

 SCF Done:  E(UB3LYP) =  -245.020632835     A.U. after   18 cycles

 The electronic state is 2-A.
 Alpha  occ. eigenvalues --  -14.43271 -10.32808 -10.29777 -10.29491 -10.26298
 Alpha  occ. eigenvalues --  -10.24189  -1.10769  -0.87959  -0.80373  -0.69391
 Alpha  occ. eigenvalues --   -0.59508  -0.56756  -0.50707  -0.41366  -0.41091
 Alpha  occ. eigenvalues --   -0.37491  -0.33442  -0.30823  -0.29832
 Alpha virt. eigenvalues --   -0.15771  -0.09039  -0.07366  -0.00142   0.02093
 Alpha virt. eigenvalues --    0.02548   0.03796   0.04489   0.05415   0.06691
 Alpha virt. eigenvalues --    0.07109   0.08034   0.08657   0.09217   0.11264

  Beta  occ. eigenvalues --  -14.43053 -10.32502 -10.29776 -10.29290 -10.25635
  Beta  occ. eigenvalues --  -10.24003  -1.10326  -0.86890  -0.78313  -0.68374
  Beta  occ. eigenvalues --   -0.59313  -0.56485  -0.48721  -0.41057  -0.38172
  Beta  occ. eigenvalues --   -0.37409  -0.32191  -0.30428
  Beta virt. eigenvalues --   -0.20912  -0.15292  -0.07064  -0.05116  -0.00051
  Beta virt. eigenvalues --    0.02323   0.02636   0.03984   0.04601   0.05557
  Beta virt. eigenvalues --    0.06764   0.07489   0.08090   0.09346   0.09522

 Mulliken charges and spin densities:
               1          2
     1  C    1.052446   0.267320
     2  N   -0.482406   0.105218
     3  C   -0.336358   0.027133
     4  C   -0.279465   0.232462
     5  C    0.658457   0.042885
     6  C   -0.612674   0.324982
 Sum of Mulliken charges =  -0.00000   1.00000

 Dipole moment (field-independent basis, Debye):
    X=              1.6773    Y=             -0.3089    Z=              0.0122  Tot=              1.7055
 Quadrupole moment (field-independent basis, Debye-Ang):
   XX=            -47.1911   YY=            -35.7026   ZZ=            -32.2683
   XY=             -0.7371   XZ=             -0.0363   YZ=              0.0002

  Exact polarizability: 156.681   4.803  42.859  -0.029  -0.001  38.217
 Approx polarizability: 394.336  10.694  67.752   0.023  -0.003  55.306

                      1                      2                      3
                      A                      A                      A
 Frequencies --    122.0310               130.9057               275.0941
 Red. masses --     12.2062                12.1341                12.1338
 Frc consts  --      0.1071                 0.1225                 0.5410
 IR Inten    --      9.0272                12.0858                 1.6581

                      4                      5                      6
                      A                      A                      A
 Frequencies --    341.8682               511.9632               545.5468
 Red. masses --     12.0449                12.0185                12.0894
 Frc consts  --      0.8294                 1.8560                 2.1199
 IR Inten    --      2.3261                 7.3843                14.4722

                      7                      8                      9
                      A                      A                      A
 Frequencies --    568.2014               799.4458              1068.1670
 Red. masses --     12.3619                12.7301                12.2299
 Frc consts  --      2.3515                 4.7936                 8.2215
 IR Inten    --      8.1060                34.9059                63.2756

                     10                     11                     12
                      A                      A                      A
 Frequencies --   1485.3036              1827.1379              2065.8015
 Red. masses --     12.4565                12.2370                12.0441
 Frc consts  --     16.1912                24.0695                30.2831
 IR Inten    --     15.9114               120.6391               537.0666

 - Thermochemistry -
 -------------------
 Temperature   298.150 Kelvin.  Pressure   1.00000 Atm.
 Atom     1 has atomic number  6 and mass  12.00000

 Molecular mass:    74.00307 amu.
 Principal axes and moments of inertia in atomic units:
                           1         2         3
     Eigenvalues --    36.98329 978.468771015.44895
           X            1.00000   0.00001   0.00000
           Y           -0.00001   1.00000  -0.00000
           Z           -0.00000   0.00000   1.00000
 This molecule is an asymmetric top.
 Rotational symmetry number  1.
 Rotational temperatures (Kelvin)      2.34197     0.08852     0.08530
 Rotational constants (GHZ):          48.79883     1.84445     1.77728
 Zero-point vibrational energy      58266.9 (Joules/Mol)
                                   13.92612 (Kcal/Mol)
 Warning -- explicit consideration of   7 degrees of freedom as
           vibrations may cause significant error
 Vibrational temperatures:    175.58   188.34   395.80   491.87   736.60
          (Kelvin)            784.92   817.51  1150.22  1536.85  2137.02
                             2628.84  2972.22

 Zero-point correction=                           0.022193 (Hartree/Particle)
 Thermal correction to Energy=                    0.027918
 Thermal correction to Enthalpy=                  0.028862
 Thermal correction to Gibbs Free Energy=        -0.007277
 Sum of electronic and zero-point Energies=           -244.998440
 Sum of electronic and thermal Energies=              -244.992715
 Sum of electronic and thermal Enthalpies=            -244.991770
 Sum of electronic and thermal Free Energies=         -245.027910

                     E (Thermal)             CV                S
                      KCal/Mol        Cal/Mol-Kelvin    Cal/Mol-Kelvin
 Total                   17.519             17.670             76.062
 Electronic               0.000              0.000              1.377
 Translational            0.889              2.981             38.821
 Rotational               0.889              2.981             25.111
 Vibrational             15.742             11.708             10.753
 Vibration     1          0.610              1.931              3.068
 Vibration     2          0.612              1.922              2.933
 Vibration     3          0.677              1.719              1.564
 Vibration     4          0.721              1.592              1.203
 Vibration     5          0.867              1.223              0.629
 Vibration     6          0.901              1.149              0.553
 Vibration     7          0.924              1.100              0.508

 Normal termination of Gaussian 09 at Tue Aug 16 18:50:21 2016.
