 Gaussian 09, Revision E.01,
 Gaussian 09:  EM64L-G09RevE.01 30-Nov-2015

 ---------------------------------------------
 #p b3lyp/6-311++G(3df,2p) freq symmetry=Loose
 ---------------------------------------------

 ---------
 b3lyp opt
 ---------
 Symbolic Z-matrix:
 Charge =  0 Multiplicity = 2

                         Standard orientation:
 ---------------------------------------------------------------------
 Center     Atomic      Atomic             Coordinates (Angstroms)
 Number     Number       Type             X           Y           Z
 ---------------------------------------------------------------------
      1          6           0       -0.000000    0.404533   -0.000000
      2          6           0       -1.119210    1.155678   -0.000000
      3          6           0       -1.708083   -1.563200    0.000000
      4          6           0       -1.188845   -0.346227    0.000000
      5          6           0        2.483645    0.088329    0.000000
      6          7           0        1.313566    0.223618   -0.000000
 ---------------------------------------------------------------------

 SCF Done:  E(UB3LYP) =  -244.996115716     A.U. after   20 cycles

 The electronic state is 2-A".
 Alpha  occ. eigenvalues --  -14.42929 -10.34213 -10.29059 -10.28412 -10.27946
 Alpha  occ. eigenvalues --  -10.27792  -1.05342  -0.97893  -0.80753  -0.78635
 Alpha  occ. eigenvalues --   -0.56249  -0.51470  -0.45949  -0.42968  -0.42235
 Alpha  occ. eigenvalues --   -0.37549  -0.34839  -0.31125  -0.30116
 Alpha virt. eigenvalues --   -0.14862  -0.11082  -0.04598  -0.02459  -0.00380
 Alpha virt. eigenvalues --    0.01921   0.03133   0.03798   0.04593   0.05675
 Alpha virt. eigenvalues --    0.06079   0.06840   0.07971   0.09089   0.10009

  Beta  occ. eigenvalues --  -14.42975 -10.33922 -10.28962 -10.27805 -10.27709
  Beta  occ. eigenvalues --  -10.27474  -1.05117  -0.97409  -0.79881  -0.76421
  Beta  occ. eigenvalues --   -0.55846  -0.50190  -0.45640  -0.42711  -0.40146
  Beta  occ. eigenvalues --   -0.37337  -0.33358  -0.30781
  Beta virt. eigenvalues --   -0.19770  -0.13840  -0.09647  -0.04515  -0.00289
  Beta virt. eigenvalues --   -0.00009   0.02388   0.03237   0.03869   0.05716
  Beta virt. eigenvalues --    0.06138   0.06182   0.06858   0.08712   0.09152

 Mulliken charges and spin densities:
               1          2
     1  C    0.953207   0.235999
     2  C   -0.583011   0.104402
     3  C   -0.638509   0.526097
     4  C    0.788983   0.090742
     5  C    0.096462   0.058489
     6  N   -0.617131  -0.015728
 Sum of Mulliken charges =  -0.00000   1.00000

 Dipole moment (field-independent basis, Debye):
    X=              0.6108    Y=              0.4743    Z=             -0.0000  Tot=              0.7733
 Quadrupole moment (field-independent basis, Debye-Ang):
   XX=            -42.6178   YY=            -39.9924   ZZ=            -32.4705
   XY=             -0.5011   XZ=             -0.0000   YZ=              0.0000

  Exact polarizability:  89.309  11.751  70.940  -0.000   0.000  40.379
 Approx polarizability: 150.798  28.749 145.558  -0.000  -0.000  59.475

                      1                      2                      3
                     A'                     A"                     A'
 Frequencies --    128.0215               196.2335               228.5048
 Red. masses --     12.0558                12.6767                12.6554
 Frc consts  --      0.1164                 0.2876                 0.3893
 IR Inten    --      5.2683                10.5087                 3.3225

                      4                      5                      6
                     A"                     A"                     A'
 Frequencies --    334.5697               504.1771               518.2741
 Red. masses --     12.1539                12.3585                12.5918
 Frc consts  --      0.8016                 1.8509                 1.9928
 IR Inten    --     18.1831                 0.0553                 8.0088

                      7                      8                      9
                     A'                     A'                     A'
 Frequencies --    647.7245               828.9439              1015.5210
 Red. masses --     12.1536                12.1786                12.0468
 Frc consts  --      3.0043                 4.9306                 7.3198
 IR Inten    --      2.5633                 4.9437                77.2822

                     10                     11                     12
                     A'                     A'                     A'
 Frequencies --   1472.9552              1726.8399              2157.9210
 Red. masses --     12.0015                12.0012                13.0513
 Frc consts  --     15.3414                21.0853                35.8077
 IR Inten    --    130.5981               116.6755               381.8864

 - Thermochemistry -
 -------------------
 Temperature   298.150 Kelvin.  Pressure   1.00000 Atm.
 Atom     1 has atomic number  6 and mass  12.00000

 Molecular mass:    74.00307 amu.
 Principal axes and moments of inertia in atomic units:
                           1         2         3
     Eigenvalues --   153.67703 613.14607 766.82309
           X            0.97436  -0.22498   0.00000
           Y            0.22498   0.97436   0.00000
           Z           -0.00000  -0.00000   1.00000
 This molecule is an asymmetric top.
 Rotational symmetry number  1.
 Rotational temperatures (Kelvin)      0.56361     0.14126     0.11295
 Rotational constants (GHZ):          11.74373     2.94341     2.35353
 Zero-point vibrational energy      58375.9 (Joules/Mol)
                                   13.95217 (Kcal/Mol)
 Warning -- explicit consideration of   6 degrees of freedom as
           vibrations may cause significant error
 Vibrational temperatures:    184.19   282.34   328.77   481.37   725.40
          (Kelvin)            745.68   931.93  1192.66  1461.11  2119.25
                             2484.53  3104.76

 Zero-point correction=                           0.022234 (Hartree/Particle)
 Thermal correction to Energy=                    0.027892
 Thermal correction to Enthalpy=                  0.028836
 Thermal correction to Gibbs Free Energy=        -0.007359
 Sum of electronic and zero-point Energies=           -244.973882
 Sum of electronic and thermal Energies=              -244.968224
 Sum of electronic and thermal Enthalpies=            -244.967279
 Sum of electronic and thermal Free Energies=         -245.003475

                     E (Thermal)             CV                S
                      KCal/Mol        Cal/Mol-Kelvin    Cal/Mol-Kelvin
 Total                   17.503             17.605             76.181
 Electronic               0.000              0.000              1.377
 Translational            0.889              2.981             38.821
 Rotational               0.889              2.981             25.783
 Vibrational             15.725             11.644             10.200
 Vibration     1          0.611              1.925              2.976
 Vibration     2          0.636              1.845              2.168
 Vibration     3          0.651              1.798              1.891
 Vibration     4          0.716              1.606              1.238
 Vibration     5          0.859              1.241              0.648
 Vibration     6          0.873              1.210              0.614

 Normal termination of Gaussian 09 at Tue Aug 16 18:42:17 2016.
