 Gaussian 09, Revision E.01,
 Gaussian 09:  EM64L-G09RevE.01 30-Nov-2015

 ---------------------------------------------
 #p b3lyp/6-311++G(3df,2p) freq symmetry=Loose
 ---------------------------------------------

 ---------
 b3lyp opt
 ---------
 Symbolic Z-matrix:
 Charge =  0 Multiplicity = 2

                         Standard orientation:
 ---------------------------------------------------------------------
 Center     Atomic      Atomic             Coordinates (Angstroms)
 Number     Number       Type             X           Y           Z
 ---------------------------------------------------------------------
      1          6           0        1.408177   -0.666736    0.059160
      2          6           0       -0.059404   -0.242028    0.740173
      3          6           0        0.787820    0.327223   -0.582277
      4          7           0       -1.103720   -0.867610   -0.052343
      5          6           0       -0.683717    0.361019   -0.629144
      6          6           0       -0.165203    1.232734    0.473154
 ---------------------------------------------------------------------

 SCF Done:  E(UB3LYP) =  -244.860855697     A.U. after   19 cycles

 The electronic state is 2-A.
 Alpha  occ. eigenvalues --  -14.43273 -10.34795 -10.34013 -10.30960 -10.29603
 Alpha  occ. eigenvalues --  -10.29169  -1.15335  -0.92086  -0.81249  -0.68298
 Alpha  occ. eigenvalues --   -0.56597  -0.51820  -0.48520  -0.45364  -0.40305
 Alpha  occ. eigenvalues --   -0.38066  -0.36674  -0.32722  -0.28950
 Alpha virt. eigenvalues --   -0.15189  -0.13086  -0.07544   0.00861   0.01362
 Alpha virt. eigenvalues --    0.02698   0.03611   0.05267   0.05497   0.06591
 Alpha virt. eigenvalues --    0.07269   0.07726   0.08036   0.10504   0.11001

  Beta  occ. eigenvalues --  -14.41635 -10.34847 -10.33967 -10.30821 -10.29396
  Beta  occ. eigenvalues --  -10.28970  -1.14344  -0.89802  -0.80356  -0.67856
  Beta  occ. eigenvalues --   -0.54946  -0.50418  -0.47188  -0.44603  -0.40080
  Beta  occ. eigenvalues --   -0.35811  -0.33363  -0.32248
  Beta virt. eigenvalues --   -0.16811  -0.14435  -0.12455  -0.07265   0.01119
  Beta virt. eigenvalues --    0.01519   0.02765   0.03780   0.05338   0.05648
  Beta virt. eigenvalues --    0.06690   0.07327   0.07779   0.08162   0.10764

 Mulliken charges and spin densities:
               1          2
     1  C   -0.600494   0.108093
     2  C    0.573316  -0.093275
     3  C    0.616237   0.065632
     4  N   -0.595687   0.789867
     5  C    0.292880  -0.000820
     6  C   -0.286253   0.130503
 Sum of Mulliken charges =  -0.00000   1.00000

 Dipole moment (field-independent basis, Debye):
    X=             -0.3417    Y=              0.4846    Z=             -0.8656  Tot=              1.0492
 Quadrupole moment (field-independent basis, Debye-Ang):
   XX=            -36.8580   YY=            -38.7082   ZZ=            -32.4456
   XY=              0.6586   XZ=             -0.8628   YZ=             -1.2252

  Exact polarizability:  60.535  -3.051  56.126   1.053   0.746  44.985
 Approx polarizability: 124.791 -12.264 116.130   5.398  -6.682  98.837

                      1                      2                      3
                      A                      A                      A
 Frequencies --    207.1183               381.3664               409.0629
 Red. masses --     12.0284                12.1949                12.3413
 Frc consts  --      0.3040                 1.0450                 1.2167
 IR Inten    --      8.3315                 2.2186                 1.0948

                      4                      5                      6
                      A                      A                      A
 Frequencies --    483.9166               497.6618               666.9750
 Red. masses --     12.6304                12.4072                12.0491
 Frc consts  --      1.7426                 1.8105                 3.1581
 IR Inten    --     15.4983                 4.2640                31.2143

                      7                      8                      9
                      A                      A                      A
 Frequencies --    727.9593               838.2224               893.1742
 Red. masses --     12.0509                12.2197                12.3659
 Frc consts  --      3.7626                 5.0586                 5.8123
 IR Inten    --      0.1060                 1.8818                 4.0556

                     10                     11                     12
                      A                      A                      A
 Frequencies --   1148.4263              1184.4130              1405.6374
 Red. masses --     12.6154                12.1281                12.0025
 Frc consts  --      9.8029                10.0242                13.9723
 IR Inten    --      3.7187                 2.9552                21.4967

 - Thermochemistry -
 -------------------
 Temperature   298.150 Kelvin.  Pressure   1.00000 Atm.
 Atom     1 has atomic number  6 and mass  12.00000

 Molecular mass:    74.00307 amu.
 Principal axes and moments of inertia in atomic units:
                           1         2         3
     Eigenvalues --   199.34478 258.69149 328.33840
           X            1.00000  -0.00018  -0.00000
           Y            0.00018   1.00000  -0.00001
           Z            0.00000   0.00001   1.00000
 This molecule is an asymmetric top.
 Rotational symmetry number  1.
 Rotational temperatures (Kelvin)      0.43449     0.33482     0.26379
 Rotational constants (GHZ):           9.05337     6.97642     5.49659
 Zero-point vibrational energy      52898.5 (Joules/Mol)
                                   12.64304 (Kcal/Mol)
 Warning -- explicit consideration of   5 degrees of freedom as
           vibrations may cause significant error
 Vibrational temperatures:    298.00   548.70   588.55   696.25   716.02
          (Kelvin)            959.63  1047.37  1206.01  1285.08  1652.33
                             1704.10  2022.40

 Zero-point correction=                           0.020148 (Hartree/Particle)
 Thermal correction to Energy=                    0.025019
 Thermal correction to Enthalpy=                  0.025963
 Thermal correction to Gibbs Free Energy=        -0.007768
 Sum of electronic and zero-point Energies=           -244.840708
 Sum of electronic and thermal Energies=              -244.835837
 Sum of electronic and thermal Enthalpies=            -244.834893
 Sum of electronic and thermal Free Energies=         -244.868624

                     E (Thermal)             CV                S
                      KCal/Mol        Cal/Mol-Kelvin    Cal/Mol-Kelvin
 Total                   15.699             16.623             70.992
 Electronic               0.000              0.000              1.377
 Translational            0.889              2.981             38.821
 Rotational               0.889              2.981             24.341
 Vibrational             13.922             10.661              6.453
 Vibration     1          0.641              1.830              2.069
 Vibration     2          0.751              1.510              1.034
 Vibration     3          0.773              1.451              0.930
 Vibration     4          0.840              1.286              0.700
 Vibration     5          0.853              1.255              0.664

 Optimization completed.
    -- Stationary point found.
 Normal termination of Gaussian 09 at Tue Aug 16 18:38:10 2016.
