 Gaussian 09, Revision E.01,
 Gaussian 09:  EM64L-G09RevE.01 30-Nov-2015

 ---------------------------------------------
 #p b3lyp/6-311++G(3df,2p) freq symmetry=Loose
 ---------------------------------------------

 ---------
 b3lyp opt
 ---------
 Symbolic Z-matrix:
 Charge =  1 Multiplicity = 3

                         Standard orientation:
 ---------------------------------------------------------------------
 Center     Atomic      Atomic             Coordinates (Angstroms)
 Number     Number       Type             X           Y           Z
 ---------------------------------------------------------------------
      1          7           0       -0.295483   -2.123237   -0.000000
      2          6           0       -0.619875    3.021217    0.000000
      3          6           0        0.289873   -0.760214   -0.000000
      4          6           0       -0.000000    0.499275    0.000000
      5          6           0        0.936249   -2.021162   -0.000000
      6          6           0       -0.261518    1.737993    0.000000
 ---------------------------------------------------------------------

 SCF Done:  E(UB3LYP) =  -244.643455731     A.U. after   23 cycles

 The electronic state is 3-A".
 Alpha  occ. eigenvalues --  -14.67081 -10.58091 -10.55471 -10.52212 -10.51990
 Alpha  occ. eigenvalues --  -10.48703  -1.34044  -1.10773  -1.03746  -0.92982
 Alpha  occ. eigenvalues --   -0.84359  -0.79164  -0.73305  -0.64538  -0.63270
 Alpha  occ. eigenvalues --   -0.62768  -0.55666  -0.55193  -0.52133
 Alpha virt. eigenvalues --   -0.38668  -0.33250  -0.28500  -0.21205  -0.15982
 Alpha virt. eigenvalues --   -0.13524  -0.12673  -0.10823  -0.10482  -0.10151
 Alpha virt. eigenvalues --   -0.07260  -0.06410  -0.06225  -0.04865  -0.03856

  Beta  occ. eigenvalues --  -14.66723 -10.57131 -10.54363 -10.52159 -10.51333
  Beta  occ. eigenvalues --  -10.48164  -1.33144  -1.09510  -1.00418  -0.91339
  Beta  occ. eigenvalues --   -0.82934  -0.76471  -0.70736  -0.63345  -0.60404
  Beta  occ. eigenvalues --   -0.59111  -0.53815
  Beta virt. eigenvalues --   -0.44683  -0.42602  -0.35595  -0.29548  -0.25293
  Beta virt. eigenvalues --   -0.18758  -0.15759  -0.12493  -0.10817  -0.10473
  Beta virt. eigenvalues --   -0.09291  -0.09212  -0.06706  -0.06083  -0.05663

 Mulliken charges and spin densities:
               1          2
     1  N   -0.362823   0.104178
     2  C   -0.325488   0.395917
     3  C    0.672800   0.134653
     4  C   -0.150134   0.257944
     5  C   -0.136977   0.636638
     6  C    1.302622   0.470670
 Sum of Mulliken charges =   1.00000   2.00000

 Dipole moment (field-independent basis, Debye):
    X=              1.1177    Y=             -0.7625    Z=              0.0000  Tot=              1.3530
 Quadrupole moment (field-independent basis, Debye-Ang):
   XX=            -29.0175   YY=            -16.2069   ZZ=            -29.3604
   XY=             -3.7171   XZ=              0.0000   YZ=              0.0000

  Exact polarizability:  42.828 -22.336 139.451   0.000   0.000  31.526
 Approx polarizability:  77.548 -58.800 313.892  -0.000   0.000  45.050

                      1                      2                      3
                     A'                     A"                     A'
 Frequencies --     71.8876               117.5043               208.0747
 Red. masses --     12.1323                12.0195                12.1970
 Frc consts  --      0.0369                 0.0978                 0.3111
 IR Inten    --      9.6948                 3.6325                 9.3390

                      4                      5                      6
                     A"                     A'                     A"
 Frequencies --    305.1705               463.6214               491.1266
 Red. masses --     12.0272                13.2633                12.0048
 Frc consts  --      0.6599                 1.6797                 1.7060
 IR Inten    --      3.4769                 1.0728                 3.7439

                      7                      8                      9
                     A'                     A'                     A'
 Frequencies --    564.0740               671.6892              1133.5449
 Red. masses --     12.0403                12.0469                12.0964
 Frc consts  --      2.2571                 3.2023                 9.1577
 IR Inten    --      6.1797                24.0009                12.8378

                     10                     11                     12
                     A'                     A'                     A'
 Frequencies --   1505.1102              1816.6268              2056.6857
 Red. masses --     12.2437                12.4827                12.0445
 Frc consts  --     16.3417                24.2711                30.0175
 IR Inten    --    256.7750               172.4033                99.4312

 - Thermochemistry -
 -------------------
 Temperature   298.150 Kelvin.  Pressure   1.00000 Atm.
 Atom     1 has atomic number  7 and mass  14.00307

 Molecular mass:    74.00307 amu.
 Principal axes and moments of inertia in atomic units:
                           1         2         3
     Eigenvalues --    37.45690 983.999971021.45687
           X           -0.17036   0.98538   0.00000
           Y            0.98538   0.17036  -0.00000
           Z            0.00000  -0.00000   1.00000
 This molecule is an asymmetric top.
 Rotational symmetry number  1.
 Rotational temperatures (Kelvin)      2.31236     0.08802     0.08479
 Rotational constants (GHZ):          48.18181     1.83409     1.76683
 Zero-point vibrational energy      56255.1 (Joules/Mol)
                                   13.44529 (Kcal/Mol)
 Warning -- explicit consideration of   7 degrees of freedom as
           vibrations may cause significant error
 Vibrational temperatures:    103.43   169.06   299.37   439.07   667.05
          (Kelvin)            706.62   811.58   966.41  1630.92  2165.52
                             2613.72  2959.11

 Zero-point correction=                           0.021426 (Hartree/Particle)
 Thermal correction to Energy=                    0.027529
 Thermal correction to Enthalpy=                  0.028474
 Thermal correction to Gibbs Free Energy=        -0.009154
 Sum of electronic and zero-point Energies=           -244.622029
 Sum of electronic and thermal Energies=              -244.615926
 Sum of electronic and thermal Enthalpies=            -244.614982
 Sum of electronic and thermal Free Energies=         -244.652609

                     E (Thermal)             CV                S
                      KCal/Mol        Cal/Mol-Kelvin    Cal/Mol-Kelvin
 Total                   17.275             18.309             79.193
 Electronic               0.000              0.000              2.183
 Translational            0.889              2.981             38.821
 Rotational               0.889              2.981             25.135
 Vibrational             15.498             12.348             13.054
 Vibration     1          0.598              1.967              4.101
 Vibration     2          0.608              1.935              3.141
 Vibration     3          0.641              1.828              2.061
 Vibration     4          0.696              1.664              1.388
 Vibration     5          0.821              1.331              0.756
 Vibration     6          0.847              1.270              0.681
 Vibration     7          0.920              1.109              0.516

 Normal termination of Gaussian 09 at Tue Aug 16 18:09:19 2016.
