 Gaussian 09, Revision E.01,
 Gaussian 09:  EM64L-G09RevE.01 30-Nov-2015

 ---------------------------------------------
 #p b3lyp/6-311++G(3df,2p) freq symmetry=Loose
 ---------------------------------------------

 ---------
 b3lyp opt
 ---------
 Symbolic Z-matrix:
 Charge =  0 Multiplicity = 4

                         Standard orientation:
 ---------------------------------------------------------------------
 Center     Atomic      Atomic             Coordinates (Angstroms)
 Number     Number       Type             X           Y           Z
 ---------------------------------------------------------------------
      1          7           0        0.636132   -0.643392    0.000008
      2          6           0       -0.837751    1.104614    0.000175
      3          6           0        0.570103    0.703182   -0.000004
      4          6           0       -0.753578   -1.098982    0.000170
      5          6           0        1.853431    0.069916   -0.000082
      6          6           0       -1.574359   -0.028106   -0.000269
 ---------------------------------------------------------------------

 SCF Done:  E(UB3LYP) =  -244.861008908     A.U. after   24 cycles

 The electronic state is 4-A.
 Alpha  occ. eigenvalues --  -14.46244 -10.31747 -10.31440 -10.30661 -10.27207
 Alpha  occ. eigenvalues --  -10.22737  -1.13244  -0.90536  -0.79432  -0.68120
 Alpha  occ. eigenvalues --   -0.60202  -0.53735  -0.53606  -0.47557  -0.39521
 Alpha  occ. eigenvalues --   -0.36536  -0.31392  -0.31048  -0.30057  -0.28436
 Alpha virt. eigenvalues --   -0.11269  -0.07005   0.00033   0.00262   0.01954
 Alpha virt. eigenvalues --    0.02918   0.03763   0.04816   0.05566   0.06379
 Alpha virt. eigenvalues --    0.06618   0.08145   0.08504   0.08732   0.10494

  Beta  occ. eigenvalues --  -14.45628 -10.31772 -10.30692 -10.28658 -10.25427
  Beta  occ. eigenvalues --  -10.21648  -1.11997  -0.88286  -0.75561  -0.65453
  Beta  occ. eigenvalues --   -0.57610  -0.51194  -0.50377  -0.46335  -0.34837
  Beta  occ. eigenvalues --   -0.33623  -0.26036
  Beta virt. eigenvalues --   -0.20485  -0.15917  -0.14015  -0.09791  -0.02013
  Beta virt. eigenvalues --    0.00755   0.01683   0.03335   0.03558   0.04208
  Beta virt. eigenvalues --    0.05858   0.06683   0.07019   0.07176   0.09071

 Mulliken charges and spin densities:
               1          2
     1  N   -0.461893   0.133286
     2  C   -0.105402   0.911671
     3  C    0.448167   0.479981
     4  C    0.072997   1.068320
     5  C   -0.000662  -0.029024
     6  C    0.046792   0.435766
 Sum of Mulliken charges =  -0.00000   3.00000

 Dipole moment (field-independent basis, Debye):
    X=              0.5088    Y=              0.0079    Z=              0.0004  Tot=              0.5089
 Quadrupole moment (field-independent basis, Debye-Ang):
   XX=            -42.0044   YY=            -35.0919   ZZ=            -32.5312
   XY=              0.5975   XZ=              0.0001   YZ=              0.0001

  Exact polarizability:  79.133  -0.830  76.418   0.003  -0.002  36.670
 Approx polarizability: 134.642   1.384 158.891   0.009  -0.001  56.664

                      1                      2                      3
                      A                      A                      A
 Frequencies --    175.1219               248.2651               547.2195
 Red. masses --     12.4176                12.5500                12.0882
 Frc consts  --      0.2244                 0.4557                 2.1327
 IR Inten    --     13.0350                 3.4518                 0.3589

                      4                      5                      6
                      A                      A                      A
 Frequencies --    576.8585               630.2101               832.0592
 Red. masses --     12.1623                12.0554                12.0394
 Frc consts  --      2.3845                 2.8210                 4.9109
 IR Inten    --     81.6028                51.3602                24.2122

                      7                      8                      9
                      A                      A                      A
 Frequencies --    915.7570               938.5848              1096.5222
 Red. masses --     13.1918                12.5830                12.4373
 Frc consts  --      6.5180                 6.5310                 8.8107
 IR Inten    --     58.6695                 0.6583               103.8310

                     10                     11                     12
                      A                      A                      A
 Frequencies --   1347.9300              1403.1013              1507.2969
 Red. masses --     12.0088                12.0120                12.3417
 Frc consts  --     12.8554                13.9330                16.5205
 IR Inten    --     31.5792                58.1337                49.8654

 - Thermochemistry -
 -------------------
 Temperature   298.150 Kelvin.  Pressure   1.00000 Atm.
 Atom     1 has atomic number  7 and mass  14.00307

 Molecular mass:    74.00307 amu.
 Principal axes and moments of inertia in atomic units:
                           1         2         3
     Eigenvalues --   146.17637 341.99717 488.17353
           X            1.00000   0.00002  -0.00000
           Y           -0.00002   1.00000   0.00000
           Z            0.00000  -0.00000   1.00000
 This molecule is an asymmetric top.
 Rotational symmetry number  1.
 Rotational temperatures (Kelvin)      0.59253     0.25326     0.17742
 Rotational constants (GHZ):          12.34633     5.27706     3.69693
 Zero-point vibrational energy      61122.8 (Joules/Mol)
                                   14.60869 (Kcal/Mol)
 Warning -- explicit consideration of   4 degrees of freedom as
           vibrations may cause significant error
 Vibrational temperatures:    251.96   357.20   787.33   829.97   906.73
          (Kelvin)           1197.15  1317.57  1350.41  1577.65  1939.37
                             2018.75  2168.66

 Zero-point correction=                           0.023280 (Hartree/Particle)
 Thermal correction to Energy=                    0.027925
 Thermal correction to Enthalpy=                  0.028869
 Thermal correction to Gibbs Free Energy=        -0.005527
 Sum of electronic and zero-point Energies=           -244.837728
 Sum of electronic and thermal Energies=              -244.833084
 Sum of electronic and thermal Enthalpies=            -244.832140
 Sum of electronic and thermal Free Energies=         -244.866536

                     E (Thermal)             CV                S
                      KCal/Mol        Cal/Mol-Kelvin    Cal/Mol-Kelvin
 Total                   17.523             14.910             72.393
 Electronic               0.000              0.000              2.755
 Translational            0.889              2.981             38.821
 Rotational               0.889              2.981             24.704
 Vibrational             15.746              8.949              6.113
 Vibration     1          0.627              1.873              2.380
 Vibration     2          0.662              1.766              1.743
 Vibration     3          0.902              1.146              0.550
 Vibration     4          0.933              1.081              0.491

 Optimization completed.
    -- Stationary point found.
 Normal termination of Gaussian 09 at Tue Aug 16 18:59:20 2016.
