 Gaussian 09, Revision E.01,
 Gaussian 09:  EM64L-G09RevE.01 30-Nov-2015

 ---------------------------------------------
 #p b3lyp/6-311++G(3df,2p) freq symmetry=Loose
 ---------------------------------------------

 ---------
 b3lyp opt
 ---------
 Symbolic Z-matrix:
 Charge =  1 Multiplicity = 3

                         Standard orientation:
 ---------------------------------------------------------------------
 Center     Atomic      Atomic             Coordinates (Angstroms)
 Number     Number       Type             X           Y           Z
 ---------------------------------------------------------------------
      1          6           0       -1.187322    1.034160   -0.000000
      2          6           0       -1.267270   -0.341686   -0.000000
      3          6           0        1.361909    0.285011    0.000000
      4          6           0       -1.834606   -1.586366    0.000000
      5          6           0       -0.000000    0.459436   -0.000000
      6          7           0        2.509104    0.128095    0.000000
 ---------------------------------------------------------------------

 SCF Done:  E(UB3LYP) =  -244.643076941     A.U. after   22 cycles

 The electronic state is 3-A".
 Alpha  occ. eigenvalues --  -14.60717 -10.58948 -10.57446 -10.55767 -10.54911
 Alpha  occ. eigenvalues --  -10.48375  -1.26226  -1.18238  -1.04814  -0.99218
 Alpha  occ. eigenvalues --   -0.78893  -0.75898  -0.73159  -0.63056  -0.62586
 Alpha  occ. eigenvalues --   -0.62248  -0.59286  -0.57892  -0.54430
 Alpha virt. eigenvalues --   -0.39689  -0.36417  -0.25956  -0.24443  -0.17095
 Alpha virt. eigenvalues --   -0.14894  -0.13558  -0.11081  -0.10843  -0.09252
 Alpha virt. eigenvalues --   -0.08425  -0.06944  -0.06225  -0.05853  -0.05327

  Beta  occ. eigenvalues --  -14.60414 -10.58583 -10.55860 -10.54642 -10.54508
  Beta  occ. eigenvalues --  -10.48492  -1.24938  -1.17645  -1.01077  -0.98359
  Beta  occ. eigenvalues --   -0.76280  -0.72841  -0.70625  -0.62149  -0.60646
  Beta  occ. eigenvalues --   -0.60506  -0.56798
  Beta virt. eigenvalues --   -0.45489  -0.43523  -0.36407  -0.33239  -0.23510
  Beta virt. eigenvalues --   -0.21089  -0.16583  -0.13758  -0.13116  -0.10744
  Beta virt. eigenvalues --   -0.10226  -0.08767  -0.07703  -0.06620  -0.05770

 Mulliken charges and spin densities:
               1          2
     1  C    0.169419   0.671961
     2  C    0.657820   0.245311
     3  C    0.128881   0.068891
     4  C   -0.239488   0.689980
     5  C    1.041336   0.176067
     6  N   -0.757968   0.147790
 Sum of Mulliken charges =   1.00000   2.00000

 Dipole moment (field-independent basis, Debye):
    X=             -3.0515    Y=              0.7987    Z=             -0.0000  Tot=              3.1543
 Quadrupole moment (field-independent basis, Debye-Ang):
   XX=            -24.5655   YY=            -27.2409   ZZ=            -29.2580
   XY=              0.2589   XZ=             -0.0000   YZ=              0.0000

  Exact polarizability:  88.487  10.653  63.778   0.000   0.000  31.744
 Approx polarizability: 180.845  14.690 115.136   0.000  -0.000  45.479

                      1                      2                      3
                     A'                     A"                     A'
 Frequencies --    129.8966               217.1231               272.2935
 Red. masses --     12.5815                12.4699                12.2090
 Frc consts  --      0.1251                 0.3464                 0.5333
 IR Inten    --      9.7391                 7.6063                 1.7124

                      4                      5                      6
                     A"                     A'                     A"
 Frequencies --    322.7041               516.6517               536.5942
 Red. masses --     12.0167                12.1125                12.0492
 Frc consts  --      0.7373                 1.9049                 2.0441
 IR Inten    --      4.4349                 4.9108                 0.5792

                      7                      8                      9
                     A'                     A'                     A'
 Frequencies --    598.7686               840.7017               972.0359
 Red. masses --     12.1152                12.4534                12.0221
 Frc consts  --      2.5592                 5.1859                 6.6926
 IR Inten    --     33.2354                29.0139                90.7156

                     10                     11                     12
                     A'                     A'                     A'
 Frequencies --   1468.8161              1782.3314              2297.1150
 Red. masses --     12.0362                12.0644                12.6245
 Frc consts  --     15.2995                22.5804                39.2492
 IR Inten    --     60.4482                81.8464               296.9774

 - Thermochemistry -
 -------------------
 Temperature   298.150 Kelvin.  Pressure   1.00000 Atm.
 Atom     1 has atomic number  6 and mass  12.00000

 Molecular mass:    74.00307 amu.
 Principal axes and moments of inertia in atomic units:
                           1         2         3
     Eigenvalues --   143.02160 696.76496 839.78656
           X            0.97346  -0.22885   0.00000
           Y            0.22885   0.97346   0.00000
           Z            0.00000  -0.00000   1.00000
 This molecule is an asymmetric top.
 Rotational symmetry number  1.
 Rotational temperatures (Kelvin)      0.60560     0.12431     0.10314
 Rotational constants (GHZ):          12.61866     2.59017     2.14905
 Zero-point vibrational energy      59544.3 (Joules/Mol)
                                   14.23143 (Kcal/Mol)
 Warning -- explicit consideration of   7 degrees of freedom as
           vibrations may cause significant error
 Vibrational temperatures:    186.89   312.39   391.77   464.30   743.35
          (Kelvin)            772.04   861.49  1209.58  1398.54  2113.30
                             2564.37  3305.03

 Zero-point correction=                           0.022679 (Hartree/Particle)
 Thermal correction to Energy=                    0.028260
 Thermal correction to Enthalpy=                  0.029205
 Thermal correction to Gibbs Free Energy=        -0.007229
 Sum of electronic and zero-point Energies=           -244.620398
 Sum of electronic and thermal Energies=              -244.614816
 Sum of electronic and thermal Enthalpies=            -244.613872
 Sum of electronic and thermal Free Energies=         -244.650306

                     E (Thermal)             CV                S
                      KCal/Mol        Cal/Mol-Kelvin    Cal/Mol-Kelvin
 Total                   17.734             17.580             76.682
 Electronic               0.000              0.000              2.183
 Translational            0.889              2.981             38.821
 Rotational               0.889              2.981             25.929
 Vibrational             15.956             11.619              9.749
 Vibration     1          0.612              1.923              2.948
 Vibration     2          0.646              1.815              1.983
 Vibration     3          0.675              1.724              1.582
 Vibration     4          0.708              1.630              1.296
 Vibration     5          0.872              1.213              0.618
 Vibration     6          0.892              1.169              0.573
 Vibration     7          0.957              1.034              0.452

 Optimization completed.
    -- Stationary point found.
 Normal termination of Gaussian 09 at Tue Aug 16 18:10:29 2016.
