 Gaussian 09, Revision E.01,
 Gaussian 09:  EM64L-G09RevE.01 30-Nov-2015

 ---------------------------------------------
 #p b3lyp/6-311++G(3df,2p) freq symmetry=Loose
 ---------------------------------------------

 ---------
 b3lyp opt
 ---------
 Symbolic Z-matrix:
 Charge =  0 Multiplicity = 4

                         Standard orientation:
 ---------------------------------------------------------------------
 Center     Atomic      Atomic             Coordinates (Angstroms)
 Number     Number       Type             X           Y           Z
 ---------------------------------------------------------------------
      1          6           0       -0.918080   -0.808852   -0.173640
      2          7           0        1.025419   -0.000026    0.573489
      3          6           0        0.522218    0.786632   -0.610945
      4          6           0        0.524152   -0.783478   -0.613301
      5          6           0       -0.920942    0.807011   -0.172479
      6          6           0       -0.403671   -0.001284    0.901294
 ---------------------------------------------------------------------

 SCF Done:  E(UB3LYP) =  -244.811177922     A.U. after   18 cycles

 The electronic state is 4-A.
 Alpha  occ. eigenvalues --  -14.42041 -10.31625 -10.31605 -10.30509 -10.28905
 Alpha  occ. eigenvalues --  -10.28894  -1.14746  -0.88314  -0.74717  -0.73369
 Alpha  occ. eigenvalues --   -0.55806  -0.49540  -0.48703  -0.45164  -0.44449
 Alpha  occ. eigenvalues --   -0.40663  -0.35050  -0.30660  -0.28675  -0.26237
 Alpha virt. eigenvalues --   -0.14870  -0.02118   0.01163   0.01735   0.01962
 Alpha virt. eigenvalues --    0.02247   0.05959   0.06069   0.06549   0.06963
 Alpha virt. eigenvalues --    0.07195   0.08335   0.09204   0.10794   0.12098

  Beta  occ. eigenvalues --  -14.41425 -10.30240 -10.30221 -10.30113 -10.27729
  Beta  occ. eigenvalues --  -10.27713  -1.12939  -0.86562  -0.71763  -0.71065
  Beta  occ. eigenvalues --   -0.53463  -0.46073  -0.44035  -0.40342  -0.40180
  Beta  occ. eigenvalues --   -0.39086  -0.30115
  Beta virt. eigenvalues --   -0.17248  -0.16284  -0.12927  -0.11840  -0.00013
  Beta virt. eigenvalues --    0.01711   0.02365   0.02876   0.02960   0.06445
  Beta virt. eigenvalues --    0.06507   0.07038   0.07497   0.07543   0.08499

 Mulliken charges and spin densities:
               1          2
     1  C   -0.007471   0.539049
     2  N   -0.551317   0.179460
     3  C    0.131693   0.742447
     4  C    0.132021   0.742979
     5  C   -0.007965   0.537053
     6  C    0.303040   0.259013
 Sum of Mulliken charges =  -0.00000   3.00000

 Dipole moment (field-independent basis, Debye):
    X=              0.1016    Y=             -0.0030    Z=              0.1981  Tot=              0.2227
 Quadrupole moment (field-independent basis, Debye-Ang):
   XX=            -37.1599   YY=            -34.0104   ZZ=            -33.9544
   XY=              0.0025   XZ=             -1.4340   YZ=             -0.0009

  Exact polarizability:  54.701  -0.017  58.601  -3.799   0.004  48.525
 Approx polarizability: 104.158  -0.033 119.444 -12.065  -0.018 104.461

                      1                      2                      3
                      A                      A                      A
 Frequencies --    409.2781               498.6133               522.5754
 Red. masses --     12.0022                12.7286                12.7512
 Frc consts  --      1.1845                 1.8645                 2.0516
 IR Inten    --      2.9904                11.7542                12.2190

                      4                      5                      6
                      A                      A                      A
 Frequencies --    579.5635               743.3125               782.4035
 Red. masses --     12.1833                12.1203                12.0092
 Frc consts  --      2.4111                 3.9455                 4.3314
 IR Inten    --      3.6637                 6.1045                47.6859

                      7                      8                      9
                      A                      A                      A
 Frequencies --    843.9089               903.0392               936.7232
 Red. masses --     12.1890                12.8001                12.1550
 Frc consts  --      5.1146                 6.1500                 6.2839
 IR Inten    --      3.6397                26.7696                13.8922

                     10                     11                     12
                      A                      A                      A
 Frequencies --   1012.3470              1097.6236              1241.9725
 Red. masses --     12.0008                12.4030                12.0131
 Frc consts  --      7.2464                 8.8041                10.9177
 IR Inten    --      0.0015                 8.2360                 2.5553

 - Thermochemistry -
 -------------------
 Temperature   298.150 Kelvin.  Pressure   1.00000 Atm.
 Atom     1 has atomic number  6 and mass  12.00000

 Molecular mass:    74.00307 amu.
 Principal axes and moments of inertia in atomic units:
                           1         2         3
     Eigenvalues --   194.70370 241.42453 264.25340
           X            1.00000   0.00000  -0.00009
           Y           -0.00000   1.00000   0.00000
           Z            0.00009  -0.00000   1.00000
 This molecule is an asymmetric top.
 Rotational symmetry number  1.
 Rotational temperatures (Kelvin)      0.44485     0.35876     0.32777
 Rotational constants (GHZ):           9.26917     7.47538     6.82959
 Zero-point vibrational energy      57249.4 (Joules/Mol)
                                   13.68295 (Kcal/Mol)
 Warning -- explicit consideration of   4 degrees of freedom as
           vibrations may cause significant error
 Vibrational temperatures:    588.86   717.39   751.87   833.86  1069.46
          (Kelvin)           1125.70  1214.20  1299.27  1347.73  1456.54
                             1579.23  1786.92

 Zero-point correction=                           0.021805 (Hartree/Particle)
 Thermal correction to Energy=                    0.025964
 Thermal correction to Enthalpy=                  0.026908
 Thermal correction to Gibbs Free Energy=        -0.006061
 Sum of electronic and zero-point Energies=           -244.789373
 Sum of electronic and thermal Energies=              -244.785214
 Sum of electronic and thermal Enthalpies=            -244.784269
 Sum of electronic and thermal Free Energies=         -244.817239

                     E (Thermal)             CV                S
                      KCal/Mol        Cal/Mol-Kelvin    Cal/Mol-Kelvin
 Total                   16.293             14.723             69.390
 Electronic               0.000              0.000              2.755
 Translational            0.889              2.981             38.821
 Rotational               0.889              2.981             24.033
 Vibrational             14.515              8.761              3.781
 Vibration     1          0.774              1.450              0.929
 Vibration     2          0.854              1.253              0.662
 Vibration     3          0.878              1.200              0.604
 Vibration     4          0.936              1.075              0.486

 Optimization completed.
    -- Stationary point found.
 Normal termination of Gaussian 09 at Tue Aug 16 18:53:02 2016.
