 Gaussian 09, Revision E.01,
 Gaussian 09:  EM64L-G09RevE.01 30-Nov-2015

 ---------------------------------------------
 #p b3lyp/6-311++G(3df,2p) freq symmetry=Loose
 ---------------------------------------------

 ---------
 b3lyp opt
 ---------
 Symbolic Z-matrix:
 Charge =  1 Multiplicity = 1

                         Standard orientation:
 ---------------------------------------------------------------------
 Center     Atomic      Atomic             Coordinates (Angstroms)
 Number     Number       Type             X           Y           Z
 ---------------------------------------------------------------------
      1          6           0        0.000000    0.000000   -0.631204
      2          7           0        0.000000    0.000000    0.541032
 ---------------------------------------------------------------------

 SCF Done:  E(RB3LYP) =  -92.1869996774     A.U. after   11 cycles

 The electronic state is 1-SG.
 Alpha  occ. eigenvalues --  -14.83647 -10.76402  -1.35499  -0.85739  -0.77548
 Alpha  occ. eigenvalues --   -0.77548
 Alpha virt. eigenvalues --   -0.69462  -0.38643  -0.38643  -0.16810  -0.13158
 Alpha virt. eigenvalues --   -0.12106  -0.12106  -0.06031  -0.02399  -0.02399
 Alpha virt. eigenvalues --    0.02705   0.04596   0.04596   0.09141   0.17977

 Mulliken charges:
               1
     1  C    0.994665
     2  N    0.005335
 Sum of Mulliken charges =   1.00000

 Dipole moment (field-independent basis, Debye):
    X=              0.0000    Y=              0.0000    Z=             -1.9980  Tot=              1.9980
 Quadrupole moment (field-independent basis, Debye-Ang):
   XX=             -8.8131   YY=             -8.8131   ZZ=             -3.8119
   XY=              0.0000   XZ=              0.0000   YZ=              0.0000

  Exact polarizability:  22.404  -0.000  22.404   0.000   0.000  20.414
 Approx polarizability:  17.674  -0.000  17.674  -0.000  -0.000  91.538

                      1
                     SG
 Frequencies --   2078.8493
 Red. masses --     12.8481
 Frc consts  --     32.7142
 IR Inten    --      1.6150

 - Thermochemistry -
 -------------------
 Temperature   298.150 Kelvin.  Pressure   1.00000 Atm.
 Atom     1 has atomic number  6 and mass  12.00000

 Molecular mass:    26.00307 amu.
 Principal axes and moments of inertia in atomic units:
                           1         2         3
     Eigenvalues --     0.00000  31.71084  31.71084
           X            0.00000  -0.00000   1.00000
           Y            0.00000   1.00000   0.00000
           Z            1.00000   0.00000   0.00000
 This molecule is a prolate symmetric top.
 Rotational symmetry number  1.
 Rotational temperature (Kelvin)      2.73136
 Rotational constant (GHZ):          56.912433
 Zero-point vibrational energy      12434.3 (Joules/Mol)
                                    2.97186 (Kcal/Mol)
 Vibrational temperatures:   2991.00
          (Kelvin)

 Zero-point correction=                           0.004736 (Hartree/Particle)
 Thermal correction to Energy=                    0.007097
 Thermal correction to Enthalpy=                  0.008041
 Thermal correction to Gibbs Free Energy=        -0.014298
 Sum of electronic and zero-point Energies=            -92.182264
 Sum of electronic and thermal Energies=               -92.179903
 Sum of electronic and thermal Enthalpies=             -92.178959
 Sum of electronic and thermal Free Energies=          -92.201298

                     E (Thermal)             CV                S
                      KCal/Mol        Cal/Mol-Kelvin    Cal/Mol-Kelvin
 Total                    4.453              4.977             47.017
 Electronic               0.000              0.000              0.000
 Translational            0.889              2.981             35.703
 Rotational               0.592              1.987             11.313
 Vibrational              2.972              0.009              0.001

 Optimization completed.
    -- Stationary point found.
 Normal termination of Gaussian 09 at Tue Aug 16 17:37:07 2016.
