 Gaussian 09, Revision E.01,
 Gaussian 09:  EM64L-G09RevE.01 30-Nov-2015

 ---------------------------------------------
 #p b3lyp/6-311++G(3df,2p) freq symmetry=Loose
 ---------------------------------------------

 ---------
 b3lyp opt
 ---------
 Symbolic Z-matrix:
 Charge =  0 Multiplicity = 2

                         Standard orientation:
 ---------------------------------------------------------------------
 Center     Atomic      Atomic             Coordinates (Angstroms)
 Number     Number       Type             X           Y           Z
 ---------------------------------------------------------------------
      1          6           0        0.000000    0.000000   -0.625762
      2          7           0        0.000000    0.000000    0.536368
 ---------------------------------------------------------------------

 SCF Done:  E(UB3LYP) =  -92.7446571193     A.U. after   12 cycles

 The electronic state is 2-SG.
 Alpha  occ. eigenvalues --  -14.38574 -10.29521  -0.96898  -0.50649  -0.41507
 Alpha  occ. eigenvalues --   -0.39811  -0.39811
 Alpha virt. eigenvalues --   -0.02497  -0.02497   0.02250   0.05202   0.06539
 Alpha virt. eigenvalues --    0.06539   0.13562   0.16799   0.16799   0.21647
 Alpha virt. eigenvalues --    0.31419   0.31419   0.35658   0.44354   0.44354

  Beta  occ. eigenvalues --  -14.38127 -10.27918  -0.94634  -0.44033  -0.38947
  Beta  occ. eigenvalues --   -0.38947
  Beta virt. eigenvalues --   -0.25686  -0.00530  -0.00530   0.03012   0.05639
  Beta virt. eigenvalues --    0.06949   0.06949   0.13838   0.16904   0.16904
  Beta virt. eigenvalues --    0.22315   0.31827   0.31827   0.37926   0.45658

 Mulliken charges and spin densities:
               1          2
     1  C    0.434049   0.889142
     2  N   -0.434049   0.110858
 Sum of Mulliken charges =  -0.00000   1.00000

 Dipole moment (field-independent basis, Debye):
    X=              0.0000    Y=              0.0000    Z=             -1.3811  Tot=              1.3811
 Quadrupole moment (field-independent basis, Debye-Ang):
   XX=            -11.0538   YY=            -11.0538   ZZ=            -10.5332
   XY=              0.0000   XZ=              0.0000   YZ=              0.0000

  Exact polarizability:  18.270  -0.000  18.270   0.000  -0.000  26.871
 Approx polarizability:  19.163  -0.000  19.163  -0.000  -0.000  56.047

                      1
                     SG
 Frequencies --   2151.1971
 Red. masses --     12.8481
 Frc consts  --     35.0309
 IR Inten    --     20.2697

 - Thermochemistry -
 -------------------
 Temperature   298.150 Kelvin.  Pressure   1.00000 Atm.
 Atom     1 has atomic number  6 and mass  12.00000

 Molecular mass:    26.00307 amu.
 Principal axes and moments of inertia in atomic units:
                           1         2         3
     Eigenvalues --     0.00000  31.16643  31.16643
           X            0.00000  -0.00000   1.00000
           Y            0.00000   1.00000   0.00000
           Z            1.00000   0.00000   0.00000
 This molecule is a prolate symmetric top.
 Rotational symmetry number  1.
 Rotational temperature (Kelvin)      2.77907
 Rotational constant (GHZ):          57.906569
 Zero-point vibrational energy      12867.0 (Joules/Mol)
                                    3.07529 (Kcal/Mol)
 Vibrational temperatures:   3095.09
          (Kelvin)

 Zero-point correction=                           0.004901 (Hartree/Particle)
 Thermal correction to Energy=                    0.007262
 Thermal correction to Enthalpy=                  0.008206
 Thermal correction to Gibbs Free Energy=        -0.014771
 Sum of electronic and zero-point Energies=            -92.739756
 Sum of electronic and thermal Energies=               -92.737396
 Sum of electronic and thermal Enthalpies=             -92.736451
 Sum of electronic and thermal Free Energies=          -92.759429

                     E (Thermal)             CV                S
                      KCal/Mol        Cal/Mol-Kelvin    Cal/Mol-Kelvin
 Total                    4.557              4.975             48.360
 Electronic               0.000              0.000              1.377
 Translational            0.889              2.981             35.703
 Rotational               0.592              1.987             11.278
 Vibrational              3.075              0.007              0.001

 Optimization completed.
    -- Stationary point found.
 Normal termination of Gaussian 09 at Tue Aug 16 17:37:07 2016.
