 Gaussian 09, Revision E.01,
 Gaussian 09:  EM64L-G09RevE.01 30-Nov-2015

 ---------------------------------------------
 #p b3lyp/6-311++G(3df,2p) freq symmetry=Loose
 ---------------------------------------------

 ---------
 b3lyp opt
 ---------
 Symbolic Z-matrix:
 Charge =  1 Multiplicity = 3

                         Standard orientation:
 ---------------------------------------------------------------------
 Center     Atomic      Atomic             Coordinates (Angstroms)
 Number     Number       Type             X           Y           Z
 ---------------------------------------------------------------------
      1          6           0        0.000000    0.000000   -0.662485
      2          7           0        0.000000    0.000000    0.567845
 ---------------------------------------------------------------------

 SCF Done:  E(UB3LYP) =  -92.2284845821     A.U. after   13 cycles

 Unable to determine electronic state:  partially filled degenerate orbitals.
 Alpha  occ. eigenvalues --  -14.84492 -10.76269  -1.38844  -0.90386  -0.82209
 Alpha  occ. eigenvalues --   -0.79611  -0.77919
 Alpha virt. eigenvalues --   -0.44924  -0.41649  -0.17654  -0.13092  -0.12612
 Alpha virt. eigenvalues --   -0.12208  -0.06227  -0.03101  -0.02613   0.01272
 Alpha virt. eigenvalues --    0.02933   0.03052   0.05218   0.17197   0.18011

  Beta  occ. eigenvalues --  -14.82743 -10.73807  -1.32064  -0.81271  -0.75726
  Beta virt. eigenvalues --   -0.64218  -0.60960  -0.38058  -0.34600  -0.16405
  Beta virt. eigenvalues --   -0.12262  -0.12034  -0.11737  -0.05685  -0.02524
  Beta virt. eigenvalues --   -0.02209   0.02802   0.04230   0.04439   0.08699

 Mulliken charges and spin densities:
               1          2
     1  C    0.907664   1.238343
     2  N    0.092336   0.761657
 Sum of Mulliken charges =   1.00000   2.00000

 Dipole moment (field-independent basis, Debye):
    X=              0.0000    Y=              0.0000    Z=             -1.8368  Tot=              1.8368
 Quadrupole moment (field-independent basis, Debye-Ang):
   XX=             -9.0244   YY=             -7.6763   ZZ=             -6.2513
   XY=              0.0000   XZ=              0.0000   YZ=              0.0000

  Exact polarizability:  12.366   0.000   8.570   0.000  -0.000  19.643
 Approx polarizability:  13.310  -0.000  11.751  -0.000  -0.000  43.593

                      1
                     SG
 Frequencies --   1797.9825
 Red. masses --     12.8481
 Frc consts  --     24.4716
 IR Inten    --     13.8938

 - Thermochemistry -
 -------------------
 Temperature   298.150 Kelvin.  Pressure   1.00000 Atm.
 Atom     1 has atomic number  6 and mass  12.00000

 Molecular mass:    26.00307 amu.
 Principal axes and moments of inertia in atomic units:
                           1         2         3
     Eigenvalues --     0.00000  34.93180  34.93180
           X            0.00000  -0.00000   1.00000
           Y            0.00000   1.00000   0.00000
           Z            1.00000   0.00000   0.00000
 This molecule is a prolate symmetric top.
 Rotational symmetry number  1.
 Rotational temperature (Kelvin)      2.47951
 Rotational constant (GHZ):          51.664714
 Zero-point vibrational energy      10754.3 (Joules/Mol)
                                    2.57035 (Kcal/Mol)
 Vibrational temperatures:   2586.89
          (Kelvin)

 Zero-point correction=                           0.004096 (Hartree/Particle)
 Thermal correction to Energy=                    0.006458
 Thermal correction to Enthalpy=                  0.007402
 Thermal correction to Gibbs Free Energy=        -0.016067
 Sum of electronic and zero-point Energies=            -92.224388
 Sum of electronic and thermal Energies=               -92.222027
 Sum of electronic and thermal Enthalpies=             -92.221082
 Sum of electronic and thermal Free Energies=          -92.244551

                     E (Thermal)             CV                S
                      KCal/Mol        Cal/Mol-Kelvin    Cal/Mol-Kelvin
 Total                    4.052              4.994             49.394
 Electronic               0.000              0.000              2.183
 Translational            0.889              2.981             35.703
 Rotational               0.592              1.987             11.505
 Vibrational              2.571              0.026              0.003

 Optimization completed.
    -- Stationary point found.
 Normal termination of Gaussian 09 at Tue Aug 16 17:37:07 2016.
