 Gaussian 09, Revision E.01,
 Gaussian 09:  EM64L-G09RevE.01 30-Nov-2015

 ---------------------------------------------
 #p b3lyp/6-311++G(3df,2p) freq symmetry=Loose
 ---------------------------------------------

 ---------
 b3lyp opt
 ---------
 Symbolic Z-matrix:
 Charge =  2 Multiplicity = 4

                         Standard orientation:
 ---------------------------------------------------------------------
 Center     Atomic      Atomic             Coordinates (Angstroms)
 Number     Number       Type             X           Y           Z
 ---------------------------------------------------------------------
      1          6           0        0.000000    0.000000   -0.776407
      2          7           0        0.000000    0.000000    0.665491
 ---------------------------------------------------------------------

 SCF Done:  E(UB3LYP) =  -91.3482235988     A.U. after   13 cycles

 The electronic state is 4-SG.
 Alpha  occ. eigenvalues --  -15.33196 -11.27046  -1.74667  -1.33966  -1.18314
 Alpha  occ. eigenvalues --   -1.18110  -1.18110
 Alpha virt. eigenvalues --   -0.90047  -0.90047  -0.59867  -0.40580  -0.32908
 Alpha virt. eigenvalues --   -0.32908  -0.30963  -0.26848  -0.25184  -0.25183
 Alpha virt. eigenvalues --   -0.23438  -0.23438  -0.15452  -0.11935  -0.11935

  Beta  occ. eigenvalues --  -15.29033 -11.24593  -1.63094  -1.21105
  Beta virt. eigenvalues --   -0.98362  -0.98362  -0.98177  -0.78350  -0.78350
  Beta virt. eigenvalues --   -0.50526  -0.39134  -0.31885  -0.31885  -0.29340
  Beta virt. eigenvalues --   -0.25890  -0.23173  -0.23170  -0.22301  -0.22301

 Mulliken charges and spin densities:
               1          2
     1  C    1.304045   1.159189
     2  N    0.695955   1.840811
 Sum of Mulliken charges =   2.00000   3.00000

 Dipole moment (field-independent basis, Debye):
    X=              0.0000    Y=              0.0000    Z=             -2.1083  Tot=              2.1083
 Quadrupole moment (field-independent basis, Debye-Ang):
   XX=             -6.5438   YY=             -6.5438   ZZ=             -1.0715
   XY=              0.0000   XZ=              0.0000   YZ=              0.0000

  Exact polarizability:   7.336   0.000   7.336  -0.000   0.000  19.082
 Approx polarizability:  10.150  -0.000  10.150  -0.000  -0.000  47.128

                      1
                     SG
 Frequencies --    807.5712
 Red. masses --     12.8481
 Frc consts  --      4.9369
 IR Inten    --      2.4878

 - Thermochemistry -
 -------------------
 Temperature   298.150 Kelvin.  Pressure   1.00000 Atm.
 Atom     1 has atomic number  6 and mass  12.00000

 Molecular mass:    26.00307 amu.
 Principal axes and moments of inertia in atomic units:
                           1         2         3
     Eigenvalues --     0.00000  47.97851  47.97851
           X            0.00000  -0.00000   1.00000
           Y            0.00000   1.00000   0.00000
           Z            1.00000   0.00000   0.00000
 This molecule is a prolate symmetric top.
 Rotational symmetry number  1.
 Rotational temperature (Kelvin)      1.80526
 Rotational constant (GHZ):          37.615616
 Zero-point vibrational energy       4830.3 (Joules/Mol)
                                    1.15448 (Kcal/Mol)
 Vibrational temperatures:   1161.91
          (Kelvin)

 Zero-point correction=                           0.001840 (Hartree/Particle)
 Thermal correction to Energy=                    0.004276
 Thermal correction to Enthalpy=                  0.005221
 Thermal correction to Gibbs Free Energy=        -0.018914
 Sum of electronic and zero-point Energies=            -91.346384
 Sum of electronic and thermal Energies=               -91.343947
 Sum of electronic and thermal Enthalpies=             -91.343003
 Sum of electronic and thermal Free Energies=          -91.367137

                     E (Thermal)             CV                S
                      KCal/Mol        Cal/Mol-Kelvin    Cal/Mol-Kelvin
 Total                    2.684              5.606             50.795
 Electronic               0.000              0.000              2.755
 Translational            0.889              2.981             35.703
 Rotational               0.592              1.987             12.136
 Vibrational              1.202              0.638              0.201

 Optimization completed.
    -- Stationary point found.
 Normal termination of Gaussian 09 at Tue Aug 16 17:37:07 2016.
