 Gaussian 09, Revision E.01,
 Gaussian 09:  EM64L-G09RevE.01 30-Nov-2015

 ---------------------------------------------
 #p b3lyp/6-311++G(3df,2p) freq symmetry=Loose
 ---------------------------------------------

 ---------
 b3lyp opt
 ---------
 Symbolic Z-matrix:
 Charge =  1 Multiplicity = 1

                         Standard orientation:
 ---------------------------------------------------------------------
 Center     Atomic      Atomic             Coordinates (Angstroms)
 Number     Number       Type             X           Y           Z
 ---------------------------------------------------------------------
      1          6           0        0.000000    0.000000   -0.735704
      2          7           0        0.000000    0.000000    0.630603
 ---------------------------------------------------------------------

 SCF Done:  E(RB3LYP) =  -92.1411547147     A.U. after   11 cycles

 The electronic state is 1-SG.
 Alpha  occ. eigenvalues --  -14.86199 -10.79395  -1.27279  -0.88494  -0.72834
 Alpha  occ. eigenvalues --   -0.72834
 Alpha virt. eigenvalues --   -0.68282  -0.44517  -0.44517  -0.16986  -0.14553
 Alpha virt. eigenvalues --   -0.11656  -0.11656  -0.06187  -0.04370  -0.03065
 Alpha virt. eigenvalues --   -0.03065   0.03528   0.05043   0.05044   0.16650

 Mulliken charges:
               1
     1  C    0.839965
     2  N    0.160035
 Sum of Mulliken charges =   1.00000

 Dipole moment (field-independent basis, Debye):
    X=              0.0000    Y=              0.0000    Z=             -1.9242  Tot=              1.9242
 Quadrupole moment (field-independent basis, Debye-Ang):
   XX=             -9.3774   YY=             -9.3774   ZZ=             -2.8476
   XY=              0.0000   XZ=              0.0000   YZ=              0.0000

  Exact polarizability:  -4.366  -0.000  -4.366   0.000  -0.000  21.991
 Approx polarizability:  20.906  -0.000  20.906  -0.000  -0.000 103.312

                      1
                     SG
 Frequencies --    835.6732
 Red. masses --     12.8481
 Frc consts  --      5.2864
 IR Inten    --      0.3463

 - Thermochemistry -
 -------------------
 Temperature   298.150 Kelvin.  Pressure   1.00000 Atm.
 Atom     1 has atomic number  6 and mass  12.00000

 Molecular mass:    26.00307 amu.
 Principal axes and moments of inertia in atomic units:
                           1         2         3
     Eigenvalues --     0.00000  43.07986  43.07986
           X            0.00000  -0.00000   1.00000
           Y            0.00000   1.00000   0.00000
           Z            1.00000   0.00000   0.00000
 This molecule is a prolate symmetric top.
 Rotational symmetry number  1.
 Rotational temperature (Kelvin)      2.01054
 Rotational constant (GHZ):          41.892924
 Zero-point vibrational energy       4998.4 (Joules/Mol)
                                    1.19465 (Kcal/Mol)
 Vibrational temperatures:   1202.35
          (Kelvin)

 Zero-point correction=                           0.001904 (Hartree/Particle)
 Thermal correction to Energy=                    0.004333
 Thermal correction to Enthalpy=                  0.005277
 Thermal correction to Gibbs Free Energy=        -0.017436
 Sum of electronic and zero-point Energies=            -92.139251
 Sum of electronic and thermal Energies=               -92.136822
 Sum of electronic and thermal Enthalpies=             -92.135878
 Sum of electronic and thermal Free Energies=          -92.158591

                     E (Thermal)             CV                S
                      KCal/Mol        Cal/Mol-Kelvin    Cal/Mol-Kelvin
 Total                    2.719              5.562             47.805
 Electronic               0.000              0.000              0.000
 Translational            0.889              2.981             35.703
 Rotational               0.592              1.987             11.922
 Vibrational              1.238              0.594              0.180

 Normal termination of Gaussian 09 at Tue Aug 16 17:37:06 2016.
