 Gaussian 09, Revision E.01,
 Gaussian 09:  EM64L-G09RevE.01 30-Nov-2015

 ---------------------------------------------
 #p b3lyp/6-311++G(3df,2p) freq symmetry=Loose
 ---------------------------------------------

 ---------
 b3lyp opt
 ---------
 Symbolic Z-matrix:
 Charge =  2 Multiplicity = 2

                         Standard orientation:
 ---------------------------------------------------------------------
 Center     Atomic      Atomic             Coordinates (Angstroms)
 Number     Number       Type             X           Y           Z
 ---------------------------------------------------------------------
      1          6           0        0.000000    0.000000   -0.691671
      2          7           0        0.000000    0.000000    0.592861
 ---------------------------------------------------------------------

 SCF Done:  E(UB3LYP) =  -91.2762290332     A.U. after   17 cycles

 Unable to determine electronic state:  partially filled degenerate orbitals.
 Alpha  occ. eigenvalues --  -15.34297 -11.28959  -1.78062  -1.29100  -1.21755
 Alpha  occ. eigenvalues --   -1.17369
 Alpha virt. eigenvalues --   -1.09975  -0.87313  -0.83776  -0.43871  -0.38786
 Alpha virt. eigenvalues --   -0.33604  -0.33014  -0.29941  -0.27126  -0.25163
 Alpha virt. eigenvalues --   -0.25046  -0.23341  -0.22815  -0.15213  -0.09941

  Beta  occ. eigenvalues --  -15.32857 -11.28243  -1.73291  -1.26315  -1.15909
  Beta virt. eigenvalues --   -1.08537  -1.03944  -0.82636  -0.78161  -0.42290
  Beta virt. eigenvalues --   -0.37877  -0.33004  -0.32690  -0.29518  -0.26924
  Beta virt. eigenvalues --   -0.24161  -0.23960  -0.22751  -0.22469  -0.14958

 Mulliken charges and spin densities:
               1          2
     1  C    1.411718   0.336844
     2  N    0.588282   0.663156
 Sum of Mulliken charges =   2.00000   1.00000

 Dipole moment (field-independent basis, Debye):
    X=              0.0000    Y=              0.0000    Z=             -2.5026  Tot=              2.5026
 Quadrupole moment (field-independent basis, Debye-Ang):
   XX=             -7.4811   YY=             -6.2868   ZZ=              0.2956
   XY=              0.0000   XZ=              0.0000   YZ=              0.0000

  Exact polarizability:  25.456   0.000  49.122   0.000   0.000  17.926
 Approx polarizability:  14.546  -0.000  10.923  -0.000  -0.000  80.483

                      1
                     SG
 Frequencies --   1497.9480
 Red. masses --     12.8481
 Frc consts  --     16.9857
 IR Inten    --      0.7093

 - Thermochemistry -
 -------------------
 Temperature   298.150 Kelvin.  Pressure   1.00000 Atm.
 Atom     1 has atomic number  6 and mass  12.00000

 Molecular mass:    26.00307 amu.
 Principal axes and moments of inertia in atomic units:
                           1         2         3
     Eigenvalues --     0.00000  38.07742  38.07742
           X            0.00000  -0.00000   1.00000
           Y            0.00000   1.00000   0.00000
           Z            1.00000   0.00000   0.00000
 This molecule is a prolate symmetric top.
 Rotational symmetry number  1.
 Rotational temperature (Kelvin)      2.27468
 Rotational constant (GHZ):          47.396623
 Zero-point vibrational energy       8959.7 (Joules/Mol)
                                    2.14142 (Kcal/Mol)
 Vibrational temperatures:   2155.21
          (Kelvin)

 Zero-point correction=                           0.003413 (Hartree/Particle)
 Thermal correction to Energy=                    0.005778
 Thermal correction to Enthalpy=                  0.006722
 Thermal correction to Gibbs Free Energy=        -0.016449
 Sum of electronic and zero-point Energies=            -91.272816
 Sum of electronic and thermal Energies=               -91.270451
 Sum of electronic and thermal Enthalpies=             -91.269507
 Sum of electronic and thermal Free Energies=          -91.292678

                     E (Thermal)             CV                S
                      KCal/Mol        Cal/Mol-Kelvin    Cal/Mol-Kelvin
 Total                    3.626              5.043             48.769
 Electronic               0.000              0.000              1.377
 Translational            0.889              2.981             35.703
 Rotational               0.592              1.987             11.676
 Vibrational              2.145              0.075              0.012

 Optimization completed.
    -- Stationary point found.
 Normal termination of Gaussian 09 at Tue Aug 16 17:37:07 2016.
