 Gaussian 09, Revision C.01,
 Gaussian 09:  AM64L-G09RevC.01 23-Sep-2011

 ------------------------------
 #p b3lyp/6-311++G(3df,2p) freq
 ------------------------------

 (Enter /home/nestor/.gaussian09/l101.exe)
 ---------
 b3lyp opt
 ---------
 Charge =  0 Multiplicity = 4

                         Standard orientation:
 ---------------------------------------------------------------------
 Center     Atomic      Atomic             Coordinates (Angstroms)
 Number     Number       Type             X           Y           Z
 ---------------------------------------------------------------------
      1          7           0        0.000000    0.000000    0.000000
 ---------------------------------------------------------------------

 SCF Done:  E(UB3LYP) =  -54.6007233624     A.U. after    9 cycles

 The electronic state is 4-A1G.
 Alpha  occ. eigenvalues --  -14.43480  -0.81423  -0.35990  -0.35990  -0.35990
 Alpha virt. eigenvalues --    0.05746   0.10703   0.10703   0.10703   0.49957
 Alpha virt. eigenvalues --    0.49957   0.49957   0.49957   0.49957   0.72233
 Alpha virt. eigenvalues --    0.72233   0.72233   0.88195   2.24832   2.24832

  Beta  occ. eigenvalues --  -14.37613  -0.61930
  Beta virt. eigenvalues --   -0.11686  -0.11686  -0.11686   0.07486   0.13281
  Beta virt. eigenvalues --    0.13281   0.13281   0.54251   0.54251   0.54251
  Beta virt. eigenvalues --    0.54251   0.54251   0.80604   0.80604   0.80604

 Mulliken atomic charges:
              1
     1  N    0.000000
 Sum of Mulliken atomic charges =   0.00000

 Dipole moment (field-independent basis, Debye):
    X=              0.0000    Y=              0.0000    Z=              0.0000  Tot=              0.0000
 Quadrupole moment (field-independent basis, Debye-Ang):
   XX=             -5.5878   YY=             -5.5878   ZZ=             -5.5878
   XY=              0.0000   XZ=              0.0000   YZ=              0.0000

  Exact polarizability:   7.107   0.000   7.107   0.000   0.000   7.107
 Approx polarizability:   7.874   0.000   7.874   0.000   0.000   7.874

 - Thermochemistry -
 -------------------
 Temperature   298.150 Kelvin.  Pressure   1.00000 Atm.
 Atom     1 has atomic number  7 and mass  14.00307
 Molecular mass:    14.00307 amu.
 Zero-point vibrational energy          0.0 (Joules/Mol)
                                    0.00000 (Kcal/Mol)
 Vibrational temperatures:
          (Kelvin)

 Zero-point correction=                           0.000000 (Hartree/Particle)
 Thermal correction to Energy=                    0.001416
 Thermal correction to Enthalpy=                  0.002360
 Thermal correction to Gibbs Free Energy=        -0.015036
 Sum of electronic and zero-point Energies=            -54.600723
 Sum of electronic and thermal Energies=               -54.599307
 Sum of electronic and thermal Enthalpies=             -54.598363
 Sum of electronic and thermal Free Energies=          -54.615759

                     E (Thermal)             CV                S
                      KCal/Mol        Cal/Mol-Kelvin    Cal/Mol-Kelvin
 Total                    0.889              2.981             36.613
 Electronic               0.000              0.000              2.755
 Translational            0.889              2.981             33.858
 Rotational               0.000              0.000              0.000
 Vibrational              0.000              0.000              0.000

 Optimization completed.
    -- Stationary point found.
 Normal termination of Gaussian 09 at Fri Sep 16 18:57:26 2016.
