 Gaussian 09, Revision C.01,
 Gaussian 09:  AM64L-G09RevC.01 23-Sep-2011

 ------------------------------
 #p b3lyp/6-311++G(3df,2p) freq
 ------------------------------

 (Enter /home/nestor/.gaussian09/l101.exe)
 ---------
 b3lyp opt
 ---------
 Charge =  0 Multiplicity = 2

                         Standard orientation:
 ---------------------------------------------------------------------
 Center     Atomic      Atomic             Coordinates (Angstroms)
 Number     Number       Type             X           Y           Z
 ---------------------------------------------------------------------
      1          7           0        0.000000    0.000000    0.000000
 ---------------------------------------------------------------------

 SCF Done:  E(UB3LYP) =  -54.5002887751     A.U. after   10 cycles

 Unable to determine electronic state:  an orbital has unidentified symmetry.
 Alpha  occ. eigenvalues --  -14.46177  -0.77494  -0.36532  -0.30108
 Alpha virt. eigenvalues --   -0.22888   0.05680   0.10317   0.10913   0.11060
 Alpha virt. eigenvalues --    0.49332   0.49647   0.51029   0.51052   0.51821
 Alpha virt. eigenvalues --    0.71682   0.73767   0.75071   0.89454   2.24032

  Beta  occ. eigenvalues --  -14.44085  -0.70537  -0.28045
  Beta virt. eigenvalues --   -0.20726  -0.14844   0.06288   0.11070   0.11348
  Beta virt. eigenvalues --    0.12450   0.51064   0.51091   0.51805   0.52960
  Beta virt. eigenvalues --    0.53367   0.74843   0.75989   0.78528   0.92557

 Mulliken atomic charges:
              1
     1  N    0.000000
 Sum of Mulliken atomic charges =   0.00000

 Dipole moment (field-independent basis, Debye):
    X=              0.0000    Y=              0.0000    Z=              0.0000  Tot=              0.0000
 Quadrupole moment (field-independent basis, Debye-Ang):
   XX=             -5.7295   YY=             -4.3619   ZZ=             -7.4865
   XY=              0.0000   XZ=              0.0000   YZ=              0.0000

  Exact polarizability:   7.038   0.000   6.118   0.000   0.000   8.766
 Approx polarizability:   7.681   0.000   8.941   0.000   0.000   8.683

 - Thermochemistry -
 -------------------
 Temperature   298.150 Kelvin.  Pressure   1.00000 Atm.
 Atom     1 has atomic number  7 and mass  14.00307
 Molecular mass:    14.00307 amu.
 Zero-point vibrational energy          0.0 (Joules/Mol)
                                    0.00000 (Kcal/Mol)
 Vibrational temperatures:
          (Kelvin)

 Zero-point correction=                           0.000000 (Hartree/Particle)
 Thermal correction to Energy=                    0.001416
 Thermal correction to Enthalpy=                  0.002360
 Thermal correction to Gibbs Free Energy=        -0.014381
 Sum of electronic and zero-point Energies=            -54.500289
 Sum of electronic and thermal Energies=               -54.498872
 Sum of electronic and thermal Enthalpies=             -54.497928
 Sum of electronic and thermal Free Energies=          -54.514670

                     E (Thermal)             CV                S
                      KCal/Mol        Cal/Mol-Kelvin    Cal/Mol-Kelvin
 Total                    0.889              2.981             35.236
 Electronic               0.000              0.000              1.377
 Translational            0.889              2.981             33.858
 Rotational               0.000              0.000              0.000
 Vibrational              0.000              0.000              0.000

 Optimization completed.
    -- Stationary point found.
 Normal termination of Gaussian 09 at Fri Sep 16 18:57:29 2016.
