 Gaussian 09, Revision C.01,
 Gaussian 09:  AM64L-G09RevC.01 23-Sep-2011

 ------------------------------
 #p b3lyp/6-311++G(3df,2p) freq
 ------------------------------

 (Enter /home/nestor/.gaussian09/l101.exe)
 ---------
 b3lyp opt
 ---------
 Charge =  1 Multiplicity = 1

                         Standard orientation:
 ---------------------------------------------------------------------
 Center     Atomic      Atomic             Coordinates (Angstroms)
 Number     Number       Type             X           Y           Z
 ---------------------------------------------------------------------
      1          7           0        0.000000    0.000000    0.000000
 ---------------------------------------------------------------------

 SCF Done:  E(RB3LYP) =  -53.9634317758     A.U. after    9 cycles

 Unable to determine electronic state:  an orbital has unidentified symmetry.
 Alpha  occ. eigenvalues --  -15.08896  -1.25267  -0.79589
 Alpha virt. eigenvalues --   -0.71098  -0.71098  -0.19229  -0.11834  -0.11834
 Alpha virt. eigenvalues --   -0.11786   0.15824   0.15824   0.17068   0.17068
 Alpha virt. eigenvalues --    0.18058   0.37601   0.37601   0.38825   0.51450

 Mulliken atomic charges:
              1
     1  N    1.000000
 Sum of Mulliken atomic charges =   1.00000

 Dipole moment (field-independent basis, Debye):
    X=              0.0000    Y=              0.0000    Z=              0.0000  Tot=              0.0000
 Quadrupole moment (field-independent basis, Debye-Ang):
   XX=             -2.9149   YY=             -2.9149   ZZ=             -5.0843
   XY=              0.0000   XZ=              0.0000   YZ=              0.0000

  Exact polarizability:   3.918   0.000   3.918   0.000   0.000   3.255
 Approx polarizability:   5.709   0.000   5.709   0.000   0.000   3.195

 - Thermochemistry -
 -------------------
 Temperature   298.150 Kelvin.  Pressure   1.00000 Atm.
 Atom     1 has atomic number  7 and mass  14.00307
 Molecular mass:    14.00307 amu.
 Zero-point vibrational energy          0.0 (Joules/Mol)
                                    0.00000 (Kcal/Mol)
 Vibrational temperatures:
          (Kelvin)

 Zero-point correction=                           0.000000 (Hartree/Particle)
 Thermal correction to Energy=                    0.001416
 Thermal correction to Enthalpy=                  0.002360
 Thermal correction to Gibbs Free Energy=        -0.013727
 Sum of electronic and zero-point Energies=            -53.963432
 Sum of electronic and thermal Energies=               -53.962015
 Sum of electronic and thermal Enthalpies=             -53.961071
 Sum of electronic and thermal Free Energies=          -53.977158

                     E (Thermal)             CV                S
                      KCal/Mol        Cal/Mol-Kelvin    Cal/Mol-Kelvin
 Total                    0.889              2.981             33.858
 Electronic               0.000              0.000              0.000
 Translational            0.889              2.981             33.858
 Rotational               0.000              0.000              0.000
 Vibrational              0.000              0.000              0.000

 Optimization completed.
    -- Stationary point found.
 Normal termination of Gaussian 09 at Fri Sep 16 18:57:45 2016.
