 Gaussian 09, Revision C.01,
 Gaussian 09:  AM64L-G09RevC.01 23-Sep-2011

 ------------------------------
 #p b3lyp/6-311++G(3df,2p) freq
 ------------------------------

 (Enter /home/nestor/.gaussian09/l101.exe)
 ---------
 b3lyp opt
 ---------
 Charge =  1 Multiplicity = 3

                         Standard orientation:
 ---------------------------------------------------------------------
 Center     Atomic      Atomic             Coordinates (Angstroms)
 Number     Number       Type             X           Y           Z
 ---------------------------------------------------------------------
      1          7           0        0.000000    0.000000    0.000000
 ---------------------------------------------------------------------

 SCF Done:  E(UB3LYP) =  -54.0614389192     A.U. after   10 cycles

 Unable to determine electronic state:  partially filled degenerate orbitals.
 Alpha  occ. eigenvalues --  -15.07867  -1.31262  -0.87683  -0.87683
 Alpha virt. eigenvalues --   -0.72209  -0.19277  -0.11968  -0.11968  -0.11646
 Alpha virt. eigenvalues --    0.15860   0.15860   0.16010   0.16010   0.16224
 Alpha virt. eigenvalues --    0.36158   0.36158   0.37550   0.49694   1.76090

  Beta  occ. eigenvalues --  -15.03106  -1.16253
  Beta virt. eigenvalues --   -0.67309  -0.60316  -0.60316  -0.18126  -0.11333
  Beta virt. eigenvalues --   -0.10421  -0.10421   0.17551   0.18164   0.18164
  Beta virt. eigenvalues --    0.19883   0.19883   0.39089   0.42283   0.42283

 Mulliken atomic charges:
              1
     1  N    1.000000
 Sum of Mulliken atomic charges =   1.00000

 Dipole moment (field-independent basis, Debye):
    X=              0.0000    Y=              0.0000    Z=              0.0000  Tot=              0.0000
 Quadrupole moment (field-independent basis, Debye-Ang):
   XX=             -3.8679   YY=             -2.8495   ZZ=             -3.8679
   XY=              0.0000   XZ=              0.0000   YZ=              0.0000

  Exact polarizability:   3.815   0.000   3.882   0.000   0.000   3.815
 Approx polarizability:   4.056   0.000   5.609   0.000   0.000   4.056

 - Thermochemistry -
 -------------------
 Temperature   298.150 Kelvin.  Pressure   1.00000 Atm.
 Atom     1 has atomic number  7 and mass  14.00307
 Molecular mass:    14.00307 amu.
 Zero-point vibrational energy          0.0 (Joules/Mol)
                                    0.00000 (Kcal/Mol)
 Vibrational temperatures:
          (Kelvin)

 Zero-point correction=                           0.000000 (Hartree/Particle)
 Thermal correction to Energy=                    0.001416
 Thermal correction to Enthalpy=                  0.002360
 Thermal correction to Gibbs Free Energy=        -0.014764
 Sum of electronic and zero-point Energies=            -54.061439
 Sum of electronic and thermal Energies=               -54.060023
 Sum of electronic and thermal Enthalpies=             -54.059078
 Sum of electronic and thermal Free Energies=          -54.076203

                     E (Thermal)             CV                S
                      KCal/Mol        Cal/Mol-Kelvin    Cal/Mol-Kelvin
 Total                    0.889              2.981             36.041
 Electronic               0.000              0.000              2.183
 Translational            0.889              2.981             33.858
 Rotational               0.000              0.000              0.000
 Vibrational              0.000              0.000              0.000

 Optimization completed.
    -- Stationary point found.
 Normal termination of Gaussian 09 at Fri Sep 16 18:57:47 2016.
