 Gaussian 09, Revision E.01,
 Gaussian 09:  EM64L-G09RevE.01 30-Nov-2015

 ------------------------------------------------------
 #p b3lyp/6-311++G(3df,2p) freq IOp(2/17=3) IOp(2/18=3)
 ------------------------------------------------------

 ---------
 b3lyp opt
 ---------
 Symbolic Z-matrix:
 Charge = -1 Multiplicity = 2

                         Standard orientation:
 ---------------------------------------------------------------------
 Center     Atomic      Atomic             Coordinates (Angstroms)
 Number     Number       Type             X           Y           Z
 ---------------------------------------------------------------------
      1          6           0        0.000000    0.000000    0.523264
      2          6           0       -0.000000   -0.000000   -0.766184
      3          6           0       -0.000000   -0.000000   -2.062290
      4          8           0        0.000000    0.000000    1.728908
 ---------------------------------------------------------------------

 SCF Done:  E(UB3LYP) =  -189.499367812     A.U. after   17 cycles

 Unable to determine electronic state:  an orbital has unidentified symmetry.
 Alpha  occ. eigenvalues --  -18.97526 -10.07359  -9.97869  -9.96555  -0.89111
 Alpha  occ. eigenvalues --   -0.58021  -0.45681  -0.31436  -0.25620  -0.24441
 Alpha  occ. eigenvalues --   -0.10582  -0.09199  -0.08744   0.04637
 Alpha virt. eigenvalues --    0.11650   0.14521   0.17491   0.19240   0.19250
 Alpha virt. eigenvalues --    0.19877   0.23110   0.23461   0.24352   0.28258
 Alpha virt. eigenvalues --    0.28286   0.33253   0.34051   0.34145   0.35333

  Beta  occ. eigenvalues --  -18.97057 -10.06690  -9.97039  -9.96793  -0.88200
  Beta  occ. eigenvalues --   -0.57104  -0.43726  -0.30712  -0.24044  -0.22446
  Beta  occ. eigenvalues --   -0.09047  -0.07769  -0.07147
  Beta virt. eigenvalues --    0.12575   0.14575   0.14654   0.17571   0.19250
  Beta virt. eigenvalues --    0.19510   0.19863   0.23541   0.23933   0.24504
  Beta virt. eigenvalues --    0.28201   0.28457   0.33212   0.34612   0.35658

 Mulliken charges and spin densities:
               1          2
     1  C   -0.555385   0.368370
     2  C    1.082968  -0.274465
     3  C   -0.773461   0.778677
     4  O   -0.754123   0.127418
 Sum of Mulliken charges =  -1.00000   1.00000

 Dipole moment (field-independent basis, Debye):
    X=              0.0000    Y=              0.0000    Z=              4.4832  Tot=              4.4832
 Quadrupole moment (field-independent basis, Debye-Ang):
   XX=            -27.1635   YY=            -25.0722   ZZ=            -50.9331
   XY=              0.0000   XZ=             -0.0000   YZ=             -0.0000

  Exact polarizability:  39.886  -0.000  34.786   0.000  -0.000  95.803
 Approx polarizability:  49.745   0.000  48.116   0.000   0.000 172.398

 ******    1 imaginary frequencies (negative Signs) ******

                      1                      2                      3
                     ?A                     ?A                     ?A
 Frequencies --   -316.9285               202.4109               281.9570
 Red. masses --     12.4719                12.4412                12.3165
 Frc consts  --      0.7381                 0.3003                 0.5769
 IR Inten    --      0.6546                14.3396                 5.1840

                      4                      5                      6
                     ?A                     SG                     SG
 Frequencies --    614.7427               924.1288              1623.3751
 Red. masses --     12.3466                13.3803                12.4312
 Frc consts  --      2.7491                 6.7326                19.3019
 IR Inten    --     12.5625                23.6780                22.1669

                      7
                     SG
 Frequencies --   2090.3473
 Red. masses --     12.4363
 Frc consts  --     32.0169
 IR Inten    --   1114.0570

 - Thermochemistry -
 -------------------
 Temperature   298.150 Kelvin.  Pressure   1.00000 Atm.
 Atom     1 has atomic number  6 and mass  12.00000

 Molecular mass:    51.99491 amu.
 Principal axes and moments of inertia in atomic units:
                           1         2         3
     Eigenvalues --     0.00000 389.87949 389.87949
           X            0.00000   0.12397   0.99229
           Y            0.00000   0.99229  -0.12397
           Z            1.00000  -0.00000   0.00000
 This molecule is a prolate symmetric top.
 Rotational symmetry number  1.
 Rotational temperature (Kelvin)      0.22216
 Rotational constant (GHZ):           4.628972
    1 imaginary frequencies ignored.
 Zero-point vibrational energy      34314.7 (Joules/Mol)
                                    8.20140 (Kcal/Mol)
 Warning -- explicit consideration of   3 degrees of freedom as
           vibrations may cause significant error
 Vibrational temperatures:    291.22   405.67   884.48  1329.61  2335.67
          (Kelvin)           3007.54

 Zero-point correction=                           0.013070 (Hartree/Particle)
 Thermal correction to Energy=                    0.016635
 Thermal correction to Enthalpy=                  0.017579
 Thermal correction to Gibbs Free Energy=        -0.010757
 Sum of electronic and zero-point Energies=           -189.486298
 Sum of electronic and thermal Energies=              -189.482733
 Sum of electronic and thermal Enthalpies=            -189.481789
 Sum of electronic and thermal Free Energies=         -189.510124

                     E (Thermal)             CV                S
                      KCal/Mol        Cal/Mol-Kelvin    Cal/Mol-Kelvin
 Total                   10.439             10.037             59.638
 Electronic               0.000              0.000              1.377
 Translational            0.889              2.981             37.769
 Rotational               0.592              1.987             16.299
 Vibrational              8.957              5.069              4.193
 Vibration     1          0.639              1.836              2.111
 Vibration     2          0.681              1.707              1.522
 Vibration     3          0.974              1.001              0.425

 Optimization completed.
    -- Stationary point found.
 Normal termination of Gaussian 09 at Thu Mar  7 08:22:14 2019.
