 Gaussian 09, Revision E.01,
 Gaussian 09:  EM64L-G09RevE.01 30-Nov-2015

 ------------------------------------------------------
 #p b3lyp/6-311++G(3df,2p) freq IOp(2/17=3) IOp(2/18=3)
 ------------------------------------------------------

 ---------
 b3lyp opt
 ---------
 Symbolic Z-matrix:
 Charge = -1 Multiplicity = 4

                         Standard orientation:
 ---------------------------------------------------------------------
 Center     Atomic      Atomic             Coordinates (Angstroms)
 Number     Number       Type             X           Y           Z
 ---------------------------------------------------------------------
      1          6           0       -0.000000   -0.000000   -2.067268
      2          6           0       -0.000000   -0.000000   -0.760155
      3          6           0        0.000000    0.000000    0.510598
      4          8           0        0.000000    0.000000    1.737619
 ---------------------------------------------------------------------

 SCF Done:  E(UB3LYP) =  -189.393224464     A.U. after   16 cycles

 The electronic state is 4-SG.
 Alpha  occ. eigenvalues --  -18.92968 -10.02878 -10.02134  -9.97905  -0.84043
 Alpha  occ. eigenvalues --   -0.57706  -0.46641  -0.27505  -0.21606  -0.21606
 Alpha  occ. eigenvalues --   -0.19962  -0.11142  -0.11142   0.03786   0.03786
 Alpha virt. eigenvalues --    0.15492   0.16050   0.19221   0.19221   0.19955
 Alpha virt. eigenvalues --    0.23011   0.23011   0.23939   0.28387   0.28387
 Alpha virt. eigenvalues --    0.33086   0.33603   0.33603   0.35691   0.38876

  Beta  occ. eigenvalues --  -18.91992 -10.01898  -9.98709  -9.97810  -0.82192
  Beta  occ. eigenvalues --   -0.54716  -0.41197  -0.25965  -0.18236  -0.18236
  Beta  occ. eigenvalues --   -0.06523  -0.06523
  Beta virt. eigenvalues --    0.01754   0.15180   0.15180   0.15964   0.17169
  Beta virt. eigenvalues --    0.20064   0.20064   0.20106   0.23971   0.23971
  Beta virt. eigenvalues --    0.24685   0.28509   0.28509   0.33294   0.36600

 Mulliken charges and spin densities:
               1          2
     1  C   -0.273727   2.405995
     2  C    0.708962  -0.208412
     3  C   -0.623379   0.506455
     4  O   -0.811857   0.295962
 Sum of Mulliken charges =  -1.00000   3.00000

 Dipole moment (field-independent basis, Debye):
    X=             -0.0000    Y=              0.0000    Z=              0.6966  Tot=              0.6966
 Quadrupole moment (field-independent basis, Debye-Ang):
   XX=            -26.7576   YY=            -26.7576   ZZ=            -42.4028
   XY=             -0.0000   XZ=             -0.0000   YZ=             -0.0000

  Exact polarizability:  43.851  -0.000  43.851  -0.000   0.000 103.290
 Approx polarizability:  47.031   0.000  47.031   0.000   0.000 163.880

 ******    2 imaginary frequencies (negative Signs) ******

                      1                      2                      3
                     PI                     PI                     PI
 Frequencies --    -53.3982               -53.3981               283.8345
 Red. masses --     12.0025                12.0025                12.8025
 Frc consts  --      0.0202                 0.0202                 0.6077
 IR Inten    --     15.3760                15.3760                 0.0141

                      4                      5                      6
                     PI                     SG                     SG
 Frequencies --    283.8346               939.8757              1520.7412
 Red. masses --     12.8025                13.5002                12.4774
 Frc consts  --      0.6077                 7.0264                17.0014
 IR Inten    --      0.0141                38.0953               296.6790

                      7
                     SG
 Frequencies --   2119.7478
 Red. masses --     12.2893
 Frc consts  --     32.5346
 IR Inten    --    661.3803

 - Thermochemistry -
 -------------------
 Temperature   298.150 Kelvin.  Pressure   1.00000 Atm.
 Atom     1 has atomic number  6 and mass  12.00000

 Molecular mass:    51.99491 amu.
 Principal axes and moments of inertia in atomic units:
                           1         2         3
     Eigenvalues --     0.00000 391.52958 391.52958
           X            0.00000   0.57866   0.81557
           Y            0.00000   0.81557  -0.57866
           Z            1.00000  -0.00000  -0.00000
 This molecule is a prolate symmetric top.
 Rotational symmetry number  1.
 Rotational temperature (Kelvin)      0.22122
 Rotational constant (GHZ):           4.609463
    2 imaginary frequencies ignored.
 Zero-point vibrational energy      30792.1 (Joules/Mol)
                                    7.35948 (Kcal/Mol)
 Warning -- explicit consideration of   2 degrees of freedom as
           vibrations may cause significant error
 Vibrational temperatures:    408.37   408.37  1352.27  2188.00  3049.84
          (Kelvin)

 Zero-point correction=                           0.011728 (Hartree/Particle)
 Thermal correction to Energy=                    0.015021
 Thermal correction to Enthalpy=                  0.015966
 Thermal correction to Gibbs Free Energy=        -0.012534
 Sum of electronic and zero-point Energies=           -189.381496
 Sum of electronic and thermal Energies=              -189.378203
 Sum of electronic and thermal Enthalpies=            -189.377259
 Sum of electronic and thermal Free Energies=         -189.405759

                     E (Thermal)             CV                S
                      KCal/Mol        Cal/Mol-Kelvin    Cal/Mol-Kelvin
 Total                    9.426              8.900             59.982
 Electronic               0.000              0.000              2.755
 Translational            0.889              2.981             37.769
 Rotational               0.592              1.987             16.307
 Vibrational              7.945              3.932              3.152
 Vibration     1          0.682              1.704              1.510
 Vibration     2          0.682              1.704              1.510

 Optimization completed.
    -- Stationary point found.
 Normal termination of Gaussian 09 at Thu Mar  7 08:48:54 2019.
