 Gaussian 09, Revision E.01,
 Gaussian 09:  EM64L-G09RevE.01 30-Nov-2015

 ------------------------------------------------------
 #p b3lyp/6-311++G(3df,2p) freq IOp(2/17=3) IOp(2/18=3)
 ------------------------------------------------------

 ---------
 b3lyp opt
 ---------
 Symbolic Z-matrix:
 Charge = -1 Multiplicity = 2

                         Standard orientation:
 ---------------------------------------------------------------------
 Center     Atomic      Atomic             Coordinates (Angstroms)
 Number     Number       Type             X           Y           Z
 ---------------------------------------------------------------------
      1          6           0       -0.000000    0.749392   -0.603553
      2          6           0       -0.000000   -0.000000   -1.857346
      3          6           0        0.000000    0.000000    0.610113
      4          6           0       -0.000000   -0.749392   -0.603553
      5          8           0        0.000000    0.000000    1.840842
 ---------------------------------------------------------------------

 SCF Done:  E(UB3LYP) =  -227.522264853     A.U. after   14 cycles

 The electronic state is 2-B1.
 Alpha  occ. eigenvalues --  -18.93732 -10.09280 -10.05987 -10.05959 -10.00365
 Alpha  occ. eigenvalues --   -0.86274  -0.78274  -0.50685  -0.35442  -0.29126
 Alpha  occ. eigenvalues --   -0.27379  -0.22910  -0.16619  -0.14469  -0.09852
 Alpha  occ. eigenvalues --   -0.07585   0.02257
 Alpha virt. eigenvalues --    0.11567   0.15334   0.15721   0.17511   0.19134
 Alpha virt. eigenvalues --    0.20090   0.20134   0.22122   0.22427   0.22495
 Alpha virt. eigenvalues --    0.24481   0.25531   0.26341   0.26598   0.27859

  Beta  occ. eigenvalues --  -18.93168 -10.08847 -10.06080 -10.06052  -9.99452
  Beta  occ. eigenvalues --   -0.85243  -0.77585  -0.48808  -0.35262  -0.28273
  Beta  occ. eigenvalues --   -0.24989  -0.22510  -0.14056  -0.13523  -0.09344
  Beta  occ. eigenvalues --   -0.06296
  Beta virt. eigenvalues --    0.11389   0.12450   0.15437   0.15758   0.17589
  Beta virt. eigenvalues --    0.19432   0.20069   0.20261   0.22271   0.22603
  Beta virt. eigenvalues --    0.23145   0.24396   0.26317   0.26337   0.26630

 Mulliken charges and spin densities:
               1          2
     1  C    0.130537  -0.134872
     2  C   -0.854254   0.762969
     3  C    0.397346   0.325744
     4  C    0.130537  -0.134872
     5  O   -0.804165   0.181033
 Sum of Mulliken charges =  -1.00000   1.00000

 Dipole moment (field-independent basis, Debye):
    X=              0.0000    Y=              0.0000    Z=              2.1332  Tot=              2.1332
 Quadrupole moment (field-independent basis, Debye-Ang):
   XX=            -30.9619   YY=            -34.1191   ZZ=            -55.2410
   XY=              0.0000   XZ=             -0.0000   YZ=             -0.0000

  Exact polarizability:  40.924  -0.000  51.774   0.000   0.000  87.685
 Approx polarizability:  57.759   0.000  96.764   0.000   0.000 139.770

 ******    1 imaginary frequencies (negative Signs) ******

                      1                      2                      3
                     B2                     B1                     B1
 Frequencies --  -1037.0577               280.5897               458.7892
 Red. masses --     12.0239                12.7887                12.0148
 Frc consts  --      7.6191                 0.5932                 1.4900
 IR Inten    --      1.4737                16.6970                 3.2570

                      4                      5                      6
                     B2                     B2                     A1
 Frequencies --    463.2685               699.6629               797.7579
 Red. masses --     12.6723                12.2646                13.2047
 Frc consts  --      1.6024                 3.5374                 4.9513
 IR Inten    --      0.3021                75.3357                15.7047

                      7                      8                      9
                     A1                     A1                     A1
 Frequencies --   1048.1884              1222.3622              1781.9348
 Red. masses --     12.4715                12.0064                12.7357
 Frc consts  --      8.0732                10.5697                23.8263
 IR Inten    --      8.9788                 3.0450               705.7417

 - Thermochemistry -
 -------------------
 Temperature   298.150 Kelvin.  Pressure   1.00000 Atm.
 Atom     1 has atomic number  6 and mass  12.00000

 Molecular mass:    63.99491 amu.
 Principal axes and moments of inertia in atomic units:
                           1         2         3
     Eigenvalues --    48.13126 388.56117 436.69243
           X            0.00000   0.00000   1.00000
           Y            0.00000   1.00000  -0.00000
           Z            1.00000  -0.00000  -0.00000
 This molecule is an asymmetric top.
 Rotational symmetry number  2.
 Rotational temperatures (Kelvin)      1.79953     0.22291     0.19834
 Rotational constants (GHZ):          37.49624     4.64468     4.13275
    1 imaginary frequencies ignored.
 Zero-point vibrational energy      40389.2 (Joules/Mol)
                                    9.65326 (Kcal/Mol)
 Warning -- explicit consideration of   3 degrees of freedom as
           vibrations may cause significant error
 Vibrational temperatures:    403.71   660.09   666.54  1006.66  1147.79
          (Kelvin)           1508.11  1758.70  2563.80

 Zero-point correction=                           0.015383 (Hartree/Particle)
 Thermal correction to Energy=                    0.019409
 Thermal correction to Enthalpy=                  0.020354
 Thermal correction to Gibbs Free Energy=        -0.010860
 Sum of electronic and zero-point Energies=           -227.506881
 Sum of electronic and thermal Energies=              -227.502855
 Sum of electronic and thermal Enthalpies=            -227.501911
 Sum of electronic and thermal Free Energies=         -227.533125

                     E (Thermal)             CV                S
                      KCal/Mol        Cal/Mol-Kelvin    Cal/Mol-Kelvin
 Total                   12.180             12.374             65.694
 Electronic               0.000              0.000              1.377
 Translational            0.889              2.981             38.388
 Rotational               0.889              2.981             22.239
 Vibrational             10.402              6.412              3.690
 Vibration     1          0.680              1.710              1.530
 Vibration     2          0.817              1.341              0.770
 Vibration     3          0.821              1.332              0.757

 Normal termination of Gaussian 09 at Thu Mar  7 09:25:04 2019.
