 Gaussian 09, Revision E.01,
 Gaussian 09:  EM64L-G09RevE.01 30-Nov-2015

 ------------------------------------------------------
 #p b3lyp/6-311++G(3df,2p) freq IOp(2/17=3) IOp(2/18=3)
 ------------------------------------------------------

 ---------
 b3lyp opt
 ---------
 Symbolic Z-matrix:
 Charge = -1 Multiplicity = 2

                         Standard orientation:
 ---------------------------------------------------------------------
 Center     Atomic      Atomic             Coordinates (Angstroms)
 Number     Number       Type             X           Y           Z
 ---------------------------------------------------------------------
      1          6           0        0.031666    0.384623    0.000191
      2          6           0       -1.251906   -0.071662   -0.000276
      3          1           0       -1.721644   -1.047416    0.000895
      4          1           0        0.122175    1.499285    0.000149
      5          8           0        1.115114   -0.291205   -0.000066
 ---------------------------------------------------------------------

 SCF Done:  E(UB3LYP) =  -152.608626154     A.U. after   20 cycles

 The electronic state is 2-A.
 Alpha  occ. eigenvalues --  -18.85529 -10.00963  -9.95701  -0.76422  -0.50235
 Alpha  occ. eigenvalues --   -0.33844  -0.23193  -0.20214  -0.14330  -0.04476
 Alpha  occ. eigenvalues --   -0.01865   0.00575
 Alpha virt. eigenvalues --    0.13449   0.14050   0.19607   0.20815   0.21725
 Alpha virt. eigenvalues --    0.21866   0.23374   0.26062   0.27083   0.28260
 Alpha virt. eigenvalues --    0.28952   0.33635   0.34540   0.40258   0.41290

  Beta  occ. eigenvalues --  -18.85362 -10.00997  -9.94326  -0.75955  -0.47999
  Beta  occ. eigenvalues --   -0.32614  -0.22151  -0.19235  -0.14314  -0.02172
  Beta  occ. eigenvalues --    0.01779
  Beta virt. eigenvalues --    0.10946   0.13667   0.14071   0.20124   0.20719
  Beta virt. eigenvalues --    0.21996   0.22899   0.23564   0.26150   0.27532
  Beta virt. eigenvalues --    0.28852   0.29259   0.34056   0.34752   0.40361

 Mulliken charges and spin densities:
               1          2
     1  C    0.225154  -0.072897
     2  C   -0.466222   0.998757
     3  H    0.091831   0.023176
     4  H   -0.047920   0.009510
     5  O   -0.802843   0.041454
 Sum of Mulliken charges =  -1.00000   1.00000

 Dipole moment (field-independent basis, Debye):
    X=             -0.3954    Y=              0.5237    Z=              0.0051  Tot=              0.6562
 Quadrupole moment (field-independent basis, Debye-Ang):
   XX=            -31.3744   YY=            -22.3637   ZZ=            -24.0222
   XY=              2.6004   XZ=             -0.0097   YZ=              0.0019

  Exact polarizability:  64.330   1.798  47.457   0.099  -0.031  48.264
 Approx polarizability:  95.441   1.740  59.531   0.083  -0.014  52.464

 ******    1 imaginary frequencies (negative Signs) ******

                      1                      2                      3
                      A                      A                      A
 Frequencies --   -678.5095               432.7289               914.8106
 Red. masses --      1.4209                 2.0843                 1.9371
 Frc consts  --      0.3854                 0.2300                 0.9551
 IR Inten    --    558.6901                35.6382                 1.6000

                      4                      5                      6
                      A                      A                      A
 Frequencies --    963.1206              1239.5581              1319.7083
 Red. masses --      1.5016                 3.6766                 1.6005
 Frc consts  --      0.8207                 3.3283                 1.6423
 IR Inten    --     21.4541                33.0956               176.7030

                      7                      8                      9
                      A                      A                      A
 Frequencies --   1513.1462              2724.9756              3158.6068
 Red. masses --      3.9834                 1.0702                 1.0946
 Frc consts  --      5.3737                 4.6821                 6.4343
 IR Inten    --    542.2221               369.3765                29.1041

 - Thermochemistry -
 -------------------
 Temperature   298.150 Kelvin.  Pressure   1.00000 Atm.
 Atom     1 has atomic number  6 and mass  12.00000

 Molecular mass:    42.01056 amu.
 Principal axes and moments of inertia in atomic units:
                           1         2         3
     Eigenvalues --    23.03795 149.12656 172.16449
           X            0.99847   0.05538  -0.00004
           Y           -0.05538   0.99847  -0.00012
           Z            0.00004   0.00012   1.00000
 This molecule is an asymmetric top.
 Rotational symmetry number  1.
 Rotational temperatures (Kelvin)      3.75961     0.58081     0.50309
 Rotational constants (GHZ):          78.33775    12.10208    10.48266
    1 imaginary frequencies ignored.
 Zero-point vibrational energy      73370.9 (Joules/Mol)
                                   17.53606 (Kcal/Mol)
 Warning -- explicit consideration of   1 degrees of freedom as
           vibrations may cause significant error
 Vibrational temperatures:    622.60  1316.21  1385.71  1783.45  1898.76
          (Kelvin)           2177.08  3920.63  4544.52

 Zero-point correction=                           0.027945 (Hartree/Particle)
 Thermal correction to Energy=                    0.031180
 Thermal correction to Enthalpy=                  0.032124
 Thermal correction to Gibbs Free Energy=         0.003293
 Sum of electronic and zero-point Energies=           -152.580681
 Sum of electronic and thermal Energies=              -152.577446
 Sum of electronic and thermal Enthalpies=            -152.576502
 Sum of electronic and thermal Free Energies=         -152.605333

                     E (Thermal)             CV                S
                      KCal/Mol        Cal/Mol-Kelvin    Cal/Mol-Kelvin
 Total                   19.566              8.651             60.680
 Electronic               0.000              0.000              1.377
 Translational            0.889              2.981             37.133
 Rotational               0.889              2.981             21.008
 Vibrational             17.788              2.690              1.161
 Vibration     1          0.794              1.399              0.850

 Normal termination of Gaussian 09 at Thu Mar  7 09:55:16 2019.
