 Gaussian 09, Revision E.01,
 Gaussian 09:  EM64L-G09RevE.01 30-Nov-2015

 ------------------------------------------------------
 #p b3lyp/6-311++G(3df,2p) freq IOp(2/17=3) IOp(2/18=3)
 ------------------------------------------------------

 ---------
 b3lyp opt
 ---------
 Symbolic Z-matrix:
 Charge = -1 Multiplicity = 4

                         Standard orientation:
 ---------------------------------------------------------------------
 Center     Atomic      Atomic             Coordinates (Angstroms)
 Number     Number       Type             X           Y           Z
 ---------------------------------------------------------------------
      1          1           0        1.250551   -0.792867    0.000000
      2          1           0       -1.250551   -0.796070    0.000000
      3          8           0        0.000000    0.198617    0.000000
 ---------------------------------------------------------------------

 SCF Done:  E(UB3LYP) =  -76.2120477442     A.U. after   12 cycles

 The electronic state is 4-A".
 Alpha  occ. eigenvalues --  -18.96401  -0.73155  -0.18853  -0.17812  -0.16218
 Alpha  occ. eigenvalues --    0.00706   0.04310
 Alpha virt. eigenvalues --    0.18962   0.19258   0.30739   0.31395   0.37158
 Alpha virt. eigenvalues --    0.40597   0.58142   0.58289   0.76221   0.76285
 Alpha virt. eigenvalues --    0.81457   0.92929   1.02375   1.10012   1.10948

  Beta  occ. eigenvalues --  -18.92156  -0.61453  -0.10641  -0.09222
  Beta virt. eigenvalues --    0.07026   0.11892   0.15435   0.23240   0.23724
  Beta virt. eigenvalues --    0.31775   0.34549   0.38476   0.42433   0.62306
  Beta virt. eigenvalues --    0.62672   0.78809   0.79961   0.84949   0.97513

 Mulliken charges and spin densities:
               1          2
     1  H   -0.427533   0.968225
     2  H   -0.425558   0.967014
     3  O   -0.146909   1.064761
 Sum of Mulliken charges =  -1.00000   3.00000

 Dipole moment (field-independent basis, Debye):
    X=             -0.0115    Y=              2.9144    Z=              0.0000  Tot=              2.9145
 Quadrupole moment (field-independent basis, Debye-Ang):
   XX=            -24.0487   YY=            -17.6870   ZZ=            -12.4416
   XY=              0.0020   XZ=              0.0000   YZ=              0.0000

  Exact polarizability:  72.891   0.029  33.283  -0.000   0.000  15.107
 Approx polarizability:  50.439   0.007  36.593  -0.000  -0.000  17.041

 ******    1 imaginary frequencies (negative Signs) ******

                      1                      2                      3
                     A'                     A'                     A'
 Frequencies --   -564.8715               439.9448               512.2728
 Red. masses --      1.0804                 1.1030                 1.0269
 Frc consts  --      0.2031                 0.1258                 0.1588
 IR Inten    --   1735.4127                85.1475               125.0740

 - Thermochemistry -
 -------------------
 Temperature   298.150 Kelvin.  Pressure   1.00000 Atm.
 Atom     1 has atomic number  1 and mass   1.00783

 Molecular mass:    18.01056 amu.
 Principal axes and moments of inertia in atomic units:
                           1         2         3
     Eigenvalues --     6.30434  11.25686  17.56120
           X            1.00000  -0.00291   0.00000
           Y            0.00291   1.00000   0.00000
           Z            0.00000   0.00000   1.00000
 This molecule is an asymmetric top.
 Rotational symmetry number  1.
 Rotational temperatures (Kelvin)     13.73876     7.69432     4.93211
 Rotational constants (GHZ):         286.26964   160.32371   102.76868
    1 imaginary frequencies ignored.
 Zero-point vibrational energy       5695.5 (Joules/Mol)
                                    1.36126 (Kcal/Mol)
 Warning -- explicit consideration of   2 degrees of freedom as
           vibrations may cause significant error
 Vibrational temperatures:    632.98   737.05
          (Kelvin)

 Zero-point correction=                           0.002169 (Hartree/Particle)
 Thermal correction to Energy=                    0.005490
 Thermal correction to Enthalpy=                  0.006434
 Thermal correction to Gibbs Free Energy=        -0.019082
 Sum of electronic and zero-point Energies=            -76.209878
 Sum of electronic and thermal Energies=               -76.206558
 Sum of electronic and thermal Enthalpies=             -76.205614
 Sum of electronic and thermal Free Energies=          -76.231130

                     E (Thermal)             CV                S
                      KCal/Mol        Cal/Mol-Kelvin    Cal/Mol-Kelvin
 Total                    3.445              8.567             53.703
 Electronic               0.000              0.000              2.755
 Translational            0.889              2.981             34.608
 Rotational               0.889              2.981             14.885
 Vibrational              1.667              2.606              1.455
 Vibration     1          0.800              1.383              0.827
 Vibration     2          0.867              1.223              0.628

 Optimization completed.
    -- Stationary point found.
 Normal termination of Gaussian 09 at Thu Mar  7 13:31:08 2019.
