 Gaussian 09, Revision E.01,
 Gaussian 09:  EM64L-G09RevE.01 30-Nov-2015

 ------------------------------------------------------
 #p b3lyp/6-311++G(3df,2p) freq IOp(2/17=3) IOp(2/18=3)
 ------------------------------------------------------

 ---------
 b3lyp opt
 ---------
 Symbolic Z-matrix:
 Charge = -1 Multiplicity = 3

                         Standard orientation:
 ---------------------------------------------------------------------
 Center     Atomic      Atomic             Coordinates (Angstroms)
 Number     Number       Type             X           Y           Z
 ---------------------------------------------------------------------
      1          6           0       -0.797186   -0.215013    0.000086
      2          6           0        0.582844   -0.559277   -0.000430
      3          1           0       -1.382983   -0.220848    0.917593
      4          1           0       -1.383546   -0.221361   -0.917018
      5          1           0        1.481580   -1.137248    0.001479
      6          8           0        0.321375    0.778149    0.000001
 ---------------------------------------------------------------------

 SCF Done:  E(UB3LYP) =  -153.137468409     A.U. after   20 cycles

 The electronic state is 3-A.
 Alpha  occ. eigenvalues --  -19.03614 -10.10319 -10.09159  -0.96744  -0.55905
 Alpha  occ. eigenvalues --   -0.49272  -0.38318  -0.36528  -0.28275  -0.21733
 Alpha  occ. eigenvalues --   -0.21191  -0.04463   0.06424
 Alpha virt. eigenvalues --    0.08980   0.10563   0.13007   0.17027   0.17462
 Alpha virt. eigenvalues --    0.18665   0.21039   0.22145   0.22830   0.24285
 Alpha virt. eigenvalues --    0.24535   0.26519   0.29175   0.30962   0.31732

  Beta  occ. eigenvalues --  -19.03054 -10.10335 -10.07798  -0.95581  -0.55007
  Beta  occ. eigenvalues --   -0.46691  -0.37513  -0.34633  -0.27660  -0.20993
  Beta  occ. eigenvalues --   -0.18458
  Beta virt. eigenvalues --    0.09161   0.10337   0.11230   0.12521   0.13204
  Beta virt. eigenvalues --    0.17527   0.18600   0.20819   0.21818   0.22298
  Beta virt. eigenvalues --    0.23392   0.24735   0.25524   0.26914   0.30301

 Mulliken charges and spin densities:
               1          2
     1  C    3.677233  -3.736685
     2  C   -0.634969   1.532389
     3  H   -0.831827   0.983081
     4  H   -0.835494   0.986878
     5  H   -1.788203   2.011321
     6  O   -0.586740   0.223016
 Sum of Mulliken charges =  -1.00000   2.00000

 Dipole moment (field-independent basis, Debye):
    X=              1.3209    Y=              4.5957    Z=             -0.0050  Tot=              4.7818
 Quadrupole moment (field-independent basis, Debye-Ang):
   XX=            -53.9696   YY=            -44.5533   ZZ=            -43.4572
   XY=              3.7954   XZ=             -0.0171   YZ=              0.0108

  Exact polarizability:1805.064-530.627 436.220   0.704   0.2091133.503
 Approx polarizability:1969.286-597.068 388.211   1.642  -0.259 789.740

 ******    1 imaginary frequencies (negative Signs) ******

                      1                      2                      3
                      A                      A                      A
 Frequencies --   -765.4219               675.8177               925.9126
 Red. masses --      1.2662                 5.7602                 1.7869
 Frc consts  --      0.4371                 1.5501                 0.9026
 IR Inten    --    359.4120               612.2641               451.5010

                      4                      5                      6
                      A                      A                      A
 Frequencies --    956.0621              1070.6513              1081.6102
 Red. masses --      1.1062                 1.2509                 1.6031
 Frc consts  --      0.5957                 0.8449                 1.1049
 IR Inten    --      8.7862               233.5559               118.7562

                      7                      8                      9
                      A                      A                      A
 Frequencies --   1190.7534              1361.8026              1514.0457
 Red. masses --      1.8440                 2.9377                 1.3007
 Frc consts  --      1.5404                 3.2099                 1.7567
 IR Inten    --    456.7154                72.2632               235.6953

                     10                     11                     12
                      A                      A                      A
 Frequencies --   3012.3586              3115.0990              3319.3302
 Red. masses --      1.0505                 1.1185                 1.1085
 Frc consts  --      5.6166                 6.3947                 7.1958
 IR Inten    --     48.9194                 3.8757               508.3271

 - Thermochemistry -
 -------------------
 Temperature   298.150 Kelvin.  Pressure   1.00000 Atm.
 Atom     1 has atomic number  6 and mass  12.00000

 Molecular mass:    43.01839 amu.
 Principal axes and moments of inertia in atomic units:
                           1         2         3
     Eigenvalues --    59.97028  76.14685 124.00356
           X            0.97300  -0.23081   0.00011
           Y            0.23081   0.97300  -0.00011
           Z           -0.00008   0.00013   1.00000
 This molecule is an asymmetric top.
 Rotational symmetry number  1.
 Rotational temperatures (Kelvin)      1.44428     1.13746     0.69848
 Rotational constants (GHZ):          30.09393    23.70080    14.55395
    1 imaginary frequencies ignored.
 Zero-point vibrational energy     109000.4 (Joules/Mol)
                                   26.05172 (Kcal/Mol)
 Vibrational temperatures:    972.35  1332.18  1375.56  1540.43  1556.19
          (Kelvin)           1713.23  1959.33  2178.37  4334.11  4481.93
                             4775.77

 Zero-point correction=                           0.041516 (Hartree/Particle)
 Thermal correction to Energy=                    0.044649
 Thermal correction to Enthalpy=                  0.045594
 Thermal correction to Gibbs Free Energy=         0.016545
 Sum of electronic and zero-point Energies=           -153.095952
 Sum of electronic and thermal Energies=              -153.092819
 Sum of electronic and thermal Enthalpies=            -153.091875
 Sum of electronic and thermal Free Energies=         -153.120923

                     E (Thermal)             CV                S
                      KCal/Mol        Cal/Mol-Kelvin    Cal/Mol-Kelvin
 Total                   28.018              8.737             61.138
 Electronic               0.000              0.000              2.183
 Translational            0.889              2.981             37.204
 Rotational               0.889              2.981             20.965
 Vibrational             26.241              2.775              0.786

 Optimization completed.
    -- Stationary point found.
 Normal termination of Gaussian 09 at Thu Mar  7 08:29:52 2019.
