 Gaussian 09, Revision E.01,
 Gaussian 09:  EM64L-G09RevE.01 30-Nov-2015

 ------------------------------------------------------
 #p b3lyp/6-311++G(3df,2p) freq IOp(2/17=3) IOp(2/18=3)
 ------------------------------------------------------

 ---------
 b3lyp opt
 ---------
 Symbolic Z-matrix:
 Charge = -1 Multiplicity = 3

                         Standard orientation:
 ---------------------------------------------------------------------
 Center     Atomic      Atomic             Coordinates (Angstroms)
 Number     Number       Type             X           Y           Z
 ---------------------------------------------------------------------
      1          6           0        0.354312   -0.006482   -0.000000
      2          6           0        0.000000    1.264031    0.000000
      3          1           0        0.748808    2.048138   -0.000000
      4          1           0       -1.047019    1.562676    0.000000
      5          1           0        0.345813   -1.939038   -0.000000
      6          8           0       -0.271684   -1.152133   -0.000000
 ---------------------------------------------------------------------

 SCF Done:  E(UB3LYP) =  -153.173651982     A.U. after   19 cycles

 The electronic state is 3-A'.
 Alpha  occ. eigenvalues --  -19.03357 -10.10307 -10.01753  -0.94274  -0.61821
 Alpha  occ. eigenvalues --   -0.46631  -0.36066  -0.32615  -0.28167  -0.27458
 Alpha  occ. eigenvalues --   -0.10227  -0.08823   0.06448
 Alpha virt. eigenvalues --    0.09626   0.11520   0.15117   0.16665   0.18382
 Alpha virt. eigenvalues --    0.18402   0.19491   0.22715   0.23039   0.24683
 Alpha virt. eigenvalues --    0.25029   0.27408   0.29989   0.33015   0.33902

  Beta  occ. eigenvalues --  -19.02866 -10.08809 -10.01746  -0.92946  -0.60225
  Beta  occ. eigenvalues --   -0.45539  -0.33496  -0.30186  -0.27084  -0.26546
  Beta  occ. eigenvalues --   -0.09887
  Beta virt. eigenvalues --    0.05914   0.10268   0.12010   0.12804   0.16038
  Beta virt. eigenvalues --    0.17744   0.18551   0.19276   0.21027   0.23412
  Beta virt. eigenvalues --    0.23911   0.25222   0.25494   0.27965   0.31561

 Mulliken charges and spin densities:
               1          2
     1  C   -0.209260   1.592465
     2  C    1.858594  -2.510276
     3  H   -0.734452   0.886735
     4  H    0.182823  -0.000894
     5  H   -1.434004   1.810340
     6  O   -0.663702   0.221629
 Sum of Mulliken charges =  -1.00000   2.00000

 Dipole moment (field-independent basis, Debye):
    X=             -2.9136    Y=              5.6969    Z=              0.0000  Tot=              6.3987
 Quadrupole moment (field-independent basis, Debye-Ang):
   XX=            -35.5942   YY=            -63.1241   ZZ=            -32.7155
   XY=              0.8478   XZ=              0.0000   YZ=             -0.0000

  Exact polarizability: 408.724 159.1601380.108   0.000   0.000 103.998
 Approx polarizability: 271.249 154.1051488.886  -0.000  -0.000 101.407

 ******    1 imaginary frequencies (negative Signs) ******

                      1                      2                      3
                     A"                     A'                     A"
 Frequencies --   -211.9064               413.4449               560.5263
 Red. masses --      1.0921                 2.3714                 1.6022
 Frc consts  --      0.0289                 0.2388                 0.2966
 IR Inten    --    722.6696                40.1150               460.5312

                      4                      5                      6
                     A"                     A'                     A'
 Frequencies --    755.9119               952.2783              1087.7884
 Red. masses --      1.3464                 1.6805                 1.5798
 Frc consts  --      0.4533                 0.8979                 1.1014
 IR Inten    --      0.5525               883.6046               561.0231

                      7                      8                      9
                     A'                     A'                     A'
 Frequencies --   1187.6635              1409.6773              1682.6735
 Red. masses --      2.3251                 1.1649                 7.6125
 Frc consts  --      1.9323                 1.3639                12.6991
 IR Inten    --   1039.7577                32.9154              1388.2663

                     10                     11                     12
                     A'                     A'                     A'
 Frequencies --   2960.8540              3051.4605              3139.2398
 Red. masses --      1.0675                 1.0568                 1.1101
 Frc consts  --      5.5138                 5.7975                 6.4454
 IR Inten    --   7547.5491               122.3067               322.2834

 - Thermochemistry -
 -------------------
 Temperature   298.150 Kelvin.  Pressure   1.00000 Atm.
 Atom     1 has atomic number  6 and mass  12.00000

 Molecular mass:    43.01839 amu.
 Principal axes and moments of inertia in atomic units:
                           1         2         3
     Eigenvalues --    14.64211 182.82933 197.47144
           X            0.08950   0.99599   0.00000
           Y            0.99599  -0.08950   0.00000
           Z            0.00000   0.00000   1.00000
 This molecule is an asymmetric top.
 Rotational symmetry number  1.
 Rotational temperatures (Kelvin)      5.91539     0.47374     0.43861
 Rotational constants (GHZ):         123.25687     9.87118     9.13925
    1 imaginary frequencies ignored.
 Zero-point vibrational energy     102887.9 (Joules/Mol)
                                   24.59080 (Kcal/Mol)
 Warning -- explicit consideration of   2 degrees of freedom as
           vibrations may cause significant error
 Vibrational temperatures:    594.85   806.47  1087.59  1370.11  1565.08
          (Kelvin)           1708.78  2028.21  2420.99  4260.00  4390.37
                             4516.66

 Zero-point correction=                           0.039188 (Hartree/Particle)
 Thermal correction to Energy=                    0.042690
 Thermal correction to Enthalpy=                  0.043634
 Thermal correction to Gibbs Free Energy=         0.014075
 Sum of electronic and zero-point Energies=           -153.134464
 Sum of electronic and thermal Energies=              -153.130962
 Sum of electronic and thermal Enthalpies=            -153.130018
 Sum of electronic and thermal Free Energies=         -153.159577

                     E (Thermal)             CV                S
                      KCal/Mol        Cal/Mol-Kelvin    Cal/Mol-Kelvin
 Total                   26.788             10.324             62.212
 Electronic               0.000              0.000              2.183
 Translational            0.889              2.981             37.204
 Rotational               0.889              2.981             20.897
 Vibrational             25.011              4.362              1.929
 Vibration     1          0.777              1.441              0.915
 Vibration     2          0.916              1.117              0.523

 Optimization completed.
    -- Stationary point found.
 Normal termination of Gaussian 09 at Thu Mar  7 08:32:27 2019.
