 Gaussian 09, Revision E.01,
 Gaussian 09:  EM64L-G09RevE.01 30-Nov-2015

 ------------------------------------------------------
 #p b3lyp/6-311++G(3df,2p) freq IOp(2/17=3) IOp(2/18=3)
 ------------------------------------------------------

 ---------
 b3lyp opt
 ---------
 Symbolic Z-matrix:
 Charge = -1 Multiplicity = 3

                         Standard orientation:
 ---------------------------------------------------------------------
 Center     Atomic      Atomic             Coordinates (Angstroms)
 Number     Number       Type             X           Y           Z
 ---------------------------------------------------------------------
      1          6           0       -0.418180    1.889689    0.000000
      2          6           0       -0.000000    0.738570    0.000000
      3          6           0        0.578139   -0.501565    0.000000
      4          1           0       -0.798157    2.881412    0.000000
      5          1           0       -1.056799   -1.517779   -0.000000
      6          1           0        1.649983   -0.634692    0.000000
      7          8           0       -0.094348   -1.686139   -0.000000
 ---------------------------------------------------------------------

 SCF Done:  E(UB3LYP) =  -191.281080760     A.U. after   27 cycles

 The electronic state is 3-A".
 Alpha  occ. eigenvalues --  -19.03499 -10.11188 -10.04622 -10.04414  -0.93836
 Alpha  occ. eigenvalues --   -0.64896  -0.56517  -0.45756  -0.38669  -0.35315
 Alpha  occ. eigenvalues --   -0.28973  -0.26363  -0.18407  -0.15918  -0.04963
 Alpha  occ. eigenvalues --    0.05791
 Alpha virt. eigenvalues --    0.08608   0.09557   0.13114   0.15288   0.15289
 Alpha virt. eigenvalues --    0.17685   0.18960   0.19330   0.19490   0.20953
 Alpha virt. eigenvalues --    0.21547   0.22305   0.23668   0.26249   0.26697

  Beta  occ. eigenvalues --  -19.02952 -10.10184 -10.04871 -10.03695  -0.92635
  Beta  occ. eigenvalues --   -0.63812  -0.54363  -0.44957  -0.37947  -0.34637
  Beta  occ. eigenvalues --   -0.25773  -0.25433  -0.15820  -0.15370
  Beta virt. eigenvalues --    0.05888   0.09132   0.10287   0.10967   0.13788
  Beta virt. eigenvalues --    0.15467   0.15721   0.18355   0.19922   0.19924
  Beta virt. eigenvalues --    0.20200   0.21536   0.22828   0.22893   0.24244

 Mulliken charges and spin densities:
               1          2
     1  C  -13.770258  14.465784
     2  C   10.700868 -11.044484
     3  C    6.017629  -5.651165
     4  H   -2.905741   3.200196
     5  H   -0.478666   0.767101
     6  H   -0.079140   0.215148
     7  O   -0.484692   0.047420
 Sum of Mulliken charges =  -1.00000   2.00000

 Dipole moment (field-independent basis, Debye):
    X=              3.5151    Y=             -4.2437    Z=              0.0000  Tot=              5.5104
 Quadrupole moment (field-independent basis, Debye-Ang):
   XX=            -47.8044   YY=            -73.9522   ZZ=            -41.8811
   XY=              1.6710   XZ=             -0.0000   YZ=              0.0000

  Exact polarizability:1008.833-192.6051947.483   5.061  -1.715 190.581
 Approx polarizability: 645.661 105.2532269.527   0.000   0.000 166.679

 ******    1 imaginary frequencies (negative Signs) ******

                      1                      2                      3
                     A"                     A"                     A"
 Frequencies --   -549.1024               385.7354               424.9127
 Red. masses --      7.4432                 1.5533                 1.5567
 Frc consts  --      1.3223                 0.1362                 0.1656
 IR Inten    --   1716.3815                45.1466               513.6627

                      4                      5                      6
                     A"                     A"                     A"
 Frequencies --    521.4655               578.2014               591.8557
 Red. masses --      4.1679                 1.5076                 1.8366
 Frc consts  --      0.6678                 0.2970                 0.3790
 IR Inten    --    193.0468               101.5877               479.7813

                      7                      8                      9
                     A"                     A"                     A'
 Frequencies --    693.6141               974.4624              1205.3242
 Red. masses --      1.1477                 4.4288                 1.4500
 Frc consts  --      0.3253                 2.4778                 1.2411
 IR Inten    --   2007.8029               550.0965               491.2951

                     10                     11                     12
                     A"                     A'                     A"
 Frequencies --   1285.8887              1395.5293              2089.8119
 Red. masses --      2.0852                 1.6398                 5.2647
 Frc consts  --      2.0314                 1.8816                13.5469
 IR Inten    --     51.0913              1756.9167              6155.7794

                     13                     14                     15
                     A'                     A'                     A'
 Frequencies --   3181.7583              3423.4962              3461.5748
 Red. masses --      1.0858                 1.1660                 1.0877
 Frc consts  --      6.4765                 8.0515                 7.6788
 IR Inten    --    631.2847              6212.3802              6079.5580

 - Thermochemistry -
 -------------------
 Temperature   298.150 Kelvin.  Pressure   1.00000 Atm.
 Atom     1 has atomic number  6 and mass  12.00000

 Molecular mass:    55.01839 amu.
 Principal axes and moments of inertia in atomic units:
                           1         2         3
     Eigenvalues --    33.12651 394.46777 427.59428
           X           -0.12119   0.99263   0.00000
           Y            0.99263   0.12119   0.00000
           Z           -0.00000  -0.00000   1.00000
 This molecule is an asymmetric top.
 Rotational symmetry number  1.
 Rotational temperatures (Kelvin)      2.61464     0.21957     0.20256
 Rotational constants (GHZ):          54.48028     4.57513     4.22069
    1 imaginary frequencies ignored.
 Zero-point vibrational energy     120904.4 (Joules/Mol)
                                   28.89684 (Kcal/Mol)
 Warning -- explicit consideration of   5 degrees of freedom as
           vibrations may cause significant error
 Vibrational temperatures:    554.99   611.35   750.27   831.90   851.55
          (Kelvin)            997.95  1402.03  1734.19  1850.10  2007.85
                             3006.77  4577.83  4925.64  4980.43

 Zero-point correction=                           0.046050 (Hartree/Particle)
 Thermal correction to Energy=                    0.050230
 Thermal correction to Enthalpy=                  0.051174
 Thermal correction to Gibbs Free Energy=         0.019189
 Sum of electronic and zero-point Energies=           -191.235031
 Sum of electronic and thermal Energies=              -191.230851
 Sum of electronic and thermal Enthalpies=            -191.229907
 Sum of electronic and thermal Free Energies=         -191.261891

                     E (Thermal)             CV                S
                      KCal/Mol        Cal/Mol-Kelvin    Cal/Mol-Kelvin
 Total                   31.520             13.928             67.317
 Electronic               0.000              0.000              2.183
 Translational            0.889              2.981             37.937
 Rotational               0.889              2.981             23.240
 Vibrational             29.742              7.967              3.957
 Vibration     1          0.754              1.501              1.017
 Vibration     2          0.787              1.416              0.875
 Vibration     3          0.876              1.202              0.607
 Vibration     4          0.935              1.078              0.489
 Vibration     5          0.949              1.049              0.464

 Optimization completed.
    -- Stationary point found.
 Normal termination of Gaussian 09 at Thu Mar  7 08:54:40 2019.
