 Gaussian 09, Revision E.01,
 Gaussian 09:  EM64L-G09RevE.01 30-Nov-2015

 ------------------------------------------------------
 #p b3lyp/6-311++G(3df,2p) freq IOp(2/17=3) IOp(2/18=3)
 ------------------------------------------------------

 ---------
 b3lyp opt
 ---------
 Symbolic Z-matrix:
 Charge = -1 Multiplicity = 1

                         Standard orientation:
 ---------------------------------------------------------------------
 Center     Atomic      Atomic             Coordinates (Angstroms)
 Number     Number       Type             X           Y           Z
 ---------------------------------------------------------------------
      1          6           0       -0.729073    1.767162    0.000000
      2          6           0       -0.000000    0.755474    0.000000
      3          6           0        0.717850   -0.387638   -0.000000
      4          1           0       -1.327085    2.641123    0.000000
      5          1           0       -0.878469   -1.484540   -0.000000
      6          1           0        1.789842   -0.479720   -0.000000
      7          8           0        0.060381   -1.685857   -0.000000
 ---------------------------------------------------------------------

 SCF Done:  E(RB3LYP) =  -191.308073418     A.U. after   15 cycles

 The electronic state is 1-A'.
 Alpha  occ. eigenvalues --  -18.94034  -9.98052  -9.96894  -9.94424  -0.82432
 Alpha  occ. eigenvalues --   -0.55053  -0.45845  -0.35224  -0.29840  -0.24558
 Alpha  occ. eigenvalues --   -0.18836  -0.16966  -0.08646  -0.07220   0.06127
 Alpha virt. eigenvalues --    0.11478   0.13409   0.13844   0.17857   0.18874
 Alpha virt. eigenvalues --    0.19677   0.21683   0.23091   0.23327   0.24446
 Alpha virt. eigenvalues --    0.24755   0.26513   0.27454   0.28040   0.30191

 Mulliken charges:
               1
     1  C   -0.132836
     2  C   -0.286549
     3  C   -0.548467
     4  H    0.268931
     5  H    0.211446
     6  H    0.122961
     7  O   -0.635486
 Sum of Mulliken charges =  -1.00000

 Dipole moment (field-independent basis, Debye):
    X=             -0.5458    Y=             -1.5781    Z=             -0.0000  Tot=              1.6698
 Quadrupole moment (field-independent basis, Debye-Ang):
   XX=            -28.3281   YY=            -40.5318   ZZ=            -33.6433
   XY=              4.2746   XZ=              0.0000   YZ=             -0.0000

  Exact polarizability:  71.483 -35.654 100.590  -0.057   0.069  88.459
 Approx polarizability: 100.985 -55.938 143.669  -0.000   0.000  87.575

 ******    3 imaginary frequencies (negative Signs) ******

                      1                      2                      3
                     A"                     A"                     A"
 Frequencies --   -767.8620              -372.1877              -221.6111
 Red. masses --      1.3266                 1.1679                 1.4319
 Frc consts  --      0.4608                 0.0953                 0.0414
 IR Inten    --    206.8223               167.4631                 5.3251

                      4                      5                      6
                     A'                     A"                     A'
 Frequencies --    217.3144               471.2103               604.3525
 Red. masses --      4.1654                 3.6788                 4.8817
 Frc consts  --      0.1159                 0.4813                 1.0505
 IR Inten    --      4.7174                20.2199                12.5171

                      7                      8                      9
                     A'                     A'                     A'
 Frequencies --    684.0264               893.8044              1156.3589
 Red. masses --      1.2816                 6.3458                 2.0813
 Frc consts  --      0.3533                 2.9869                 1.6397
 IR Inten    --     42.1753               276.7425                12.5711

                     10                     11                     12
                     A'                     A'                     A'
 Frequencies --   1199.6556              1383.6122              1983.9389
 Red. masses --      1.3530                 1.5352                 7.5453
 Frc consts  --      1.1472                 1.7316                17.4978
 IR Inten    --      4.2302                69.0459               635.7879

                     13                     14                     15
                     A'                     A'                     A'
 Frequencies --   3220.1494              3469.3322              3844.8272
 Red. masses --      1.0871                 1.1265                 1.0657
 Frc consts  --      6.6413                 7.9889                 9.2822
 IR Inten    --     19.6509                52.6519                 4.2286

 - Thermochemistry -
 -------------------
 Temperature   298.150 Kelvin.  Pressure   1.00000 Atm.
 Atom     1 has atomic number  6 and mass  12.00000

 Molecular mass:    55.01839 amu.
 Principal axes and moments of inertia in atomic units:
                           1         2         3
     Eigenvalues --    43.50211 383.09614 426.59825
           X           -0.25569   0.96676   0.00000
           Y            0.96676   0.25569   0.00000
           Z            0.00000   0.00000   1.00000
 This molecule is an asymmetric top.
 Rotational symmetry number  1.
 Rotational temperatures (Kelvin)      1.99103     0.22609     0.20303
 Rotational constants (GHZ):          41.48629     4.71094     4.23054
    3 imaginary frequencies ignored.
 Zero-point vibrational energy     114414.3 (Joules/Mol)
                                   27.34568 (Kcal/Mol)
 Warning -- explicit consideration of   3 degrees of freedom as
           vibrations may cause significant error
 Vibrational temperatures:    312.67   677.97   869.53   984.16  1285.98
          (Kelvin)           1663.74  1726.03  1990.71  2854.44  4633.07
                             4991.59  5531.84

 Zero-point correction=                           0.043578 (Hartree/Particle)
 Thermal correction to Energy=                    0.047568
 Thermal correction to Enthalpy=                  0.048513
 Thermal correction to Gibbs Free Energy=         0.017556
 Sum of electronic and zero-point Energies=           -191.264495
 Sum of electronic and thermal Energies=              -191.260505
 Sum of electronic and thermal Enthalpies=            -191.259561
 Sum of electronic and thermal Free Energies=         -191.290518

                     E (Thermal)             CV                S
                      KCal/Mol        Cal/Mol-Kelvin    Cal/Mol-Kelvin
 Total                   29.850             12.046             65.154
 Electronic               0.000              0.000              0.000
 Translational            0.889              2.981             37.937
 Rotational               0.889              2.981             23.479
 Vibrational             28.072              6.085              3.738
 Vibration     1          0.646              1.815              1.981
 Vibration     2          0.828              1.314              0.734
 Vibration     3          0.963              1.023              0.442

 Optimization completed.
    -- Stationary point found.
 Normal termination of Gaussian 09 at Thu Mar  7 08:37:31 2019.
