 Gaussian 09, Revision E.01,
 Gaussian 09:  EM64L-G09RevE.01 30-Nov-2015

 ------------------------------------------------------
 #p b3lyp/6-311++G(3df,2p) freq IOp(2/17=3) IOp(2/18=3)
 ------------------------------------------------------

 ---------
 b3lyp opt
 ---------
 Symbolic Z-matrix:
 Charge = -1 Multiplicity = 4

                         Standard orientation:
 ---------------------------------------------------------------------
 Center     Atomic      Atomic             Coordinates (Angstroms)
 Number     Number       Type             X           Y           Z
 ---------------------------------------------------------------------
      1          6           0       -0.096146    0.472070   -0.000669
      2          6           0        1.266868   -0.088786    0.000267
      3          1           0        1.855374    0.204803    0.883254
      4          1           0       -2.027942    0.351763    0.003908
      5          1           0        1.856076    0.203881   -0.882549
      6          1           0        1.206845   -1.181594    0.000856
      7          8           0       -1.239335   -0.234819   -0.000382
 ---------------------------------------------------------------------

 SCF Done:  E(UB3LYP) =  -153.739284142     A.U. after   19 cycles

 The electronic state is 4-A.
 Alpha  occ. eigenvalues --  -19.02494 -10.08332 -10.04278  -0.92647  -0.62102
 Alpha  occ. eigenvalues --   -0.47348  -0.35296  -0.30805  -0.30216  -0.27342
 Alpha  occ. eigenvalues --   -0.24466  -0.10484  -0.01179   0.06103
 Alpha virt. eigenvalues --    0.08875   0.11293   0.12176   0.16379   0.18193
 Alpha virt. eigenvalues --    0.19051   0.19211   0.20698   0.21478   0.22867
 Alpha virt. eigenvalues --    0.24336   0.28088   0.28635   0.29048   0.33351

  Beta  occ. eigenvalues --  -19.01624 -10.05604 -10.04166  -0.90478  -0.59993
  Beta  occ. eigenvalues --   -0.45096  -0.31061  -0.28332  -0.27816  -0.26284
  Beta  occ. eigenvalues --   -0.21315
  Beta virt. eigenvalues --    0.05594   0.10051   0.11722   0.12634   0.12922
  Beta virt. eigenvalues --    0.13888   0.17497   0.18906   0.20269   0.20398
  Beta virt. eigenvalues --    0.21242   0.22034   0.23298   0.25837   0.29182

 Mulliken charges and spin densities:
               1          2
     1  C   -0.333976   2.276370
     2  C    2.622705  -3.060671
     3  H   -0.727790   0.900798
     4  H   -1.074621   1.376072
     5  H   -0.726572   0.899449
     6  H   -0.177337   0.363494
     7  O   -0.582409   0.244488
 Sum of Mulliken charges =  -1.00000   3.00000

 Dipole moment (field-independent basis, Debye):
    X=              1.9122    Y=             -0.9751    Z=             -0.0210  Tot=              2.1466
 Quadrupole moment (field-independent basis, Debye-Ang):
   XX=            -64.0458   YY=            -36.7132   ZZ=            -39.6462
   XY=              1.3108   XZ=              0.0414   YZ=             -0.0081

  Exact polarizability:1582.365-112.559 495.003  -1.920   0.229 695.729
 Approx polarizability:2375.020-209.273 328.003  -2.891   0.297 417.522

 ******    2 imaginary frequencies (negative Signs) ******

                      1                      2                      3
                      A                      A                      A
 Frequencies --   -266.9612              -180.2814               386.0478
 Red. masses --      1.1100                 1.5363                 2.8425
 Frc consts  --      0.0466                 0.0294                 0.2496
 IR Inten    --    914.7174                 8.5552                52.3412

                      4                      5                      6
                      A                      A                      A
 Frequencies --    895.9238               980.3823               998.5508
 Red. masses --      3.3476                 1.3753                 1.2647
 Frc consts  --      1.5832                 0.7788                 0.7430
 IR Inten    --    172.5407               234.8266                 9.5116

                      7                      8                      9
                      A                      A                      A
 Frequencies --   1173.1356              1356.5415              1379.9092
 Red. masses --      1.6252                 2.3540                 1.6198
 Frc consts  --      1.3178                 2.5522                 1.8172
 IR Inten    --    960.4349               155.4727               476.0842

                     10                     11                     12
                      A                      A                      A
 Frequencies --   1434.4788              1459.5782              2891.6919
 Red. masses --      1.0452                 1.0607                 1.0403
 Frc consts  --      1.2672                 1.3314                 5.1253
 IR Inten    --    293.0596               240.1806                55.9132

                     13                     14                     15
                      A                      A                      A
 Frequencies --   2922.8034              3029.2640              3338.8812
 Red. masses --      1.0988                 1.0898                 1.0654
 Frc consts  --      5.5308                 5.8922                 6.9979
 IR Inten    --      9.4973                44.5802             11580.4466

 - Thermochemistry -
 -------------------
 Temperature   298.150 Kelvin.  Pressure   1.00000 Atm.
 Atom     1 has atomic number  6 and mass  12.00000

 Molecular mass:    44.02621 amu.
 Principal axes and moments of inertia in atomic units:
                           1         2         3
     Eigenvalues --    24.26836 206.81873 219.86500
           X            0.99963  -0.02732  -0.00012
           Y            0.02732   0.99963   0.00039
           Z            0.00011  -0.00039   1.00000
 This molecule is an asymmetric top.
 Rotational symmetry number  1.
 Rotational temperatures (Kelvin)      3.56900     0.41879     0.39394
 Rotational constants (GHZ):          74.36601     8.72620     8.20841
    2 imaginary frequencies ignored.
 Zero-point vibrational energy     133067.7 (Joules/Mol)
                                   31.80395 (Kcal/Mol)
 Warning -- explicit consideration of   1 degrees of freedom as
           vibrations may cause significant error
 Vibrational temperatures:    555.44  1289.03  1410.55  1436.69  1687.88
          (Kelvin)           1951.76  1985.38  2063.89  2100.00  4160.49
                             4205.26  4358.43  4803.90

 Zero-point correction=                           0.050683 (Hartree/Particle)
 Thermal correction to Energy=                    0.054018
 Thermal correction to Enthalpy=                  0.054962
 Thermal correction to Gibbs Free Energy=         0.024970
 Sum of electronic and zero-point Energies=           -153.688601
 Sum of electronic and thermal Energies=              -153.685266
 Sum of electronic and thermal Enthalpies=            -153.684322
 Sum of electronic and thermal Free Energies=         -153.714315

                     E (Thermal)             CV                S
                      KCal/Mol        Cal/Mol-Kelvin    Cal/Mol-Kelvin
 Total                   33.897              9.385             63.125
 Electronic               0.000              0.000              2.755
 Translational            0.889              2.981             37.273
 Rotational               0.889              2.981             21.628
 Vibrational             32.119              3.424              1.469
 Vibration     1          0.755              1.500              1.015

 Normal termination of Gaussian 09 at Thu Mar  7 10:49:20 2019.
