 Gaussian 09, Revision E.01,
 Gaussian 09:  EM64L-G09RevE.01 30-Nov-2015

 ------------------------------------------------------
 #p b3lyp/6-311++G(3df,2p) freq IOp(2/17=3) IOp(2/18=3)
 ------------------------------------------------------

 ---------
 b3lyp opt
 ---------
 Symbolic Z-matrix:
 Charge = -1 Multiplicity = 2

                         Standard orientation:
 ---------------------------------------------------------------------
 Center     Atomic      Atomic             Coordinates (Angstroms)
 Number     Number       Type             X           Y           Z
 ---------------------------------------------------------------------
      1          8           0        2.391603    0.406126    0.000000
      2          6           0        0.000000    0.502685    0.000000
      3          6           0        1.256476   -0.156019    0.000000
      4          6           0       -1.238645   -0.059709    0.000000
      5          6           0       -2.422809   -0.597380    0.000000
      6          1           0        0.044975    1.590874    0.000000
      7          1           0        1.203195   -1.264753    0.000000
      8          1           0       -2.975567   -0.856294   -0.918866
      9          1           0       -2.975567   -0.856294    0.918866
 ---------------------------------------------------------------------

 SCF Done:  E(UB3LYP) =  -230.077131531     A.U. after   22 cycles

 The electronic state is 2-A".
 Alpha  occ. eigenvalues --  -18.88717 -10.02829 -10.01312 -10.00265  -9.99304
 Alpha  occ. eigenvalues --   -0.79903  -0.61861  -0.54693  -0.41251  -0.35224
 Alpha  occ. eigenvalues --   -0.29738  -0.27720  -0.24476  -0.20768  -0.18931
 Alpha  occ. eigenvalues --   -0.10978  -0.09437  -0.05328   0.05618
 Alpha virt. eigenvalues --    0.10159   0.12189   0.12981   0.13658   0.15724
 Alpha virt. eigenvalues --    0.17908   0.19284   0.19440   0.20558   0.21249
 Alpha virt. eigenvalues --    0.22681   0.23507   0.24724   0.25344   0.26248

  Beta  occ. eigenvalues --  -18.88038 -10.02476 -10.01445  -9.99509  -9.99340
  Beta  occ. eigenvalues --   -0.78655  -0.60768  -0.54198  -0.40088  -0.34612
  Beta  occ. eigenvalues --   -0.29296  -0.26637  -0.24071  -0.20192  -0.16028
  Beta  occ. eigenvalues --   -0.10714  -0.06437  -0.04775
  Beta virt. eigenvalues --    0.10248   0.11918   0.12965   0.13611   0.14882
  Beta virt. eigenvalues --    0.15969   0.17764   0.19207   0.20011   0.20452
  Beta virt. eigenvalues --    0.21841   0.22676   0.23551   0.24743   0.25852

 Mulliken charges and spin densities:
               1          2
     1  O   -0.774072   0.217302
     2  C    0.021998  -0.027639
     3  C   -0.062438   0.280168
     4  C    0.307906   0.476489
     5  C   -0.656837  -0.200591
     6  H    0.103418   0.000959
     7  H    0.024184  -0.016521
     8  H    0.017920   0.134916
     9  H    0.017920   0.134916
 Sum of Mulliken charges =  -1.00000   1.00000

 Dipole moment (field-independent basis, Debye):
    X=             -2.7828    Y=             -0.3642    Z=             -0.0000  Tot=              2.8066
 Quadrupole moment (field-independent basis, Debye-Ang):
   XX=            -61.5620   YY=            -35.9080   ZZ=            -36.5344
   XY=             -5.1423   XZ=              0.0000   YZ=              0.0000

  Exact polarizability: 221.766  43.730  73.695   0.000  -0.000 169.767
 Approx polarizability: 269.579  50.040  98.146  -0.000  -0.000 115.644

 ******    2 imaginary frequencies (negative Signs) ******

                      1                      2                      3
                     A"                     A"                     A'
 Frequencies --   -327.1953              -120.1448               168.4012
 Red. masses --      3.3199                 1.6042                 4.1729
 Frc consts  --      0.2094                 0.0136                 0.0697
 IR Inten    --    238.6852                24.4125                 3.2356

                      4                      5                      6
                     A"                     A'                     A'
 Frequencies --    255.2135               458.3003               558.3359
 Red. masses --      2.3468                 4.7809                 7.0173
 Frc consts  --      0.0901                 0.5916                 1.2889
 IR Inten    --     23.7071                 7.7096                43.8881

                      7                      8                      9
                     A"                     A"                     A'
 Frequencies --    776.1971               829.2253               873.4713
 Red. masses --      1.1910                 1.6167                 1.3573
 Frc consts  --      0.4228                 0.6550                 0.6101
 IR Inten    --     88.5059                20.5932                13.0058

                     10                     11                     12
                     A'                     A"                     A'
 Frequencies --   1008.9248              1015.4368              1162.9115
 Red. masses --      2.7928                 1.3031                 3.1395
 Frc consts  --      1.6750                 0.7917                 2.5016
 IR Inten    --     19.0058                14.9388                 5.8165

                     13                     14                     15
                     A'                     A'                     A'
 Frequencies --   1279.3064              1341.4528              1468.3369
 Red. masses --      1.6813                 1.4352                 1.1882
 Frc consts  --      1.6212                 1.5216                 1.5094
 IR Inten    --     28.0094               446.7136                 0.6493

                     16                     17                     18
                     A'                     A'                     A"
 Frequencies --   1547.8533              1867.4514              2735.9290
 Red. masses --      3.8576                10.9409                 1.1201
 Frc consts  --      5.4453                22.4803                 4.9398
 IR Inten    --   1159.3838                32.1107              4248.7374

                     19                     20                     21
                     A'                     A'                     A'
 Frequencies --   2828.3568              2875.1576              3083.7491
 Red. masses --      1.0764                 1.0451                 1.0830
 Frc consts  --      5.0734                 5.0901                 6.0677
 IR Inten    --    163.6696               944.9853                35.5409

 - Thermochemistry -
 -------------------
 Temperature   298.150 Kelvin.  Pressure   1.00000 Atm.
 Atom     1 has atomic number  8 and mass  15.99491

 Molecular mass:    68.02621 amu.
 Principal axes and moments of inertia in atomic units:
                           1         2         3
     Eigenvalues --    41.83172 806.56946 836.24641
           X            0.98616  -0.16582   0.00000
           Y            0.16582   0.98616   0.00000
           Z            0.00000  -0.00000   1.00000
 This molecule is an asymmetric top.
 Rotational symmetry number  1.
 Rotational temperatures (Kelvin)      2.07053     0.10739     0.10357
 Rotational constants (GHZ):          43.14289     2.23755     2.15815
    2 imaginary frequencies ignored.
 Zero-point vibrational energy     156316.1 (Joules/Mol)
                                   37.36044 (Kcal/Mol)
 Warning -- explicit consideration of   4 degrees of freedom as
           vibrations may cause significant error
 Vibrational temperatures:    242.29   367.19   659.39   803.32  1116.77
          (Kelvin)           1193.07  1256.73  1451.62  1460.99  1673.17
                             1840.63  1930.05  2112.61  2227.01  2686.84
                             3936.39  4069.37  4136.71  4436.82

 Zero-point correction=                           0.059538 (Hartree/Particle)
 Thermal correction to Energy=                    0.064240
 Thermal correction to Enthalpy=                  0.065184
 Thermal correction to Gibbs Free Energy=         0.031396
 Sum of electronic and zero-point Energies=           -230.017594
 Sum of electronic and thermal Energies=              -230.012891
 Sum of electronic and thermal Enthalpies=            -230.011947
 Sum of electronic and thermal Free Energies=         -230.045735

                     E (Thermal)             CV                S
                      KCal/Mol        Cal/Mol-Kelvin    Cal/Mol-Kelvin
 Total                   40.311             15.307             71.114
 Electronic               0.000              0.000              1.377
 Translational            0.889              2.981             38.570
 Rotational               0.889              2.981             24.849
 Vibrational             38.534              9.345              6.318
 Vibration     1          0.625              1.881              2.453
 Vibration     2          0.666              1.754              1.694
 Vibration     3          0.816              1.343              0.771
 Vibration     4          0.914              1.121              0.527

 Optimization completed.
    -- Stationary point found.
 Normal termination of Gaussian 09 at Thu Mar  7 15:15:27 2019.
