 Gaussian 09, Revision E.01,
 Gaussian 09:  EM64L-G09RevE.01 30-Nov-2015

 ------------------------------------------------------
 #p b3lyp/6-311++G(3df,2p) freq IOp(2/17=3) IOp(2/18=3)
 ------------------------------------------------------

 ---------
 b3lyp opt
 ---------
 Symbolic Z-matrix:
 Charge = -1 Multiplicity = 4

                         Standard orientation:
 ---------------------------------------------------------------------
 Center     Atomic      Atomic             Coordinates (Angstroms)
 Number     Number       Type             X           Y           Z
 ---------------------------------------------------------------------
      1          6           0       -1.169124    0.359147    0.416064
      2          6           0        2.329287   -0.465219    0.084869
      3          8           0       -1.924735   -0.648679   -0.124447
      4          6           0        1.270628    0.128194   -0.057483
      5          6           0        0.078782    0.786312   -0.229417
      6          1           0       -1.304428    0.437940    1.485853
      7          1           0       -1.682857   -0.777275   -1.056373
      8          1           0        3.261588   -0.969447    0.178658
      9          1           0        0.066135    1.647613   -0.896762
 ---------------------------------------------------------------------

 SCF Done:  E(UB3LYP) =  -229.941068979     A.U. after   33 cycles

 The electronic state is 4-A.
 Alpha  occ. eigenvalues --  -19.04531 -10.11088 -10.09073 -10.06910 -10.06657
 Alpha  occ. eigenvalues --   -0.94745  -0.69186  -0.61919  -0.53427  -0.43695
 Alpha  occ. eigenvalues --   -0.39944  -0.37144  -0.35379  -0.28474  -0.26281
 Alpha  occ. eigenvalues --   -0.22710  -0.17059  -0.10344  -0.06445   0.05391
 Alpha virt. eigenvalues --    0.07816   0.09272   0.10231   0.13061   0.14675
 Alpha virt. eigenvalues --    0.15023   0.16618   0.17332   0.17821   0.18829
 Alpha virt. eigenvalues --    0.18882   0.19781   0.20541   0.21341   0.21952

  Beta  occ. eigenvalues --  -19.03832 -10.09819 -10.08069 -10.07090 -10.05895
  Beta  occ. eigenvalues --   -0.93141  -0.67304  -0.59359  -0.51244  -0.42541
  Beta  occ. eigenvalues --   -0.38847  -0.35579  -0.33803  -0.25837  -0.23834
  Beta  occ. eigenvalues --   -0.19497  -0.16347
  Beta virt. eigenvalues --    0.00883   0.07211   0.08646   0.09830   0.10249
  Beta virt. eigenvalues --    0.10941   0.13487   0.15399   0.15969   0.16986
  Beta virt. eigenvalues --    0.17739   0.18916   0.19859   0.20120   0.20732

 Mulliken charges and spin densities:
               1          2
     1  C    1.359718  -0.399564
     2  C  -13.254789  14.087892
     3  O   -0.541740   0.164417
     4  C    9.545891  -9.916325
     5  C    5.890944  -5.807175
     6  H    0.131713   0.006692
     7  H   -0.323544   0.594953
     8  H   -2.907567   3.214759
     9  H   -0.900627   1.054352
 Sum of Mulliken charges =  -1.00000   3.00000

 Dipole moment (field-independent basis, Debye):
    X=             -5.5133    Y=              1.8791    Z=              3.0629  Tot=              6.5809
 Quadrupole moment (field-independent basis, Debye-Ang):
   XX=            -87.9358   YY=            -59.1698   ZZ=            -53.8453
   XY=              7.4511   XZ=             -2.7144   YZ=              1.2264

  Exact polarizability:2083.461-524.5201394.248 638.343-196.364 704.337
 Approx polarizability:2672.538-624.725 977.664 864.427-219.225 651.622

 ******    1 imaginary frequencies (negative Signs) ******

                      1                      2                      3
                      A                      A                      A
 Frequencies --   -306.2380               159.0887               294.6955
 Red. masses --      4.3354                 2.4458                 1.6727
 Frc consts  --      0.2396                 0.0365                 0.0856
 IR Inten    --      3.8241                90.6859               472.8455

                      4                      5                      6
                      A                      A                      A
 Frequencies --    367.7401               439.1216               510.8825
 Red. masses --      2.0677                 1.6266                 1.6229
 Frc consts  --      0.1648                 0.1848                 0.2496
 IR Inten    --    310.2195               730.1554                41.2275

                      7                      8                      9
                      A                      A                      A
 Frequencies --    583.6101               664.8401               687.9996
 Red. masses --      2.6476                 1.4070                 1.7116
 Frc consts  --      0.5313                 0.3664                 0.4774
 IR Inten    --    109.5635               989.0740               470.2934

                     10                     11                     12
                      A                      A                      A
 Frequencies --    714.3035               948.2843              1098.4802
 Red. masses --      1.8844                 4.8972                 2.9535
 Frc consts  --      0.5665                 2.5946                 2.0997
 IR Inten    --    749.6322               399.1537               365.3173

                     13                     14                     15
                      A                      A                      A
 Frequencies --   1188.0724              1248.4404              1324.2704
 Red. masses --      1.4789                 1.7998                 1.5374
 Frc consts  --      1.2299                 1.6528                 1.5885
 IR Inten    --    230.4247                30.7783               232.5181

                     16                     17                     18
                      A                      A                      A
 Frequencies --   1393.7252              1983.6991              3049.7106
 Red. masses --      1.5979                 6.6462                 1.0832
 Frc consts  --      1.8287                15.4090                 5.9358
 IR Inten    --   1214.8663               159.0636               554.5092

                     19                     20                     21
                      A                      A                      A
 Frequencies --   3166.6970              3401.1263              3588.8393
 Red. masses --      1.0857                 1.1411                 1.0665
 Frc consts  --      6.4145                 7.7768                 8.0933
 IR Inten    --    124.7565              3366.3915              9719.8767

 - Thermochemistry -
 -------------------
 Temperature   298.150 Kelvin.  Pressure   1.00000 Atm.
 Atom     1 has atomic number  6 and mass  12.00000

 Molecular mass:    68.02621 amu.
 Principal axes and moments of inertia in atomic units:
                           1         2         3
     Eigenvalues --   107.89733 652.83147 708.79905
           X            0.99989  -0.01498   0.00230
           Y            0.01501   0.99982  -0.01170
           Z           -0.00212   0.01173   0.99993
 This molecule is an asymmetric top.
 Rotational symmetry number  1.
 Rotational temperatures (Kelvin)      0.80274     0.13267     0.12220
 Rotational constants (GHZ):          16.72647     2.76448     2.54620
    1 imaginary frequencies ignored.
 Zero-point vibrational energy     160381.1 (Joules/Mol)
                                   38.33200 (Kcal/Mol)
 Warning -- explicit consideration of   6 degrees of freedom as
           vibrations may cause significant error
 Vibrational temperatures:    228.89   424.00   529.10   631.80   735.05
          (Kelvin)            839.68   956.56   989.88  1027.72  1364.37
                             1580.47  1709.37  1796.23  1905.33  2005.26
                             2854.10  4387.85  4556.17  4893.46  5163.53

 Zero-point correction=                           0.061086 (Hartree/Particle)
 Thermal correction to Energy=                    0.066446
 Thermal correction to Enthalpy=                  0.067390
 Thermal correction to Gibbs Free Energy=         0.031737
 Sum of electronic and zero-point Energies=           -229.879983
 Sum of electronic and thermal Energies=              -229.874623
 Sum of electronic and thermal Enthalpies=            -229.873679
 Sum of electronic and thermal Free Energies=         -229.909331

                     E (Thermal)             CV                S
                      KCal/Mol        Cal/Mol-Kelvin    Cal/Mol-Kelvin
 Total                   41.695             18.671             75.037
 Electronic               0.000              0.000              2.755
 Translational            0.889              2.981             38.570
 Rotational               0.889              2.981             25.416
 Vibrational             39.918             12.709              8.297
 Vibration     1          0.621              1.892              2.561
 Vibration     2          0.689              1.684              1.447
 Vibration     3          0.740              1.539              1.089
 Vibration     4          0.799              1.385              0.829
 Vibration     5          0.866              1.226              0.631
 Vibration     6          0.940              1.067              0.479

 Normal termination of Gaussian 09 at Thu Mar  7 23:59:35 2019.
