 Gaussian 09, Revision E.01,
 Gaussian 09:  EM64L-G09RevE.01 30-Nov-2015

 ------------------------------------------------------
 #p b3lyp/6-311++G(3df,2p) freq IOp(2/17=3) IOp(2/18=3)
 ------------------------------------------------------

 ---------
 b3lyp opt
 ---------
 Symbolic Z-matrix:
 Charge = -1 Multiplicity = 2

                         Standard orientation:
 ---------------------------------------------------------------------
 Center     Atomic      Atomic             Coordinates (Angstroms)
 Number     Number       Type             X           Y           Z
 ---------------------------------------------------------------------
      1          8           0        2.317789    1.178981    0.000000
      2          6           0       -1.701937   -1.589005    0.000000
      3          6           0       -1.299004   -0.136746    0.000000
      4          6           0        0.000000    0.302351    0.000000
      5          6           0        1.169760    0.749481    0.000000
      6          1           0       -2.306573   -1.868754    0.879094
      7          1           0       -2.306573   -1.868754   -0.879094
      8          1           0       -0.816731   -2.228161    0.000000
      9          1           0       -2.125350    0.577335    0.000000
 ---------------------------------------------------------------------

 SCF Done:  E(UB3LYP) =  -230.092842716     A.U. after   18 cycles

 The electronic state is 2-A".
 Alpha  occ. eigenvalues --  -18.91671 -10.02048 -10.00880  -9.98958  -9.94708
 Alpha  occ. eigenvalues --   -0.82901  -0.60216  -0.53104  -0.44470  -0.30412
 Alpha  occ. eigenvalues --   -0.26352  -0.25632  -0.24034  -0.20593  -0.20535
 Alpha  occ. eigenvalues --   -0.18539  -0.08684  -0.01208   0.04598
 Alpha virt. eigenvalues --    0.10156   0.12773   0.13206   0.14189   0.16732
 Alpha virt. eigenvalues --    0.19068   0.19789   0.20463   0.21198   0.21355
 Alpha virt. eigenvalues --    0.22591   0.23651   0.25093   0.25593   0.26608

  Beta  occ. eigenvalues --  -18.91138 -10.01618 -10.00944  -9.98129  -9.94757
  Beta  occ. eigenvalues --   -0.81906  -0.59242  -0.52237  -0.43045  -0.29978
  Beta  occ. eigenvalues --   -0.25695  -0.24903  -0.23572  -0.20375  -0.18037
  Beta  occ. eigenvalues --   -0.17603  -0.05286  -0.00965
  Beta virt. eigenvalues --    0.10149   0.12779   0.13057   0.13933   0.14161
  Beta virt. eigenvalues --    0.16756   0.19025   0.19785   0.20743   0.21367
  Beta virt. eigenvalues --    0.21408   0.22641   0.23689   0.25070   0.25920

 Mulliken charges and spin densities:
               1          2
     1  O   -0.845378   0.169158
     2  C   -0.377933  -0.056177
     3  C    0.077827   0.647372
     4  C    0.356989   0.043507
     5  C   -0.526024   0.171594
     6  H    0.058201   0.031224
     7  H    0.058201   0.031224
     8  H    0.109116  -0.003411
     9  H    0.089003  -0.034491
 Sum of Mulliken charges =  -1.00000   1.00000

 Dipole moment (field-independent basis, Debye):
    X=             -3.1599    Y=             -2.1303    Z=              0.0000  Tot=              3.8109
 Quadrupole moment (field-independent basis, Debye-Ang):
   XX=            -51.5360   YY=            -39.9944   ZZ=            -35.2421
   XY=             -8.9061   XZ=              0.0000   YZ=              0.0000

  Exact polarizability: 117.201  33.322  79.403  -0.000  -0.000  55.853
 Approx polarizability: 179.725  47.963 101.415   0.000  -0.000  72.602

 ******    1 imaginary frequencies (negative Signs) ******

                      1                      2                      3
                     A"                     A'                     A"
 Frequencies --   -108.9641                59.6897               223.7473
 Red. masses --      1.1282                 5.0544                 5.1267
 Frc consts  --      0.0079                 0.0106                 0.1512
 IR Inten    --      0.0732                 4.2174                 4.3805

                      4                      5                      6
                     A"                     A'                     A"
 Frequencies --    421.1548               439.4931               454.7699
 Red. masses --      2.5865                 3.5145                 2.2184
 Frc consts  --      0.2703                 0.4000                 0.2703
 IR Inten    --     19.0314                13.3343                 5.3354

                      7                      8                      9
                     A'                     A'                     A"
 Frequencies --    516.2582               772.2285              1005.6974
 Red. masses --     11.9533                 3.1788                 1.3068
 Frc consts  --      1.8770                 1.1169                 0.7788
 IR Inten    --      9.6837                10.1393                 0.2492

                     10                     11                     12
                     A'                     A'                     A'
 Frequencies --   1036.4027              1064.4995              1324.9582
 Red. masses --      2.0038                 2.5707                 1.3722
 Frc consts  --      1.2681                 1.7163                 1.4193
 IR Inten    --     37.3780                 1.9875               132.2077

                     13                     14                     15
                     A'                     A"                     A'
 Frequencies --   1375.2692              1468.4199              1474.0359
 Red. masses --      1.2206                 1.0525                 1.1899
 Frc consts  --      1.3602                 1.3372                 1.5233
 IR Inten    --     12.4068                 0.0588                27.3581

                     16                     17                     18
                     A'                     A'                     A"
 Frequencies --   1530.9944              2183.4277              2866.5819
 Red. masses --      4.1636                12.0775                 1.0988
 Frc consts  --      5.7500                33.9238                 5.3198
 IR Inten    --     86.1318              1264.3814               222.7130

                     19                     20                     21
                     A'                     A'                     A'
 Frequencies --   2890.5108              3011.8722              3054.5631
 Red. masses --      1.0432                 1.0806                 1.0883
 Frc consts  --      5.1352                 5.7756                 5.9827
 IR Inten    --    355.1155               130.7617                56.2993

 - Thermochemistry -
 -------------------
 Temperature   298.150 Kelvin.  Pressure   1.00000 Atm.
 Atom     1 has atomic number  8 and mass  15.99491

 Molecular mass:    68.02621 amu.
 Principal axes and moments of inertia in atomic units:
                           1         2         3
     Eigenvalues --    51.81033 834.34652 875.03151
           X            0.85323  -0.52153   0.00000
           Y            0.52153   0.85323   0.00000
           Z            0.00000   0.00000   1.00000
 This molecule is an asymmetric top.
 Rotational symmetry number  1.
 Rotational temperatures (Kelvin)      1.67175     0.10381     0.09898
 Rotational constants (GHZ):          34.83362     2.16306     2.06249
    1 imaginary frequencies ignored.
 Zero-point vibrational energy     162540.0 (Joules/Mol)
                                   38.84800 (Kcal/Mol)
 Warning -- explicit consideration of   6 degrees of freedom as
           vibrations may cause significant error
 Vibrational temperatures:     85.88   321.92   605.95   632.33   654.31
          (Kelvin)            742.78  1111.06  1446.97  1491.15  1531.58
                             1906.32  1978.70  2112.73  2120.81  2202.76
                             3141.46  4124.37  4158.80  4333.41  4394.83

 Zero-point correction=                           0.061908 (Hartree/Particle)
 Thermal correction to Energy=                    0.067332
 Thermal correction to Enthalpy=                  0.068276
 Thermal correction to Gibbs Free Energy=         0.032567
 Sum of electronic and zero-point Energies=           -230.030934
 Sum of electronic and thermal Energies=              -230.025511
 Sum of electronic and thermal Enthalpies=            -230.024567
 Sum of electronic and thermal Free Energies=         -230.060276

                     E (Thermal)             CV                S
                      KCal/Mol        Cal/Mol-Kelvin    Cal/Mol-Kelvin
 Total                   42.251             17.323             75.157
 Electronic               0.000              0.000              1.377
 Translational            0.889              2.981             38.570
 Rotational               0.889              2.981             25.140
 Vibrational             40.474             11.362             10.070
 Vibration     1          0.597              1.974              4.467
 Vibration     2          0.649              1.805              1.929
 Vibration     3          0.784              1.424              0.888
 Vibration     4          0.800              1.384              0.828
 Vibration     5          0.813              1.350              0.781
 Vibration     6          0.871              1.214              0.619

 Normal termination of Gaussian 09 at Thu Mar  7 13:32:11 2019.
