 Gaussian 09, Revision E.01,
 Gaussian 09:  EM64L-G09RevE.01 30-Nov-2015

 ------------------------------------------------------
 #p b3lyp/6-311++G(3df,2p) freq IOp(2/17=3) IOp(2/18=3)
 ------------------------------------------------------

 ---------
 b3lyp opt
 ---------
 Symbolic Z-matrix:
 Charge = -1 Multiplicity = 2

                         Standard orientation:
 ---------------------------------------------------------------------
 Center     Atomic      Atomic             Coordinates (Angstroms)
 Number     Number       Type             X           Y           Z
 ---------------------------------------------------------------------
      1          8           0        1.965560   -0.384094    0.000000
      2          6           0       -0.561190    0.017866   -0.000000
      3          6           0        0.861518    0.117161    0.000000
      4          6           0       -0.000000    1.241479    0.000000
      5          6           0       -1.816425   -0.758566   -0.000000
      6          1           0       -0.222220    2.298357    0.000000
      7          1           0       -1.855247   -1.410100   -0.879436
      8          1           0       -2.695000   -0.113303   -0.000000
      9          1           0       -1.855247   -1.410100    0.879436
 ---------------------------------------------------------------------

 SCF Done:  E(UB3LYP) =  -230.040667971     A.U. after   26 cycles

 The electronic state is 2-A'.
 Alpha  occ. eigenvalues --  -18.98191 -10.15043 -10.10937 -10.09579 -10.06750
 Alpha  occ. eigenvalues --   -0.91318  -0.79730  -0.63283  -0.46988  -0.40423
 Alpha  occ. eigenvalues --   -0.35238  -0.33452  -0.32244  -0.29320  -0.28726
 Alpha  occ. eigenvalues --   -0.24406  -0.17514  -0.12249   0.05023
 Alpha virt. eigenvalues --    0.08107   0.08290   0.10728   0.10938   0.13480
 Alpha virt. eigenvalues --    0.14118   0.14489   0.16890   0.17505   0.18881
 Alpha virt. eigenvalues --    0.19071   0.19673   0.19759   0.21271   0.21886

  Beta  occ. eigenvalues --  -18.98185 -10.15038 -10.10935 -10.09548 -10.06651
  Beta  occ. eigenvalues --   -0.91302  -0.79707  -0.63159  -0.46869  -0.40321
  Beta  occ. eigenvalues --   -0.35191  -0.33391  -0.32178  -0.29259  -0.28672
  Beta  occ. eigenvalues --   -0.24356  -0.17491  -0.12214
  Beta virt. eigenvalues --    0.08354   0.08386   0.09709   0.12151   0.12180
  Beta virt. eigenvalues --    0.14005   0.14296   0.14873   0.17054   0.17455
  Beta virt. eigenvalues --    0.19206   0.19404   0.19805   0.20285   0.21421

 Mulliken charges and spin densities:
               1          2
     1  O   -0.858551   0.052007
     2  C   -0.565057   0.554506
     3  C    1.929163  -1.485370
     4  C   -2.944081   3.040145
     5  C    5.814863  -6.242871
     6  H   -1.960584   2.198715
     7  H   -0.685800   0.842379
     8  H   -1.044154   1.198111
     9  H   -0.685800   0.842379
 Sum of Mulliken charges =  -1.00000   1.00000

 Dipole moment (field-independent basis, Debye):
    X=              4.9026    Y=             -0.7831    Z=             -0.0000  Tot=              4.9647
 Quadrupole moment (field-independent basis, Debye-Ang):
   XX=            -79.7508   YY=            -65.9183   ZZ=            -51.4480
   XY=              1.4084   XZ=             -0.0000   YZ=              0.0000

  Exact polarizability: 765.719 446.3751983.594   0.000   0.0001171.951
 Approx polarizability: 617.734 402.4691760.695  -0.000  -0.000 524.818

 ******    1 imaginary frequencies (negative Signs) ******

                      1                      2                      3
                     A"                     A"                     A'
 Frequencies --   -332.4267               148.7785               235.2320
 Red. masses --      3.4378                 1.1045                 3.7044
 Frc consts  --      0.2238                 0.0144                 0.1208
 IR Inten    --   6194.4801                 6.2301                20.8976

                      4                      5                      6
                     A"                     A'                     A'
 Frequencies --    543.6337               544.5760               751.2572
 Red. masses --      4.2424                 2.8084                 5.6252
 Frc consts  --      0.7387                 0.4907                 1.8705
 IR Inten    --    533.7888                44.0411                 3.8587

                      7                      8                      9
                     A'                     A"                     A'
 Frequencies --    866.1648               905.7104               975.1398
 Red. masses --      2.1601                 1.4934                 2.0398
 Frc consts  --      0.9548                 0.7218                 1.1428
 IR Inten    --     92.2077                18.3972                 9.9984

                     10                     11                     12
                     A"                     A'                     A'
 Frequencies --    998.5132              1083.1739              1228.3762
 Red. masses --      1.3304                 2.2835                 3.1937
 Frc consts  --      0.7815                 1.5785                 2.8393
 IR Inten    --    667.5402               171.1151                47.0306

                     13                     14                     15
                     A'                     A"                     A'
 Frequencies --   1379.6516              1450.9981              1454.4378
 Red. masses --      1.2125                 1.0442                 1.0649
 Frc consts  --      1.3598                 1.2952                 1.3273
 IR Inten    --    448.3608              1613.0896               169.5066

                     16                     17                     18
                     A'                     A'                     A"
 Frequencies --   1649.6397              1888.6826              2830.1764
 Red. masses --      8.0361                10.8231                 1.1185
 Frc consts  --     12.8847                22.7467                 5.2787
 IR Inten    --     26.0358               369.2728             20174.2306

                     19                     20                     21
                     A'                     A'                     A'
 Frequencies --   2971.3574              3073.7350              3195.3100
 Red. masses --      1.0377                 1.1016                 1.1122
 Frc consts  --      5.3982                 6.1323                 6.6903
 IR Inten    --    243.7977                22.7789               104.3661

 - Thermochemistry -
 -------------------
 Temperature   298.150 Kelvin.  Pressure   1.00000 Atm.
 Atom     1 has atomic number  8 and mass  15.99491

 Molecular mass:    68.02621 amu.
 Principal axes and moments of inertia in atomic units:
                           1         2         3
     Eigenvalues --   134.31208 466.09974 589.27782
           X            0.99344  -0.11436   0.00000
           Y            0.11436   0.99344   0.00000
           Z           -0.00000   0.00000   1.00000
 This molecule is an asymmetric top.
 Rotational symmetry number  1.
 Rotational temperatures (Kelvin)      0.64487     0.18583     0.14698
 Rotational constants (GHZ):          13.43692     3.87201     3.06263
    1 imaginary frequencies ignored.
 Zero-point vibrational energy     168521.2 (Joules/Mol)
                                   40.27753 (Kcal/Mol)
 Warning -- explicit consideration of   4 degrees of freedom as
           vibrations may cause significant error
 Vibrational temperatures:    214.06   338.45   782.17   783.52  1080.89
          (Kelvin)           1246.22  1303.11  1403.01  1436.64  1558.44
                             1767.36  1985.01  2087.66  2092.61  2373.46
                             2717.39  4071.99  4275.12  4422.41  4597.33

 Zero-point correction=                           0.064186 (Hartree/Particle)
 Thermal correction to Energy=                    0.068910
 Thermal correction to Enthalpy=                  0.069854
 Thermal correction to Gibbs Free Energy=         0.035831
 Sum of electronic and zero-point Energies=           -229.976482
 Sum of electronic and thermal Energies=              -229.971758
 Sum of electronic and thermal Enthalpies=            -229.970814
 Sum of electronic and thermal Free Energies=         -230.004837

                     E (Thermal)             CV                S
                      KCal/Mol        Cal/Mol-Kelvin    Cal/Mol-Kelvin
 Total                   43.241             15.351             71.606
 Electronic               0.000              0.000              1.377
 Translational            0.889              2.981             38.570
 Rotational               0.889              2.981             25.115
 Vibrational             41.464              9.390              6.544
 Vibration     1          0.618              1.904              2.688
 Vibration     2          0.655              1.787              1.839
 Vibration     3          0.899              1.154              0.558
 Vibration     4          0.900              1.152              0.556

 Optimization completed.
    -- Stationary point found.
 Normal termination of Gaussian 09 at Thu Mar  7 13:51:39 2019.
