 Gaussian 09, Revision E.01,
 Gaussian 09:  EM64L-G09RevE.01 30-Nov-2015

 ------------------------------------------------------
 #p b3lyp/6-311++G(3df,2p) freq IOp(2/17=3) IOp(2/18=3)
 ------------------------------------------------------

 ---------
 b3lyp opt
 ---------
 Symbolic Z-matrix:
 Charge = -1 Multiplicity = 4

                         Standard orientation:
 ---------------------------------------------------------------------
 Center     Atomic      Atomic             Coordinates (Angstroms)
 Number     Number       Type             X           Y           Z
 ---------------------------------------------------------------------
      1          6           0       -1.049615   -0.001643    0.427767
      2          6           0        1.508412   -0.731290    0.157183
      3          8           0       -2.142794    0.000778   -0.217822
      4          6           0        1.507549    0.731744    0.158306
      5          6           0        0.331151   -0.000098   -0.343759
      6          1           0       -0.971442   -0.001079    1.513822
      7          1           0        2.121615    1.455449   -0.381272
      8          1           0        2.123309   -1.453456   -0.383493
      9          1           0        0.083895    0.000586   -1.403457
 ---------------------------------------------------------------------

 SCF Done:  E(UB3LYP) =  -229.908757165     A.U. after   25 cycles

 The electronic state is 4-A.
 Alpha  occ. eigenvalues --  -18.91665 -10.02628 -10.02276 -10.02024 -10.01996
 Alpha  occ. eigenvalues --   -0.81863  -0.70084  -0.47242  -0.41003  -0.37827
 Alpha  occ. eigenvalues --   -0.33731  -0.25649  -0.24091  -0.20589  -0.15928
 Alpha  occ. eigenvalues --   -0.14718  -0.12689  -0.07037  -0.00667   0.07171
 Alpha virt. eigenvalues --    0.10303   0.11578   0.13435   0.13883   0.18491
 Alpha virt. eigenvalues --    0.18805   0.18876   0.19357   0.21260   0.23240
 Alpha virt. eigenvalues --    0.23299   0.24270   0.24682   0.24853   0.25690

  Beta  occ. eigenvalues --  -18.90302 -10.02260 -10.01619 -10.00708 -10.00678
  Beta  occ. eigenvalues --   -0.79158  -0.68146  -0.44178  -0.37952  -0.35836
  Beta  occ. eigenvalues --   -0.32385  -0.22784  -0.22199  -0.17011  -0.14170
  Beta  occ. eigenvalues --   -0.11432  -0.05678
  Beta virt. eigenvalues --    0.02966   0.10581   0.11615   0.12446   0.13487
  Beta virt. eigenvalues --    0.13827   0.18416   0.18435   0.18796   0.19331
  Beta virt. eigenvalues --    0.20614   0.22452   0.23474   0.23741   0.24339

 Mulliken charges and spin densities:
               1          2
     1  C   -0.194760   0.902925
     2  C   -0.213162   0.726758
     3  O   -0.677622   0.426758
     4  C   -0.211813   0.724278
     5  C    0.297604  -0.384939
     6  H    0.135338   0.043754
     7  H   -0.146387   0.259384
     8  H   -0.145336   0.258276
     9  H    0.156139   0.042806
 Sum of Mulliken charges =  -1.00000   3.00000

 Dipole moment (field-independent basis, Debye):
    X=              1.6346    Y=              0.0032    Z=             -1.0073  Tot=              1.9200
 Quadrupole moment (field-independent basis, Debye-Ang):
   XX=            -55.4103   YY=            -42.5285   ZZ=            -36.5906
   XY=             -0.0132   XZ=             -3.2596   YZ=              0.0060

  Exact polarizability: 293.768  -9.437******** -59.889  79.146 101.019
 Approx polarizability: 451.282   0.836 287.691 -33.778  -0.099 109.457

 ******    2 imaginary frequencies (negative Signs) ******

                      1                      2                      3
                      A                      A                      A
 Frequencies --  -4247.4472              -391.9048               234.7597
 Red. masses --      1.0947                 3.2881                 3.4506
 Frc consts  --     11.6354                 0.2975                 0.1120
 IR Inten    --************              3871.4454              3849.0551

                      4                      5                      6
                      A                      A                      A
 Frequencies --    319.7509               351.8149               406.0060
 Red. masses --      3.9378                 1.1476                 7.9442
 Frc consts  --      0.2372                 0.0837                 0.7716
 IR Inten    --     72.8705             21968.4435                48.2656

                      7                      8                      9
                      A                      A                      A
 Frequencies --    680.9059               698.9223               805.9355
 Red. masses --      3.5211                 1.1185                 6.4988
 Frc consts  --      0.9618                 0.3219                 2.4871
 IR Inten    --    108.6000               270.0155               861.5654

                     10                     11                     12
                      A                      A                      A
 Frequencies --    886.6290               905.5677              1004.0855
 Red. masses --      2.0094                 1.0806                 1.3524
 Frc consts  --      0.9307                 0.5221                 0.8033
 IR Inten    --     57.3801             60488.9724              5383.5609

                     13                     14                     15
                      A                      A                      A
 Frequencies --   1052.5564              1207.3975              1218.9412
 Red. masses --      2.6989                 1.1468                 1.4414
 Frc consts  --      1.7617                 0.9850                 1.2618
 IR Inten    --     44.8335                38.4049               555.4958

                     16                     17                     18
                      A                      A                      A
 Frequencies --   1261.8240              1329.1023              1771.5754
 Red. masses --      3.9045                 4.5208                 1.7650
 Frc consts  --      3.6628                 4.7053                 3.2638
 IR Inten    --    233.1617              2264.9371           1975471.3226

                     19                     20                     21
                      A                      A                      A
 Frequencies --   3028.1096              3057.3871              3065.4504
 Red. masses --      1.0894                 1.0798                 1.0888
 Frc consts  --      5.8855                 5.9470                 6.0284
 IR Inten    --    145.9738                69.6425                29.1229

 - Thermochemistry -
 -------------------
 Temperature   298.150 Kelvin.  Pressure   1.00000 Atm.
 Atom     1 has atomic number  6 and mass  12.00000

 Molecular mass:    68.02621 amu.
 Principal axes and moments of inertia in atomic units:
                           1         2         3
     Eigenvalues --    94.94625 578.45371 605.68669
           X            0.99975   0.00002  -0.02249
           Y           -0.00002   1.00000  -0.00001
           Z            0.02249   0.00001   0.99975
 This molecule is an asymmetric top.
 Rotational symmetry number  1.
 Rotational temperatures (Kelvin)      0.91224     0.14973     0.14300
 Rotational constants (GHZ):          19.00803     3.11994     2.97966
    2 imaginary frequencies ignored.
 Zero-point vibrational energy     139285.5 (Joules/Mol)
                                   33.29004 (Kcal/Mol)
 Warning -- explicit consideration of   4 degrees of freedom as
           vibrations may cause significant error
 Vibrational temperatures:    337.77   460.05   506.18   584.15   979.67
          (Kelvin)           1005.59  1159.56  1275.66  1302.91  1444.65
                             1514.39  1737.17  1753.78  1815.48  1912.28
                             2548.90  4356.77  4398.89  4410.49

 Zero-point correction=                           0.053051 (Hartree/Particle)
 Thermal correction to Energy=                    0.057993
 Thermal correction to Enthalpy=                  0.058938
 Thermal correction to Gibbs Free Energy=         0.024244
 Sum of electronic and zero-point Energies=           -229.855706
 Sum of electronic and thermal Energies=              -229.850764
 Sum of electronic and thermal Enthalpies=            -229.849820
 Sum of electronic and thermal Free Energies=         -229.884513

                     E (Thermal)             CV                S
                      KCal/Mol        Cal/Mol-Kelvin    Cal/Mol-Kelvin
 Total                   36.391             17.183             73.018
 Electronic               0.000              0.000              2.755
 Translational            0.889              2.981             38.570
 Rotational               0.889              2.981             25.012
 Vibrational             34.614             11.221              6.682
 Vibration     1          0.655              1.788              1.842
 Vibration     2          0.706              1.636              1.311
 Vibration     3          0.728              1.572              1.158
 Vibration     4          0.771              1.457              0.941

 Normal termination of Gaussian 09 at Thu Mar  7 23:58:54 2019.
