 Gaussian 09, Revision E.01,
 Gaussian 09:  EM64L-G09RevE.01 30-Nov-2015

 ------------------------------------------------------
 #p b3lyp/6-311++G(3df,2p) freq IOp(2/17=3) IOp(2/18=3)
 ------------------------------------------------------

 ---------
 b3lyp opt
 ---------
 Symbolic Z-matrix:
 Charge = -1 Multiplicity = 2

                         Standard orientation:
 ---------------------------------------------------------------------
 Center     Atomic      Atomic             Coordinates (Angstroms)
 Number     Number       Type             X           Y           Z
 ---------------------------------------------------------------------
      1          8           0        2.316729    1.181342    0.000000
      2          6           0       -1.700838   -1.590489    0.000000
      3          6           0       -1.298737   -0.138004    0.000000
      4          6           0        0.000000    0.301899    0.000000
      5          6           0        1.169166    0.750578    0.000000
      6          1           0       -2.305312   -1.870571    0.879095
      7          1           0       -2.305312   -1.870571   -0.879095
      8          1           0       -0.815241   -2.229093    0.000000
      9          1           0       -2.125511    0.575600    0.000000
 ---------------------------------------------------------------------

 SCF Done:  E(UB3LYP) =  -230.092842702     A.U. after   18 cycles

 The electronic state is 2-A".
 Alpha  occ. eigenvalues --  -18.91672 -10.02048 -10.00880  -9.98958  -9.94708
 Alpha  occ. eigenvalues --   -0.82901  -0.60216  -0.53105  -0.44470  -0.30412
 Alpha  occ. eigenvalues --   -0.26352  -0.25632  -0.24033  -0.20593  -0.20535
 Alpha  occ. eigenvalues --   -0.18539  -0.08684  -0.01208   0.04598
 Alpha virt. eigenvalues --    0.10156   0.12773   0.13206   0.14188   0.16732
 Alpha virt. eigenvalues --    0.19066   0.19789   0.20462   0.21198   0.21355
 Alpha virt. eigenvalues --    0.22590   0.23650   0.25096   0.25593   0.26610

  Beta  occ. eigenvalues --  -18.91138 -10.01618 -10.00944  -9.98129  -9.94758
  Beta  occ. eigenvalues --   -0.81906  -0.59242  -0.52237  -0.43044  -0.29978
  Beta  occ. eigenvalues --   -0.25696  -0.24904  -0.23572  -0.20375  -0.18037
  Beta  occ. eigenvalues --   -0.17603  -0.05286  -0.00966
  Beta virt. eigenvalues --    0.10149   0.12779   0.13057   0.13933   0.14160
  Beta virt. eigenvalues --    0.16756   0.19024   0.19784   0.20742   0.21367
  Beta virt. eigenvalues --    0.21407   0.22640   0.23688   0.25074   0.25920

 Mulliken charges and spin densities:
               1          2
     1  O   -0.845374   0.169154
     2  C   -0.377765  -0.056190
     3  C    0.078276   0.647365
     4  C    0.356569   0.043494
     5  C   -0.526193   0.171617
     6  H    0.058195   0.031231
     7  H    0.058195   0.031231
     8  H    0.109099  -0.003413
     9  H    0.088998  -0.034489
 Sum of Mulliken charges =  -1.00000   1.00000

 Dipole moment (field-independent basis, Debye):
    X=             -3.1586    Y=             -2.1324    Z=              0.0000  Tot=              3.8110
 Quadrupole moment (field-independent basis, Debye-Ang):
   XX=            -51.5204   YY=            -40.0107   ZZ=            -35.2420
   XY=             -8.9184   XZ=             -0.0000   YZ=             -0.0000

  Exact polarizability: 117.147  33.361  79.464  -0.000  -0.000  55.853
 Approx polarizability: 179.634  48.050 101.514  -0.000  -0.000  72.601

 ******    1 imaginary frequencies (negative Signs) ******

                      1                      2                      3
                     A"                     A'                     A"
 Frequencies --   -108.9518                59.7219               223.6892
 Red. masses --      1.1284                 5.0543                 5.1281
 Frc consts  --      0.0079                 0.0106                 0.1512
 IR Inten    --      0.0733                 4.2174                 4.3856

                      4                      5                      6
                     A"                     A'                     A"
 Frequencies --    421.1471               439.4465               454.8313
 Red. masses --      2.5918                 3.5142                 2.2149
 Frc consts  --      0.2708                 0.3998                 0.2700
 IR Inten    --     19.0064                13.3610                 5.3561

                      7                      8                      9
                     A'                     A'                     A"
 Frequencies --    516.2555               772.2180              1005.7012
 Red. masses --     11.9570                 3.1783                 1.3068
 Frc consts  --      1.8776                 1.1167                 0.7788
 IR Inten    --      9.6789                10.1267                 0.2491

                     10                     11                     12
                     A'                     A'                     A'
 Frequencies --   1036.4355              1064.5169              1324.9491
 Red. masses --      2.0036                 2.5715                 1.3722
 Frc consts  --      1.2681                 1.7169                 1.4193
 IR Inten    --     37.3558                 1.9999               132.2990

                     13                     14                     15
                     A'                     A"                     A'
 Frequencies --   1375.2466              1468.4089              1474.0310
 Red. masses --      1.2206                 1.0525                 1.1900
 Frc consts  --      1.3602                 1.3371                 1.5234
 IR Inten    --     12.3976                 0.0589                27.3804

                     16                     17                     18
                     A'                     A'                     A"
 Frequencies --   1530.9817              2183.3982              2866.6157
 Red. masses --      4.1618                12.0774                 1.0988
 Frc consts  --      5.7474                33.9226                 5.3200
 IR Inten    --     86.0588              1264.5185               222.7259

                     19                     20                     21
                     A'                     A'                     A'
 Frequencies --   2890.5419              3011.7623              3054.6086
 Red. masses --      1.0432                 1.0806                 1.0883
 Frc consts  --      5.1353                 5.7751                 5.9829
 IR Inten    --    355.1001               130.9208                56.2002

 - Thermochemistry -
 -------------------
 Temperature   298.150 Kelvin.  Pressure   1.00000 Atm.
 Atom     1 has atomic number  8 and mass  15.99491

 Molecular mass:    68.02621 amu.
 Principal axes and moments of inertia in atomic units:
                           1         2         3
     Eigenvalues --    51.77356 834.45526 875.10345
           X            0.85275  -0.52232   0.00000
           Y            0.52232   0.85275   0.00000
           Z            0.00000  -0.00000   1.00000
 This molecule is an asymmetric top.
 Rotational symmetry number  1.
 Rotational temperatures (Kelvin)      1.67294     0.10380     0.09898
 Rotational constants (GHZ):          34.85835     2.16278     2.06232
    1 imaginary frequencies ignored.
 Zero-point vibrational energy     162539.6 (Joules/Mol)
                                   38.84791 (Kcal/Mol)
 Warning -- explicit consideration of   6 degrees of freedom as
           vibrations may cause significant error
 Vibrational temperatures:     85.93   321.84   605.94   632.26   654.40
          (Kelvin)            742.78  1111.05  1446.98  1491.20  1531.60
                             1906.30  1978.67  2112.71  2120.80  2202.74
                             3141.42  4124.42  4158.84  4333.25  4394.89

 Zero-point correction=                           0.061908 (Hartree/Particle)
 Thermal correction to Energy=                    0.067332
 Thermal correction to Enthalpy=                  0.068276
 Thermal correction to Gibbs Free Energy=         0.032567
 Sum of electronic and zero-point Energies=           -230.030935
 Sum of electronic and thermal Energies=              -230.025511
 Sum of electronic and thermal Enthalpies=            -230.024567
 Sum of electronic and thermal Free Energies=         -230.060276

                     E (Thermal)             CV                S
                      KCal/Mol        Cal/Mol-Kelvin    Cal/Mol-Kelvin
 Total                   42.251             17.323             75.156
 Electronic               0.000              0.000              1.377
 Translational            0.889              2.981             38.570
 Rotational               0.889              2.981             25.139
 Vibrational             40.474             11.362             10.069
 Vibration     1          0.597              1.974              4.466
 Vibration     2          0.649              1.805              1.929
 Vibration     3          0.784              1.424              0.888
 Vibration     4          0.799              1.384              0.828
 Vibration     5          0.813              1.350              0.781
 Vibration     6          0.871              1.214              0.619

 Normal termination of Gaussian 09 at Thu Mar  7 16:03:01 2019.
