 Gaussian 09, Revision E.01,
 Gaussian 09:  EM64L-G09RevE.01 30-Nov-2015

 ------------------------------------------------------
 #p b3lyp/6-311++G(3df,2p) freq IOp(2/17=3) IOp(2/18=3)
 ------------------------------------------------------

 ---------
 b3lyp opt
 ---------
 Symbolic Z-matrix:
 Charge = -1 Multiplicity = 2

                         Standard orientation:
 ---------------------------------------------------------------------
 Center     Atomic      Atomic             Coordinates (Angstroms)
 Number     Number       Type             X           Y           Z
 ---------------------------------------------------------------------
      1          8           0        1.351437    0.823825   -0.000000
      2          6           0        0.000000    0.388575   -0.000000
      3          6           0       -1.008277    1.356777    0.000000
      4          6           0       -0.153942   -0.979323    0.000000
      5          6           0       -0.313846   -2.201330    0.000000
      6          1           0       -0.766069    2.413144    0.000000
      7          1           0       -2.049761    1.076565    0.000000
      8          1           0        1.311145    1.783473   -0.000000
      9          1           0       -0.450428   -3.251984    0.000000
 ---------------------------------------------------------------------

 SCF Done:  E(UB3LYP) =  -230.022051259     A.U. after   20 cycles

 The electronic state is 2-A".
 Alpha  occ. eigenvalues --  -18.97147 -10.03865  -9.98557  -9.97800  -9.96363
 Alpha  occ. eigenvalues --   -0.86767  -0.59632  -0.53192  -0.45553  -0.35720
 Alpha  occ. eigenvalues --   -0.31818  -0.29678  -0.23038  -0.21958  -0.19018
 Alpha  occ. eigenvalues --   -0.12179  -0.09800  -0.04782   0.08240
 Alpha virt. eigenvalues --    0.10722   0.11333   0.13417   0.14518   0.17268
 Alpha virt. eigenvalues --    0.19049   0.19486   0.20452   0.21271   0.21656
 Alpha virt. eigenvalues --    0.23299   0.24345   0.24494   0.25819   0.26585

  Beta  occ. eigenvalues --  -18.97099 -10.03479  -9.98494  -9.97457  -9.96005
  Beta  occ. eigenvalues --   -0.86576  -0.58796  -0.52507  -0.44590  -0.35277
  Beta  occ. eigenvalues --   -0.31438  -0.29377  -0.22714  -0.20685  -0.18869
  Beta  occ. eigenvalues --   -0.10589  -0.09589  -0.02221
  Beta virt. eigenvalues --    0.10727   0.11312   0.13358   0.14405   0.14504
  Beta virt. eigenvalues --    0.17258   0.19406   0.19851   0.21279   0.21539
  Beta virt. eigenvalues --    0.21671   0.23456   0.24569   0.24664   0.25839

 Mulliken charges and spin densities:
               1          2
     1  O   -0.699979   0.019233
     2  C    0.345579   0.146907
     3  C   -0.897029   0.538747
     4  C   -0.132017  -0.172566
     5  C   -0.319156   0.516554
     6  H    0.073746  -0.023544
     7  H    0.117402  -0.010087
     8  H    0.239442  -0.001146
     9  H    0.272012  -0.014099
 Sum of Mulliken charges =  -1.00000   1.00000

 Dipole moment (field-independent basis, Debye):
    X=              1.4624    Y=              1.5897    Z=             -0.0000  Tot=              2.1601
 Quadrupole moment (field-independent basis, Debye-Ang):
   XX=            -40.8211   YY=            -43.7449   ZZ=            -41.7462
   XY=              3.5495   XZ=              0.0000   YZ=             -0.0000

  Exact polarizability:  72.089 -21.724 203.302   0.001  -0.002********
 Approx polarizability:  92.821 -18.021 248.361  -0.000  -0.000 177.418

 ******    2 imaginary frequencies (negative Signs) ******

                      1                      2                      3
                     A"                     A"                     A'
 Frequencies --   -589.2804              -263.1072               195.8726
 Red. masses --      1.3658                 1.2353                 3.8837
 Frc consts  --      0.2794                 0.0504                 0.0878
 IR Inten    --    922.9142                 6.7349                 1.4059

                      4                      5                      6
                     A"                     A"                     A'
 Frequencies --    278.5738               384.8327               431.2956
 Red. masses --      3.0811                 1.1338                 2.7698
 Frc consts  --      0.1409                 0.0989                 0.3036
 IR Inten    --    139.8773                 0.0227                19.5710

                      7                      8                      9
                     A"                     A'                     A'
 Frequencies --    480.0591               599.4255               660.6212
 Red. masses --      6.6944                 5.4792                 1.3005
 Frc consts  --      0.9090                 1.1599                 0.3344
 IR Inten    --     68.9790                 0.1592                49.9123

                     10                     11                     12
                     A'                     A'                     A'
 Frequencies --    778.5188               944.0900              1165.5794
 Red. masses --      5.6869                 1.6808                 1.6489
 Frc consts  --      2.0308                 0.8826                 1.3198
 IR Inten    --     31.9326                27.1494               254.0279

                     13                     14                     15
                     A'                     A'                     A'
 Frequencies --   1248.9353              1428.9842              1517.0565
 Red. masses --      2.6211                 1.3149                 2.8752
 Frc consts  --      2.4088                 1.5820                 3.8987
 IR Inten    --     52.3208                14.2248               137.2246

                     16                     17                     18
                     A'                     A'                     A'
 Frequencies --   2046.1408              3124.1362              3224.6463
 Red. masses --      7.2900                 1.0599                 1.1095
 Frc consts  --     17.9825                 6.0951                 6.7975
 IR Inten    --    251.8760                17.6021                24.1916

                     19                     20                     21
                     A'                     A'                     A"
 Frequencies --   3469.4110              3843.5147              8177.6499
 Red. masses --      1.1319                 1.0652                 1.1173
 Frc consts  --      8.0271                 9.2710                44.0223
 IR Inten    --     44.9494                11.9041           ************

 - Thermochemistry -
 -------------------
 Temperature   298.150 Kelvin.  Pressure   1.00000 Atm.
 Atom     1 has atomic number  8 and mass  15.99491

 Molecular mass:    68.02621 amu.
 Principal axes and moments of inertia in atomic units:
                           1         2         3
     Eigenvalues --   171.18549 453.19606 624.38155
           X            0.14454   0.98950   0.00000
           Y            0.98950  -0.14454   0.00000
           Z           -0.00000  -0.00000   1.00000
 This molecule is an asymmetric top.
 Rotational symmetry number  1.
 Rotational temperatures (Kelvin)      0.50596     0.19112     0.13872
 Rotational constants (GHZ):          10.54261     3.98225     2.89045
    2 imaginary frequencies ignored.
 Zero-point vibrational energy     203361.2 (Joules/Mol)
                                   48.60450 (Kcal/Mol)
 Warning -- explicit consideration of   6 degrees of freedom as
           vibrations may cause significant error
 Vibrational temperatures:    281.82   400.81   553.69   620.54   690.70
          (Kelvin)            862.44   950.49  1120.11  1358.33  1677.01
                             1796.94  2055.99  2182.70  2943.94  4494.93
                             4639.54  4991.70  5529.95 11765.80

 Zero-point correction=                           0.077456 (Hartree/Particle)
 Thermal correction to Energy=                    0.082612
 Thermal correction to Enthalpy=                  0.083557
 Thermal correction to Gibbs Free Energy=         0.048924
 Sum of electronic and zero-point Energies=           -229.944595
 Sum of electronic and thermal Energies=              -229.939439
 Sum of electronic and thermal Enthalpies=            -229.938495
 Sum of electronic and thermal Free Energies=         -229.973127

                     E (Thermal)             CV                S
                      KCal/Mol        Cal/Mol-Kelvin    Cal/Mol-Kelvin
 Total                   51.840             17.368             72.890
 Electronic               0.000              0.000              1.377
 Translational            0.889              2.981             38.570
 Rotational               0.889              2.981             25.386
 Vibrational             50.063             11.407              7.557
 Vibration     1          0.636              1.846              2.172
 Vibration     2          0.679              1.713              1.542
 Vibration     3          0.754              1.503              1.020
 Vibration     4          0.792              1.402              0.854
 Vibration     5          0.836              1.294              0.710
 Vibration     6          0.957              1.033              0.451

 Normal termination of Gaussian 09 at Thu Mar  7 13:16:22 2019.
