 Gaussian 09, Revision E.01,
 Gaussian 09:  EM64L-G09RevE.01 30-Nov-2015

 ------------------------------------------------------
 #p b3lyp/6-311++G(3df,2p) freq IOp(2/17=3) IOp(2/18=3)
 ------------------------------------------------------

 ---------
 b3lyp opt
 ---------
 Symbolic Z-matrix:
 Charge = -1 Multiplicity = 4

                         Standard orientation:
 ---------------------------------------------------------------------
 Center     Atomic      Atomic             Coordinates (Angstroms)
 Number     Number       Type             X           Y           Z
 ---------------------------------------------------------------------
      1          8           0       -0.468295    0.007786   -0.000000
      2          6           0        0.541479   -0.930945    0.000000
      3          6           0        0.028647   -2.350255   -0.000000
      4          6           0       -0.181418    1.274424    0.000000
      5          6           0       -0.000000    2.460554    0.000000
      6          1           0        1.558488   -0.585561    0.000000
      7          1           0        0.724334   -3.176545   -0.000000
      8          1           0       -1.033471   -2.533109   -0.000000
      9          1           0        0.164754    3.510256    0.000000
 ---------------------------------------------------------------------

 SCF Done:  E(UB3LYP) =  -229.865523212     A.U. after   28 cycles

 The electronic state is 4-A'.
 Alpha  occ. eigenvalues --  -19.11801 -10.12958 -10.12454 -10.08627 -10.06249
 Alpha  occ. eigenvalues --   -1.02924  -0.68481  -0.63347  -0.54866  -0.47110
 Alpha  occ. eigenvalues --   -0.41241  -0.37631  -0.37384  -0.32175  -0.29454
 Alpha  occ. eigenvalues --   -0.20836  -0.17615  -0.15324  -0.02802   0.05334
 Alpha virt. eigenvalues --    0.07088   0.09096   0.10183   0.12731   0.13578
 Alpha virt. eigenvalues --    0.14305   0.14749   0.15991   0.17251   0.17861
 Alpha virt. eigenvalues --    0.18711   0.19467   0.21398   0.21498   0.21830

  Beta  occ. eigenvalues --  -19.11313 -10.12513 -10.11593 -10.07192 -10.06058
  Beta  occ. eigenvalues --   -1.01839  -0.66759  -0.61479  -0.52395  -0.45508
  Beta  occ. eigenvalues --   -0.40966  -0.36222  -0.34542  -0.31145  -0.28421
  Beta  occ. eigenvalues --   -0.17406  -0.16299
  Beta virt. eigenvalues --   -0.02893   0.08336   0.09113   0.10116   0.11287
  Beta virt. eigenvalues --    0.11526   0.13094   0.14142   0.15202   0.15559
  Beta virt. eigenvalues --    0.16404   0.17910   0.19314   0.19894   0.20090

 Mulliken charges and spin densities:
               1          2
     1  O   -0.620133   0.189307
     2  C   -0.552888   1.520180
     3  C    1.338709  -0.657710
     4  C    4.706655  -4.883465
     5  C   -1.746004   1.957461
     6  H   -0.588686   0.743253
     7  H   -0.615889   0.748946
     8  H   -0.245473   0.377773
     9  H   -2.676291   3.004255
 Sum of Mulliken charges =  -1.00000   3.00000

 Dipole moment (field-independent basis, Debye):
    X=             -2.7906    Y=             -3.7777    Z=             -0.0000  Tot=              4.6966
 Quadrupole moment (field-independent basis, Debye-Ang):
   XX=            -56.2125   YY=           -113.4324   ZZ=            -50.7469
   XY=              1.9424   XZ=             -0.0000   YZ=             -0.0000

  Exact polarizability:1298.600 -48.1953877.605  -0.018  -0.156 244.118
 Approx polarizability: 721.411-488.4787033.777  -0.000   0.000 222.615

 ******    3 imaginary frequencies (negative Signs) ******

                      1                      2                      3
                     A"                     A"                     A"
 Frequencies --   -637.5790              -462.3681              -276.6954
 Red. masses --      1.1842                 1.3924                 1.1895
 Frc consts  --      0.2836                 0.1754                 0.0537
 IR Inten    --     68.4698                29.4647                68.1108

                      4                      5                      6
                     ?A                     ?A                     A'
 Frequencies --    132.6760               168.2613               367.9424
 Red. masses --      4.3940                 3.9115                 3.2619
 Frc consts  --      0.0456                 0.0652                 0.2602
 IR Inten    --     21.8257                31.4193                19.0703

                      7                      8                      9
                     A"                     A'                     A"
 Frequencies --    445.6334               540.9157               659.0890
 Red. masses --      9.3962                 7.6410                 1.1735
 Frc consts  --      1.0994                 1.3172                 0.3004
 IR Inten    --     21.3854                33.4885              1448.3065

                     10                     11                     12
                     A'                     A'                     A'
 Frequencies --    699.0516               828.9828              1057.6350
 Red. masses --      1.1848                 1.9135                 3.8802
 Frc consts  --      0.3411                 0.7748                 2.5572
 IR Inten    --   1577.4339                78.4648               593.0694

                     13                     14                     15
                     A'                     A'                     A'
 Frequencies --   1102.5777              1225.3227              1352.1966
 Red. masses --      2.5685                 3.7126                 1.3915
 Frc consts  --      1.8397                 3.2842                 1.4991
 IR Inten    --    232.3026               699.0020                66.6513

                     16                     17                     18
                     A'                     A'                     A'
 Frequencies --   1427.1163              2227.3294              3133.9101
 Red. masses --      1.3152                 6.1003                 1.0528
 Frc consts  --      1.5782                17.8308                 6.0923
 IR Inten    --    459.3774                64.1464               449.0574

                     19                     20                     21
                     A'                     A'                     A'
 Frequencies --   3258.0849              3265.0151              3420.2790
 Red. masses --      1.0934                 1.1187                 1.1653
 Frc consts  --      6.8382                 7.0261                 8.0320
 IR Inten    --    230.9286                 6.8677              2866.6488

 - Thermochemistry -
 -------------------
 Temperature   298.150 Kelvin.  Pressure   1.00000 Atm.
 Atom     1 has atomic number  8 and mass  15.99491

 Molecular mass:    68.02621 amu.
 Principal axes and moments of inertia in atomic units:
                           1         2         3
     Eigenvalues --    39.22746 709.25861 748.48607
           X           -0.05150   0.99867   0.00000
           Y            0.99867   0.05150   0.00000
           Z           -0.00000  -0.00000   1.00000
 This molecule is an asymmetric top.
 Rotational symmetry number  1.
 Rotational temperatures (Kelvin)      2.20799     0.12212     0.11572
 Rotational constants (GHZ):          46.00708     2.54455     2.41119
    3 imaginary frequencies ignored.
 Zero-point vibrational energy     151399.5 (Joules/Mol)
                                   36.18535 (Kcal/Mol)
 Warning -- explicit consideration of   5 degrees of freedom as
           vibrations may cause significant error
 Vibrational temperatures:    190.89   242.09   529.39   641.17   778.26
          (Kelvin)            948.28  1005.78  1192.72  1521.70  1586.36
                             1762.96  1945.51  2053.30  3204.63  4508.99
                             4687.65  4697.62  4921.01

 Zero-point correction=                           0.057665 (Hartree/Particle)
 Thermal correction to Energy=                    0.062988
 Thermal correction to Enthalpy=                  0.063932
 Thermal correction to Gibbs Free Energy=         0.028413
 Sum of electronic and zero-point Energies=           -229.807858
 Sum of electronic and thermal Energies=              -229.802536
 Sum of electronic and thermal Enthalpies=            -229.801591
 Sum of electronic and thermal Free Energies=         -229.837110

                     E (Thermal)             CV                S
                      KCal/Mol        Cal/Mol-Kelvin    Cal/Mol-Kelvin
 Total                   39.525             17.188             74.756
 Electronic               0.000              0.000              2.755
 Translational            0.889              2.981             38.570
 Rotational               0.889              2.981             24.547
 Vibrational             37.748             11.226              8.885
 Vibration     1          0.613              1.921              2.907
 Vibration     2          0.625              1.882              2.455
 Vibration     3          0.741              1.538              1.088
 Vibration     4          0.805              1.371              0.809
 Vibration     5          0.896              1.160              0.563

 Normal termination of Gaussian 09 at Thu Mar  7 22:49:56 2019.
