 Gaussian 09, Revision E.01,
 Gaussian 09:  EM64L-G09RevE.01 30-Nov-2015

 ------------------------------------------------------
 #p b3lyp/6-311++G(3df,2p) freq IOp(2/17=3) IOp(2/18=3)
 ------------------------------------------------------

 ---------
 b3lyp opt
 ---------
 Symbolic Z-matrix:
 Charge = -1 Multiplicity = 4

                         Standard orientation:
 ---------------------------------------------------------------------
 Center     Atomic      Atomic             Coordinates (Angstroms)
 Number     Number       Type             X           Y           Z
 ---------------------------------------------------------------------
      1          6           0        0.000000    1.110590    0.370672
      2          6           0       -0.000000   -1.110590    0.370672
      3          8           0       -0.000000    0.000000    1.232494
      4          6           0        0.000000   -0.671197   -1.018927
      5          6           0        0.000000    0.671197   -1.018927
      6          1           0        0.000000    2.083258    0.829872
      7          1           0       -0.000000   -2.083258    0.829872
      8          1           0        0.000000   -1.334669   -1.870324
      9          1           0        0.000000    1.334669   -1.870324
 ---------------------------------------------------------------------

 SCF Done:  E(UB3LYP) =  -229.955226450     A.U. after   18 cycles

 The electronic state is 4-B2.
 Alpha  occ. eigenvalues --  -19.04450 -10.11380 -10.11377 -10.06256 -10.06183
 Alpha  occ. eigenvalues --   -0.96136  -0.69217  -0.61696  -0.47360  -0.46603
 Alpha  occ. eigenvalues --   -0.41851  -0.33336  -0.32587  -0.30048  -0.27956
 Alpha  occ. eigenvalues --   -0.25446  -0.19036  -0.14548   0.00853   0.05698
 Alpha virt. eigenvalues --    0.07881   0.08866   0.10297   0.14288   0.14471
 Alpha virt. eigenvalues --    0.15295   0.17524   0.18363   0.18551   0.19028
 Alpha virt. eigenvalues --    0.19797   0.20583   0.21416   0.21608   0.21665

  Beta  occ. eigenvalues --  -19.03832 -10.10074 -10.10072 -10.06061 -10.05987
  Beta  occ. eigenvalues --   -0.94653  -0.68038  -0.58638  -0.45797  -0.44849
  Beta  occ. eigenvalues --   -0.41146  -0.31641  -0.29654  -0.28234  -0.27088
  Beta  occ. eigenvalues --   -0.24683  -0.15982
  Beta virt. eigenvalues --   -0.01005   0.08984   0.09827   0.10500   0.11886
  Beta virt. eigenvalues --    0.12566   0.14734   0.16678   0.17452   0.17992
  Beta virt. eigenvalues --    0.18934   0.19595   0.20348   0.20424   0.21177

 Mulliken charges and spin densities:
               1          2
     1  C    0.803478   0.043186
     2  C    0.803478   0.043186
     3  O   -0.631809   0.107847
     4  C    0.855731  -0.789127
     5  C    0.855731  -0.789127
     6  H   -0.820037   0.994058
     7  H   -0.820037   0.994058
     8  H   -1.023268   1.197959
     9  H   -1.023268   1.197959
 Sum of Mulliken charges =  -1.00000   3.00000

 Dipole moment (field-independent basis, Debye):
    X=             -0.0000    Y=             -0.0000    Z=              3.3889  Tot=              3.3889
 Quadrupole moment (field-independent basis, Debye-Ang):
   XX=            -50.1858   YY=            -75.3689   ZZ=            -66.8325
   XY=             -0.0000   XZ=              0.0000   YZ=              0.0000

  Exact polarizability: 205.779  -0.0003303.530  -0.000  -0.0002007.175
 Approx polarizability: 198.438   0.0003412.808  -0.000  -0.0001459.364

 ******    2 imaginary frequencies (negative Signs) ******

                      1                      2                      3
                     B1                     A2                     B1
 Frequencies --   -470.5130              -280.8541                99.5526
 Red. masses --      1.3387                 1.2251                 3.3860
 Frc consts  --      0.1746                 0.0569                 0.0198
 IR Inten    --    367.7234                 0.0000                12.8256

                      4                      5                      6
                     A2                     B1                     B2
 Frequencies --    472.2408               673.3010               695.5566
 Red. masses --      3.8833                 1.1966                 3.0579
 Frc consts  --      0.5102                 0.3196                 0.8716
 IR Inten    --      0.0000               972.6665               437.6673

                      7                      8                      9
                     A1                     B2                     A2
 Frequencies --    761.8651               769.8358               895.2451
 Red. masses --      7.1588                 7.6841                 1.2796
 Frc consts  --      2.4482                 2.6831                 0.6043
 IR Inten    --    206.0628                 2.7624                 0.0000

                     10                     11                     12
                     A1                     B2                     A1
 Frequencies --    981.5013              1030.9748              1049.7977
 Red. masses --      2.6394                 7.3356                 1.6683
 Frc consts  --      1.4981                 4.5939                 1.0832
 IR Inten    --    152.8688              1246.5711                 0.4963

                     13                     14                     15
                     A1                     B2                     B2
 Frequencies --   1114.3862              1248.1297              1295.0541
 Red. masses --      1.5682                 1.2139                 1.3712
 Frc consts  --      1.1474                 1.1142                 1.3550
 IR Inten    --    177.9559                 2.1834                69.8833

                     16                     17                     18
                     A1                     A1                     B2
 Frequencies --   1379.6455              1590.3957              3187.1515
 Red. masses --      2.0501                 5.7855                 1.0866
 Frc consts  --      2.2991                 8.6219                 6.5030
 IR Inten    --      6.3174                22.4150                14.5801

                     19                     20                     21
                     A1                     A1                     B2
 Frequencies --   3194.8567              3238.6038              3239.9193
 Red. masses --      1.1043                 1.0981                 1.0878
 Frc consts  --      6.6410                 6.7861                 6.7275
 IR Inten    --     59.4990               186.0474                 8.7667

 - Thermochemistry -
 -------------------
 Temperature   298.150 Kelvin.  Pressure   1.00000 Atm.
 Atom     1 has atomic number  6 and mass  12.00000

 Molecular mass:    68.02621 amu.
 Principal axes and moments of inertia in atomic units:
                           1         2         3
     Eigenvalues --   188.38218 217.43649 405.81868
           X            0.00000   0.00000   1.00000
           Y            0.00000   1.00000  -0.00000
           Z            1.00000  -0.00000  -0.00000
 This molecule is an asymmetric top.
 Rotational symmetry number  2.
 Rotational temperatures (Kelvin)      0.45978     0.39834     0.21343
 Rotational constants (GHZ):           9.58021     8.30008     4.44716
    2 imaginary frequencies ignored.
 Zero-point vibrational energy     161005.5 (Joules/Mol)
                                   38.48123 (Kcal/Mol)
 Warning -- explicit consideration of   2 degrees of freedom as
           vibrations may cause significant error
 Vibrational temperatures:    143.23   679.45   968.73  1000.75  1096.15
          (Kelvin)           1107.62  1288.06  1412.16  1483.34  1510.42
                             1603.35  1795.78  1863.29  1985.00  2288.22
                             4585.59  4596.68  4659.62  4661.52

 Zero-point correction=                           0.061324 (Hartree/Particle)
 Thermal correction to Energy=                    0.065771
 Thermal correction to Enthalpy=                  0.066715
 Thermal correction to Gibbs Free Energy=         0.033390
 Sum of electronic and zero-point Energies=           -229.893903
 Sum of electronic and thermal Energies=              -229.889455
 Sum of electronic and thermal Enthalpies=            -229.888511
 Sum of electronic and thermal Free Energies=         -229.921837

                     E (Thermal)             CV                S
                      KCal/Mol        Cal/Mol-Kelvin    Cal/Mol-Kelvin
 Total                   41.272             14.696             70.139
 Electronic               0.000              0.000              2.755
 Translational            0.889              2.981             38.570
 Rotational               0.889              2.981             22.945
 Vibrational             39.495              8.734              5.869
 Vibration     1          0.604              1.949              3.463
 Vibration     2          0.829              1.312              0.731

 Normal termination of Gaussian 09 at Thu Mar  7 18:01:29 2019.
