 Gaussian 09, Revision E.01,
 Gaussian 09:  EM64L-G09RevE.01 30-Nov-2015

 ------------------------------------------------------
 #p b3lyp/6-311++G(3df,2p) freq IOp(2/17=3) IOp(2/18=3)
 ------------------------------------------------------

 ---------
 b3lyp opt
 ---------
 Symbolic Z-matrix:
 Charge = -1 Multiplicity = 4

                         Standard orientation:
 ---------------------------------------------------------------------
 Center     Atomic      Atomic             Coordinates (Angstroms)
 Number     Number       Type             X           Y           Z
 ---------------------------------------------------------------------
      1          6           0       -0.459954   -1.034833   -0.000000
      2          6           0        1.196554    0.930548   -0.731436
      3          8           0       -1.695646   -1.327204   -0.000000
      4          6           0        1.196554    0.930548    0.731436
      5          6           0       -0.000000    0.477109    0.000000
      6          1           0        0.348081   -1.764612   -0.000000
      7          1           0        1.265064    1.745722    1.454566
      8          1           0        1.265064    1.745722   -1.454566
      9          1           0       -0.911959    1.070558    0.000000
 ---------------------------------------------------------------------

 SCF Done:  E(UB3LYP) =  -229.908750666     A.U. after   20 cycles

 The electronic state is 4-A'.
 Alpha  occ. eigenvalues --  -18.91664 -10.02631 -10.02278 -10.02037 -10.02009
 Alpha  occ. eigenvalues --   -0.81856  -0.70094  -0.47266  -0.41010  -0.37837
 Alpha  occ. eigenvalues --   -0.33735  -0.25670  -0.24088  -0.20593  -0.15945
 Alpha  occ. eigenvalues --   -0.14711  -0.12692  -0.07052  -0.00679   0.07170
 Alpha virt. eigenvalues --    0.10297   0.11572   0.13432   0.13878   0.18483
 Alpha virt. eigenvalues --    0.18807   0.18868   0.19338   0.21251   0.23237
 Alpha virt. eigenvalues --    0.23287   0.24277   0.24682   0.24852   0.25681

  Beta  occ. eigenvalues --  -18.90302 -10.02263 -10.01623 -10.00720 -10.00690
  Beta  occ. eigenvalues --   -0.79153  -0.68153  -0.44203  -0.37957  -0.35850
  Beta  occ. eigenvalues --   -0.32387  -0.22804  -0.22203  -0.17019  -0.14185
  Beta  occ. eigenvalues --   -0.11424  -0.05672
  Beta virt. eigenvalues --    0.02949   0.10577   0.11611   0.12439   0.13485
  Beta virt. eigenvalues --    0.13823   0.18409   0.18425   0.18796   0.19329
  Beta virt. eigenvalues --    0.20594   0.22447   0.23463   0.23739   0.24341

 Mulliken charges and spin densities:
               1          2
     1  C   -0.194481   0.901971
     2  C   -0.210912   0.724435
     3  O   -0.677816   0.426590
     4  C   -0.210912   0.724435
     5  C    0.297410  -0.384566
     6  H    0.135334   0.043461
     7  H   -0.147491   0.260564
     8  H   -0.147491   0.260564
     9  H    0.156360   0.042545
 Sum of Mulliken charges =  -1.00000   3.00000

 Dipole moment (field-independent basis, Debye):
    X=              0.4786    Y=              1.8521    Z=             -0.0000  Tot=              1.9130
 Quadrupole moment (field-independent basis, Debye-Ang):
   XX=            -49.6424   YY=            -42.3880   ZZ=            -42.5666
   XY=             -9.2811   XZ=              0.0000   YZ=              0.0000

  Exact polarizability: 141.710  99.289 255.106  -0.000  -0.0007063.571
 Approx polarizability: 254.202 173.075 308.808  -0.000   0.000 289.610

 ******    2 imaginary frequencies (negative Signs) ******

                      1                      2                      3
                     A"                     A"                     A"
 Frequencies --   -590.2711              -335.2285               254.3346
 Red. masses --      1.1936                 9.8181                 3.0297
 Frc consts  --      0.2450                 0.6501                 0.1155
 IR Inten    -- 116568.2645             16753.8389              1234.0381

                      4                      5                      6
                     A'                     A'                     A"
 Frequencies --    319.7803               406.6585               482.5395
 Red. masses --      3.9504                 7.9240                 1.1171
 Frc consts  --      0.2380                 0.7721                 0.1533
 IR Inten    --     75.4983                48.3480             36935.1308

                      7                      8                      9
                     A'                     A'                     A"
 Frequencies --    682.7096               698.9349               805.6838
 Red. masses --      3.4424                 1.1247                 6.1192
 Frc consts  --      0.9453                 0.3237                 2.3403
 IR Inten    --    141.8269               252.3127               168.7311

                     10                     11                     12
                     A'                     A"                     A"
 Frequencies --    888.0032               974.0876              1017.9812
 Red. masses --      2.0209                 1.2642                 1.3176
 Frc consts  --      0.9389                 0.7067                 0.8045
 IR Inten    --      7.7622             11057.6645              9116.7282

                     13                     14                     15
                     A'                     A'                     A'
 Frequencies --   1052.7001              1207.6227              1218.8580
 Red. masses --      2.6874                 1.1519                 1.4441
 Frc consts  --      1.7547                 0.9897                 1.2640
 IR Inten    --     44.8299                42.5703               583.9687

                     16                     17                     18
                     A'                     A'                     A"
 Frequencies --   1261.5854              1327.5384              2731.5570
 Red. masses --      3.9265                 4.3950                 1.1285
 Frc consts  --      3.6821                 4.5636                 4.9611
 IR Inten    --    234.4216              2211.1929            363764.0373

                     19                     20                     21
                     A'                     A'                     A'
 Frequencies --   3027.6275              3057.3573              3066.1121
 Red. masses --      1.0897                 1.0798                 1.0885
 Frc consts  --      5.8851                 5.9469                 6.0293
 IR Inten    --    143.3950                60.2329                25.1155

 - Thermochemistry -
 -------------------
 Temperature   298.150 Kelvin.  Pressure   1.00000 Atm.
 Atom     1 has atomic number  6 and mass  12.00000

 Molecular mass:    68.02621 amu.
 Principal axes and moments of inertia in atomic units:
                           1         2         3
     Eigenvalues --    94.94258 578.09147 605.31224
           X            0.73657   0.00000  -0.67636
           Y            0.67636   0.00000   0.73657
           Z           -0.00000   1.00000   0.00000
 This molecule is an asymmetric top.
 Rotational symmetry number  1.
 Rotational temperatures (Kelvin)      0.91228     0.14983     0.14309
 Rotational constants (GHZ):          19.00877     3.12190     2.98150
    2 imaginary frequencies ignored.
 Zero-point vibrational energy     146432.9 (Joules/Mol)
                                   34.99831 (Kcal/Mol)
 Warning -- explicit consideration of   4 degrees of freedom as
           vibrations may cause significant error
 Vibrational temperatures:    365.93   460.09   585.09   694.27   982.27
          (Kelvin)           1005.61  1159.20  1277.64  1401.49  1464.65
                             1514.60  1737.50  1753.66  1815.14  1910.03
                             3930.10  4356.08  4398.85  4411.45

 Zero-point correction=                           0.055773 (Hartree/Particle)
 Thermal correction to Energy=                    0.060549
 Thermal correction to Enthalpy=                  0.061493
 Thermal correction to Gibbs Free Energy=         0.027106
 Sum of electronic and zero-point Energies=           -229.852977
 Sum of electronic and thermal Energies=              -229.848202
 Sum of electronic and thermal Enthalpies=            -229.847258
 Sum of electronic and thermal Free Energies=         -229.881645

                     E (Thermal)             CV                S
                      KCal/Mol        Cal/Mol-Kelvin    Cal/Mol-Kelvin
 Total                   37.995             16.734             72.374
 Electronic               0.000              0.000              2.755
 Translational            0.889              2.981             38.570
 Rotational               0.889              2.981             25.011
 Vibrational             36.217             10.772              6.038
 Vibration     1          0.665              1.755              1.700
 Vibration     2          0.706              1.636              1.311
 Vibration     3          0.771              1.456              0.939
 Vibration     4          0.839              1.289              0.703

 Normal termination of Gaussian 09 at Fri Mar  8 03:19:24 2019.
