 Gaussian 09, Revision E.01,
 Gaussian 09:  EM64L-G09RevE.01 30-Nov-2015

 ------------------------------------------------------
 #p b3lyp/6-311++G(3df,2p) freq IOp(2/17=3) IOp(2/18=3)
 ------------------------------------------------------

 ---------
 b3lyp opt
 ---------
 Symbolic Z-matrix:
 Charge = -1 Multiplicity = 2

                         Standard orientation:
 ---------------------------------------------------------------------
 Center     Atomic      Atomic             Coordinates (Angstroms)
 Number     Number       Type             X           Y           Z
 ---------------------------------------------------------------------
      1          8           0        1.847497   -0.010473   -0.000072
      2          6           0       -0.510376   -1.054294    0.000074
      3          6           0        0.600597    0.062558    0.000083
      4          6           0       -1.484184    0.124254   -0.000369
      5          6           0       -0.413126    1.056559    0.000077
      6          1           0       -0.504708   -1.692677    0.892599
      7          1           0       -0.504447   -1.693233   -0.892050
      8          1           0       -2.560410    0.192962    0.000584
      9          1           0       -0.367877    2.142273    0.000252
 ---------------------------------------------------------------------

 SCF Done:  E(UB3LYP) =  -230.073461254     A.U. after   18 cycles

 The electronic state is 2-A.
 Alpha  occ. eigenvalues --  -18.88425 -10.02560  -9.98787  -9.97601  -9.96594
 Alpha  occ. eigenvalues --   -0.79975  -0.65000  -0.46813  -0.41110  -0.32493
 Alpha  occ. eigenvalues --   -0.26414  -0.25859  -0.22013  -0.17109  -0.16130
 Alpha  occ. eigenvalues --   -0.15764  -0.07804  -0.04079   0.06722
 Alpha virt. eigenvalues --    0.11207   0.12707   0.13198   0.14139   0.18082
 Alpha virt. eigenvalues --    0.20709   0.20790   0.21077   0.21978   0.23155
 Alpha virt. eigenvalues --    0.23848   0.24021   0.24550   0.25053   0.26431

  Beta  occ. eigenvalues --  -18.87952 -10.02272  -9.98842  -9.96778  -9.96526
  Beta  occ. eigenvalues --   -0.79102  -0.64145  -0.46623  -0.39214  -0.32283
  Beta  occ. eigenvalues --   -0.25688  -0.24997  -0.21665  -0.16650  -0.15432
  Beta  occ. eigenvalues --   -0.14094  -0.04771  -0.03701
  Beta virt. eigenvalues --    0.11215   0.12678   0.13120   0.13834   0.15777
  Beta virt. eigenvalues --    0.18055   0.20594   0.21125   0.21224   0.23197
  Beta virt. eigenvalues --    0.23477   0.23984   0.24104   0.24578   0.25164

 Mulliken charges and spin densities:
               1          2
     1  O   -0.855436   0.152967
     2  C   -0.017494  -0.186253
     3  C   -0.010434   0.213239
     4  C   -0.658626   0.854975
     5  C    0.189862  -0.030414
     6  H    0.027859   0.025281
     7  H    0.027480   0.025660
     8  H    0.168058  -0.046808
     9  H    0.128730  -0.008647
 Sum of Mulliken charges =  -1.00000   1.00000

 Dipole moment (field-independent basis, Debye):
    X=             -2.0637    Y=             -0.4705    Z=              0.0025  Tot=              2.1167
 Quadrupole moment (field-independent basis, Debye-Ang):
   XX=            -49.9430   YY=            -36.0244   ZZ=            -36.5372
   XY=              0.2594   XZ=             -0.0053   YZ=             -0.0007

  Exact polarizability: 103.318   3.728  79.685  -0.046   0.056 119.600
 Approx polarizability: 141.223   0.272 105.991   0.007   0.037  97.599

 ******    1 imaginary frequencies (negative Signs) ******

                      1                      2                      3
                      A                      A                      A
 Frequencies --   -399.9772               287.0207               442.3033
 Red. masses --      1.4366                 2.4946                 4.2124
 Frc consts  --      0.1354                 0.1211                 0.4855
 IR Inten    --    133.4342                 1.8474                 1.8319

                      4                      5                      6
                      A                      A                      A
 Frequencies --    449.2552               699.8692               731.2355
 Red. masses --      1.6349                 4.7121                 1.6298
 Frc consts  --      0.1944                 1.3599                 0.5134
 IR Inten    --      1.5378                22.6353                46.7574

                      7                      8                      9
                      A                      A                      A
 Frequencies --    836.8146               933.5609               962.2071
 Red. masses --      4.5549                 1.6512                 1.7679
 Frc consts  --      1.8792                 0.8479                 0.9643
 IR Inten    --      5.8642                19.2158                 4.0124

                     10                     11                     12
                      A                      A                      A
 Frequencies --   1012.9525              1031.6129              1090.6242
 Red. masses --      2.0500                 1.0999                 2.5943
 Frc consts  --      1.2393                 0.6897                 1.8181
 IR Inten    --      0.9472                 1.8401                 4.1081

                     13                     14                     15
                      A                      A                      A
 Frequencies --   1142.1977              1282.9997              1331.5843
 Red. masses --      1.5994                 2.3817                 2.9910
 Frc consts  --      1.2294                 2.3099                 3.1246
 IR Inten    --      7.0993                 8.9693                24.8893

                     16                     17                     18
                      A                      A                      A
 Frequencies --   1454.9487              1641.0716              2957.7062
 Red. masses --      1.1435                10.6625                 1.0530
 Frc consts  --      1.4262                16.9186                 5.4274
 IR Inten    --      0.4072               903.3441               141.6695

                     19                     20                     21
                      A                      A                      A
 Frequencies --   2985.6706              3108.2429              3211.3878
 Red. masses --      1.1054                 1.0905                 1.0961
 Frc consts  --      5.8056                 6.2074                 6.6604
 IR Inten    --      9.3673                91.5938                37.2881

 - Thermochemistry -
 -------------------
 Temperature   298.150 Kelvin.  Pressure   1.00000 Atm.
 Atom     1 has atomic number  8 and mass  15.99491

 Molecular mass:    68.02621 amu.
 Principal axes and moments of inertia in atomic units:
                           1         2         3
     Eigenvalues --   139.24704 354.15251 481.93679
           X            0.99997   0.00802  -0.00002
           Y           -0.00802   0.99997   0.00001
           Z            0.00002  -0.00000   1.00000
 This molecule is an asymmetric top.
 Rotational symmetry number  1.
 Rotational temperatures (Kelvin)      0.62202     0.24457     0.17972
 Rotational constants (GHZ):          12.96071     5.09594     3.74477
    1 imaginary frequencies ignored.
 Zero-point vibrational energy     165044.4 (Joules/Mol)
                                   39.44655 (Kcal/Mol)
 Warning -- explicit consideration of   3 degrees of freedom as
           vibrations may cause significant error
 Vibrational temperatures:    412.96   636.37   646.38  1006.95  1052.08
          (Kelvin)           1203.99  1343.18  1384.40  1457.41  1484.26
                             1569.16  1643.37  1845.95  1915.85  2093.34
                             2361.13  4255.47  4295.71  4472.06  4620.46

 Zero-point correction=                           0.062862 (Hartree/Particle)
 Thermal correction to Energy=                    0.067183
 Thermal correction to Enthalpy=                  0.068127
 Thermal correction to Gibbs Free Energy=         0.035303
 Sum of electronic and zero-point Energies=           -230.010599
 Sum of electronic and thermal Energies=              -230.006278
 Sum of electronic and thermal Enthalpies=            -230.005334
 Sum of electronic and thermal Free Energies=         -230.038158

                     E (Thermal)             CV                S
                      KCal/Mol        Cal/Mol-Kelvin    Cal/Mol-Kelvin
 Total                   42.158             15.133             69.084
 Electronic               0.000              0.000              1.377
 Translational            0.889              2.981             38.570
 Rotational               0.889              2.981             24.678
 Vibrational             40.381              9.171              4.459
 Vibration     1          0.684              1.698              1.491
 Vibration     2          0.802              1.378              0.819
 Vibration     3          0.808              1.363              0.798

 Optimization completed.
    -- Stationary point found.
 Normal termination of Gaussian 09 at Thu Mar  7 13:35:10 2019.
