 Gaussian 09, Revision E.01,
 Gaussian 09:  EM64L-G09RevE.01 30-Nov-2015

 ------------------------------------------------------
 #p b3lyp/6-311++G(3df,2p) freq IOp(2/17=3) IOp(2/18=3)
 ------------------------------------------------------

 ---------
 b3lyp opt
 ---------
 Symbolic Z-matrix:
 Charge = -1 Multiplicity = 2

                         Standard orientation:
 ---------------------------------------------------------------------
 Center     Atomic      Atomic             Coordinates (Angstroms)
 Number     Number       Type             X           Y           Z
 ---------------------------------------------------------------------
      1          6           0       -2.456440   -0.299214   -0.071754
      2          6           0        1.102277   -0.408951    0.096744
      3          8           0        2.292957   -0.129471   -0.141339
      4          6           0        0.019843    0.655420    0.077496
      5          6           0       -1.335040    0.131617   -0.015140
      6          1           0       -3.446843   -0.679654   -0.125505
      7          1           0        0.802628   -1.390124    0.498390
      8          1           0        0.098299    1.298535    0.989702
      9          1           0        0.218413    1.333785   -0.755946
 ---------------------------------------------------------------------

 SCF Done:  E(UB3LYP) =  -230.042753772     A.U. after   30 cycles

 The electronic state is 2-A.
 Alpha  occ. eigenvalues --  -18.93966 -10.07281 -10.05587 -10.04571 -10.02951
 Alpha  occ. eigenvalues --   -0.85460  -0.65688  -0.58164  -0.43718  -0.40206
 Alpha  occ. eigenvalues --   -0.34093  -0.31118  -0.28368  -0.25807  -0.20638
 Alpha  occ. eigenvalues --   -0.15250  -0.14361  -0.09510   0.05824
 Alpha virt. eigenvalues --    0.07871   0.10428   0.12433   0.12712   0.15007
 Alpha virt. eigenvalues --    0.15411   0.16023   0.18380   0.19157   0.19372
 Alpha virt. eigenvalues --    0.19930   0.20563   0.21016   0.22452   0.24029

  Beta  occ. eigenvalues --  -18.93511 -10.06810 -10.05618 -10.04566 -10.02922
  Beta  occ. eigenvalues --   -0.84565  -0.65528  -0.57966  -0.42677  -0.40033
  Beta  occ. eigenvalues --   -0.33933  -0.30476  -0.28035  -0.25348  -0.18200
  Beta  occ. eigenvalues --   -0.15135  -0.14175  -0.09154
  Beta virt. eigenvalues --    0.09101   0.10806   0.12221   0.12466   0.13471
  Beta virt. eigenvalues --    0.15059   0.15519   0.16114   0.18454   0.19188
  Beta virt. eigenvalues --    0.19742   0.20466   0.20633   0.21155   0.22624

 Mulliken charges and spin densities:
               1          2
     1  C   -7.441118   7.793111
     2  C   -0.048691   0.428972
     3  O   -0.735541   0.149902
     4  C    2.492359  -2.969993
     5  C    6.767219  -7.120471
     6  H   -2.012745   2.315162
     7  H    0.135159  -0.064652
     8  H   -0.342143   0.506354
     9  H    0.185501  -0.038385
 Sum of Mulliken charges =  -1.00000   1.00000

 Dipole moment (field-independent basis, Debye):
    X=              3.1351    Y=              0.6319    Z=             -0.2706  Tot=              3.2096
 Quadrupole moment (field-independent basis, Debye-Ang):
   XX=            -86.3533   YY=            -44.6848   ZZ=            -43.3491
   XY=             -3.6412   XZ=              1.2659   YZ=             -3.7654

  Exact polarizability:1385.017 493.459 572.003 252.466 253.281 312.603
 Approx polarizability:2821.726 459.884 385.623 140.584 141.625 224.769

 ******    1 imaginary frequencies (negative Signs) ******

                      1                      2                      3
                      A                      A                      A
 Frequencies --   -176.6165               150.3397               333.3770
 Red. masses --      4.4844                 3.0906                 2.8081
 Frc consts  --      0.0824                 0.0412                 0.1839
 IR Inten    --     11.2537                45.5720                84.4270

                      4                      5                      6
                      A                      A                      A
 Frequencies --    446.2370               488.8426               575.1386
 Red. masses --      3.8164                 4.2382                 1.5362
 Frc consts  --      0.4477                 0.5967                 0.2994
 IR Inten    --     44.2673               172.3090              1806.1602

                      7                      8                      9
                      A                      A                      A
 Frequencies --    676.9671               764.2704               861.0342
 Red. masses --      1.2375                 1.3760                 2.1120
 Frc consts  --      0.3341                 0.4735                 0.9225
 IR Inten    --    628.2780               595.6659              2093.2851

                     10                     11                     12
                      A                      A                      A
 Frequencies --    961.5162              1018.7665              1151.3310
 Red. masses --      3.0346                 4.1790                 1.1606
 Frc consts  --      1.6530                 2.5555                 0.9064
 IR Inten    --    170.2168               368.9691              1057.1371

                     13                     14                     15
                      A                      A                      A
 Frequencies --   1253.4171              1327.6742              1429.6265
 Red. masses --      1.4248                 1.4225                 1.1083
 Frc consts  --      1.3189                 1.4773                 1.3346
 IR Inten    --   2196.4682              1582.0360              1072.8200

                     16                     17                     18
                      A                      A                      A
 Frequencies --   1504.1872              2191.0559              2654.5200
 Red. masses --      3.3675                 6.0232                 1.0747
 Frc consts  --      4.4891                17.0367                 4.4620
 IR Inten    --   6327.8423               198.3322             15402.4283

                     19                     20                     21
                      A                      A                      A
 Frequencies --   2929.0317              3016.6848              3436.8134
 Red. masses --      1.0816                 1.0793                 1.1582
 Frc consts  --      5.4671                 5.7870                 8.0605
 IR Inten    --     82.8445               232.0949              2003.4034

 - Thermochemistry -
 -------------------
 Temperature   298.150 Kelvin.  Pressure   1.00000 Atm.
 Atom     1 has atomic number  6 and mass  12.00000

 Molecular mass:    68.02621 amu.
 Principal axes and moments of inertia in atomic units:
                           1         2         3
     Eigenvalues --    60.66901 740.92016 784.58000
           X            0.99996   0.00856   0.00343
           Y           -0.00847   0.99963  -0.02595
           Z           -0.00365   0.02592   0.99966
 This molecule is an asymmetric top.
 Rotational symmetry number  1.
 Rotational temperatures (Kelvin)      1.42764     0.11690     0.11040
 Rotational constants (GHZ):          29.74733     2.43581     2.30026
    1 imaginary frequencies ignored.
 Zero-point vibrational energy     162517.7 (Joules/Mol)
                                   38.84265 (Kcal/Mol)
 Warning -- explicit consideration of   5 degrees of freedom as
           vibrations may cause significant error
 Vibrational temperatures:    216.31   479.65   642.03   703.33   827.50
          (Kelvin)            974.00  1099.61  1238.83  1383.41  1465.78
                             1656.51  1803.39  1910.22  2056.91  2164.19
                             3152.44  3819.26  4214.22  4340.33  4944.80

 Zero-point correction=                           0.061900 (Hartree/Particle)
 Thermal correction to Energy=                    0.066835
 Thermal correction to Enthalpy=                  0.067780
 Thermal correction to Gibbs Free Energy=         0.033577
 Sum of electronic and zero-point Energies=           -229.980854
 Sum of electronic and thermal Energies=              -229.975918
 Sum of electronic and thermal Enthalpies=            -229.974974
 Sum of electronic and thermal Free Energies=         -230.009177

                     E (Thermal)             CV                S
                      KCal/Mol        Cal/Mol-Kelvin    Cal/Mol-Kelvin
 Total                   41.940             16.844             71.985
 Electronic               0.000              0.000              1.377
 Translational            0.889              2.981             38.570
 Rotational               0.889              2.981             25.070
 Vibrational             40.162             10.882              6.968
 Vibration     1          0.618              1.902              2.668
 Vibration     2          0.715              1.609              1.244
 Vibration     3          0.805              1.369              0.807
 Vibration     4          0.845              1.275              0.687
 Vibration     5          0.931              1.085              0.494

 Normal termination of Gaussian 09 at Thu Mar  7 16:45:00 2019.
