 Gaussian 09, Revision E.01,
 Gaussian 09:  EM64L-G09RevE.01 30-Nov-2015

 ------------------------------------------------------
 #p b3lyp/6-311++G(3df,2p) freq IOp(2/17=3) IOp(2/18=3)
 ------------------------------------------------------

 ---------
 b3lyp opt
 ---------
 Symbolic Z-matrix:
 Charge = -1 Multiplicity = 2

                         Standard orientation:
 ---------------------------------------------------------------------
 Center     Atomic      Atomic             Coordinates (Angstroms)
 Number     Number       Type             X           Y           Z
 ---------------------------------------------------------------------
      1          6           0       -1.219947    1.101226    0.001020
      2          6           0       -0.402652   -0.196490    0.011140
      3          8           0       -1.020689   -1.310441   -0.000450
      4          6           0        0.978202   -0.046798    0.037226
      5          6           0        2.206355    0.135916   -0.128054
      6          1           0       -2.279668    0.842335   -0.017581
      7          1           0       -0.990733    1.716763   -0.876913
      8          1           0       -1.024750    1.720198    0.883294
      9          1           0        3.088917    0.241110    0.486804
 ---------------------------------------------------------------------

 SCF Done:  E(UB3LYP) =  -230.072207247     A.U. after   21 cycles

 The electronic state is 2-A.
 Alpha  occ. eigenvalues --  -18.89063 -10.04223 -10.00405  -9.97832  -9.97303
 Alpha  occ. eigenvalues --   -0.80377  -0.58703  -0.54479  -0.44396  -0.31118
 Alpha  occ. eigenvalues --   -0.28044  -0.26492  -0.24250  -0.21462  -0.17726
 Alpha  occ. eigenvalues --   -0.10470  -0.08636  -0.05809   0.04088
 Alpha virt. eigenvalues --    0.10867   0.11988   0.14245   0.14431   0.17241
 Alpha virt. eigenvalues --    0.18146   0.18302   0.21074   0.21238   0.21874
 Alpha virt. eigenvalues --    0.22769   0.23165   0.24041   0.24484   0.25748

  Beta  occ. eigenvalues --  -18.88310 -10.03841 -10.00438  -9.97760  -9.96776
  Beta  occ. eigenvalues --   -0.78996  -0.57920  -0.54103  -0.43099  -0.30303
  Beta  occ. eigenvalues --   -0.27619  -0.25835  -0.23971  -0.20875  -0.14707
  Beta  occ. eigenvalues --   -0.08300  -0.07038  -0.05116
  Beta virt. eigenvalues --    0.10847   0.12038   0.12415   0.14370   0.14541
  Beta virt. eigenvalues --    0.17342   0.18179   0.19044   0.21071   0.21514
  Beta virt. eigenvalues --    0.22041   0.22871   0.23550   0.24061   0.24934

 Mulliken charges and spin densities:
               1          2
     1  C   -0.374120  -0.024381
     2  C   -0.072040   0.316557
     3  O   -0.837518   0.265754
     4  C    0.521950  -0.026797
     5  C   -0.705636   0.400014
     6  H    0.118411  -0.001185
     7  H    0.087240   0.030768
     8  H    0.115761   0.004182
     9  H    0.145953   0.035089
 Sum of Mulliken charges =  -1.00000   1.00000

 Dipole moment (field-independent basis, Debye):
    X=             -1.6022    Y=              2.8934    Z=              1.0281  Tot=              3.4634
 Quadrupole moment (field-independent basis, Debye-Ang):
   XX=            -47.5092   YY=            -41.8817   ZZ=            -35.5837
   XY=             -4.0092   XZ=              3.1837   YZ=              0.3474

  Exact polarizability: 128.954   4.960  70.448  -4.691  -3.512  67.973
 Approx polarizability: 180.374  19.898  95.416  -9.272  -3.981  81.810

 ******    1 imaginary frequencies (negative Signs) ******

                      1                      2                      3
                      A                      A                      A
 Frequencies --   -145.8094               186.1473               252.1184
 Red. masses --      1.0547                 3.9067                 3.8834
 Frc consts  --      0.0132                 0.0798                 0.1454
 IR Inten    --      0.7064                 3.3591                 2.2972

                      4                      5                      6
                      A                      A                      A
 Frequencies --    440.1669               509.4392               611.5549
 Red. masses --      3.7258                 3.5091                 1.4351
 Frc consts  --      0.4253                 0.5366                 0.3162
 IR Inten    --      2.3990                 8.8264                35.8534

                      7                      8                      9
                      A                      A                      A
 Frequencies --    620.4728               641.1618               764.8668
 Red. masses --      3.9716                 1.3311                 4.9385
 Frc consts  --      0.9009                 0.3224                 1.7022
 IR Inten    --     35.5962               284.0378                 3.8087

                     10                     11                     12
                      A                      A                      A
 Frequencies --    974.4548               994.9122              1180.5211
 Red. masses --      1.5808                 1.4395                 6.6661
 Frc consts  --      0.8844                 0.8395                 5.4736
 IR Inten    --     41.7398                 0.2190                63.4628

                     13                     14                     15
                      A                      A                      A
 Frequencies --   1349.7590              1448.8800              1471.0554
 Red. masses --      1.2284                 1.9759                 1.0531
 Frc consts  --      1.3186                 2.4439                 1.3427
 IR Inten    --     11.2496               280.3157                 3.2720

                     16                     17                     18
                      A                      A                      A
 Frequencies --   1498.2383              1961.4296              2969.1819
 Red. masses --      1.7941                 7.8633                 1.0384
 Frc consts  --      2.3728                17.8238                 5.3936
 IR Inten    --    200.1854                45.5763               124.3072

                     19                     20                     21
                      A                      A                      A
 Frequencies --   3003.7685              3071.4915              3146.0585
 Red. masses --      1.0986                 1.0972                 1.1152
 Frc consts  --      5.8400                 6.0986                 6.5034
 IR Inten    --    108.4187                34.2848               184.6839

 - Thermochemistry -
 -------------------
 Temperature   298.150 Kelvin.  Pressure   1.00000 Atm.
 Atom     1 has atomic number  6 and mass  12.00000

 Molecular mass:    68.02621 amu.
 Principal axes and moments of inertia in atomic units:
                           1         2         3
     Eigenvalues --   181.63253 448.35703 615.75049
           X            0.99795  -0.06275   0.01219
           Y            0.06274   0.99803   0.00190
           Z           -0.01229  -0.00113   0.99992
 This molecule is an asymmetric top.
 Rotational symmetry number  1.
 Rotational temperatures (Kelvin)      0.47686     0.19318     0.14066
 Rotational constants (GHZ):           9.93622     4.02523     2.93096
    1 imaginary frequencies ignored.
 Zero-point vibrational energy     162068.1 (Joules/Mol)
                                   38.73522 (Kcal/Mol)
 Warning -- explicit consideration of   6 degrees of freedom as
           vibrations may cause significant error
 Vibrational temperatures:    267.82   362.74   633.30   732.97   879.89
          (Kelvin)            892.72   922.49  1100.47  1402.02  1431.45
                             1698.50  1942.00  2084.61  2116.52  2155.63
                             2822.06  4271.99  4321.75  4419.19  4526.47

 Zero-point correction=                           0.061728 (Hartree/Particle)
 Thermal correction to Energy=                    0.066770
 Thermal correction to Enthalpy=                  0.067714
 Thermal correction to Gibbs Free Energy=         0.033227
 Sum of electronic and zero-point Energies=           -230.010479
 Sum of electronic and thermal Energies=              -230.005437
 Sum of electronic and thermal Enthalpies=            -230.004493
 Sum of electronic and thermal Free Energies=         -230.038980

                     E (Thermal)             CV                S
                      KCal/Mol        Cal/Mol-Kelvin    Cal/Mol-Kelvin
 Total                   41.899             17.238             72.585
 Electronic               0.000              0.000              1.377
 Translational            0.889              2.981             38.570
 Rotational               0.889              2.981             25.420
 Vibrational             40.121             11.277              7.218
 Vibration     1          0.632              1.859              2.266
 Vibration     2          0.664              1.759              1.716
 Vibration     3          0.800              1.383              0.826
 Vibration     4          0.865              1.229              0.635
 Vibration     5          0.971              1.007              0.430
 Vibration     6          0.981              0.989              0.416

 Normal termination of Gaussian 09 at Thu Mar  7 15:49:40 2019.
