 Gaussian 09, Revision E.01,
 Gaussian 09:  EM64L-G09RevE.01 30-Nov-2015

 ------------------------------------------------------
 #p b3lyp/6-311++G(3df,2p) freq IOp(2/17=3) IOp(2/18=3)
 ------------------------------------------------------

 ---------
 b3lyp opt
 ---------
 Symbolic Z-matrix:
 Charge = -1 Multiplicity = 2

                         Standard orientation:
 ---------------------------------------------------------------------
 Center     Atomic      Atomic             Coordinates (Angstroms)
 Number     Number       Type             X           Y           Z
 ---------------------------------------------------------------------
      1          6           0       -0.782041    2.142133    0.000000
      2          6           0        0.544452   -1.348823    0.000000
      3          8           0       -0.591278   -1.893659    0.000000
      4          6           0        0.849704    0.042205    0.000000
      5          6           0        0.000000    1.101497    0.000000
      6          1           0       -1.154976    2.618916    0.918635
      7          1           0        1.454755   -1.989419    0.000000
      8          1           0        1.912734    0.278782    0.000000
      9          1           0       -1.154976    2.618916   -0.918635
 ---------------------------------------------------------------------

 SCF Done:  E(UB3LYP) =  -230.076903404     A.U. after   18 cycles

 The electronic state is 2-A".
 Alpha  occ. eigenvalues --  -18.88386 -10.02661 -10.00618  -9.99912  -9.98971
 Alpha  occ. eigenvalues --   -0.79787  -0.61181  -0.54337  -0.42208  -0.32887
 Alpha  occ. eigenvalues --   -0.28843  -0.27259  -0.25674  -0.20295  -0.18626
 Alpha  occ. eigenvalues --   -0.10205  -0.08825  -0.04906   0.05397
 Alpha virt. eigenvalues --    0.10740   0.11739   0.12885   0.14044   0.16116
 Alpha virt. eigenvalues --    0.17958   0.19975   0.20328   0.20734   0.21718
 Alpha virt. eigenvalues --    0.22997   0.23858   0.24815   0.25054   0.25864

  Beta  occ. eigenvalues --  -18.87769 -10.02312 -10.00752  -9.99156  -9.99028
  Beta  occ. eigenvalues --   -0.78642  -0.60107  -0.53835  -0.41105  -0.32118
  Beta  occ. eigenvalues --   -0.28577  -0.26186  -0.25191  -0.19746  -0.15811
  Beta  occ. eigenvalues --   -0.09947  -0.06030  -0.04390
  Beta virt. eigenvalues --    0.10758   0.11746   0.12517   0.13999   0.14313
  Beta virt. eigenvalues --    0.16378   0.17864   0.19889   0.20614   0.20655
  Beta virt. eigenvalues --    0.22476   0.22951   0.24079   0.24860   0.25071

 Mulliken charges and spin densities:
               1          2
     1  C   -0.893170  -0.110234
     2  C   -0.072925   0.260947
     3  O   -0.798968   0.208357
     4  C    0.208128   0.043192
     5  C    0.310987   0.473207
     6  H    0.073683   0.074357
     7  H    0.016968  -0.022295
     8  H    0.081614  -0.001888
     9  H    0.073683   0.074357
 Sum of Mulliken charges =  -1.00000   1.00000

 Dipole moment (field-independent basis, Debye):
    X=              1.6515    Y=              2.3795    Z=              0.0000  Tot=              2.8965
 Quadrupole moment (field-independent basis, Debye-Ang):
   XX=            -37.9709   YY=            -51.6713   ZZ=            -35.9304
   XY=             -1.7389   XZ=              0.0000   YZ=              0.0000

  Exact polarizability:  88.919 -40.184 150.562  -0.000   0.000  89.947
 Approx polarizability: 120.517 -41.511 190.761   0.000  -0.000  90.205

 ******    1 imaginary frequencies (negative Signs) ******

                      1                      2                      3
                     A"                     A'                     A"
 Frequencies --   -243.1651               152.0674               237.5892
 Red. masses --      3.7058                 5.1140                 1.0643
 Frc consts  --      0.1291                 0.0697                 0.0354
 IR Inten    --     13.9255                 2.3633                 5.2591

                      4                      5                      6
                     A"                     A'                     A"
 Frequencies --    390.9565               403.1280               638.3843
 Red. masses --      2.3855                 6.2331                 1.2804
 Frc consts  --      0.2148                 0.5968                 0.3074
 IR Inten    --     26.5397                 3.3679                36.4706

                      7                      8                      9
                     A'                     A"                     A'
 Frequencies --    779.6128               817.8813               854.8502
 Red. masses --      5.9595                 1.5128                 1.3615
 Frc consts  --      2.1341                 0.5962                 0.5862
 IR Inten    --     23.5106                 1.6023                28.4605

                     10                     11                     12
                     A'                     A"                     A'
 Frequencies --    912.1203              1018.0804              1078.9967
 Red. masses --      4.7787                 1.3161                 1.8029
 Frc consts  --      2.3424                 0.8037                 1.2367
 IR Inten    --      0.0178                 0.1567                41.1355

                     13                     14                     15
                     A'                     A'                     A'
 Frequencies --   1351.6352              1374.2022              1470.2428
 Red. masses --      1.6154                 1.3974                 1.2369
 Frc consts  --      1.7388                 1.5548                 1.5753
 IR Inten    --     43.6314                65.1734                43.7523

                     16                     17                     18
                     A'                     A'                     A'
 Frequencies --   1563.1969              1863.5245              2793.0045
 Red. masses --      4.8299                10.7666                 1.0752
 Frc consts  --      6.9538                22.0291                 4.9417
 IR Inten    --    499.0415                26.1611               347.3393

                     19                     20                     21
                     A"                     A'                     A'
 Frequencies --   2834.6657              2903.8003              3079.2496
 Red. masses --      1.1148                 1.0460                 1.0839
 Frc consts  --      5.2778                 5.1964                 6.0555
 IR Inten    --   1035.4364               790.8466                48.6743

 - Thermochemistry -
 -------------------
 Temperature   298.150 Kelvin.  Pressure   1.00000 Atm.
 Atom     1 has atomic number  6 and mass  12.00000

 Molecular mass:    68.02621 amu.
 Principal axes and moments of inertia in atomic units:
                           1         2         3
     Eigenvalues --   116.60905 610.43908 714.89945
           X           -0.13952   0.99022   0.00000
           Y            0.99022   0.13952   0.00000
           Z           -0.00000   0.00000   1.00000
 This molecule is an asymmetric top.
 Rotational symmetry number  1.
 Rotational temperatures (Kelvin)      0.74277     0.14189     0.12116
 Rotational constants (GHZ):          15.47685     2.95646     2.52447
    1 imaginary frequencies ignored.
 Zero-point vibrational energy     158608.0 (Joules/Mol)
                                   37.90822 (Kcal/Mol)
 Warning -- explicit consideration of   4 degrees of freedom as
           vibrations may cause significant error
 Vibrational temperatures:    218.79   341.84   562.50   580.01   918.49
          (Kelvin)           1121.69  1176.75  1229.94  1312.34  1464.79
                             1552.43  1944.70  1977.17  2115.35  2249.09
                             2681.19  4018.51  4078.45  4177.92  4430.35

 Zero-point correction=                           0.060411 (Hartree/Particle)
 Thermal correction to Energy=                    0.065514
 Thermal correction to Enthalpy=                  0.066459
 Thermal correction to Gibbs Free Energy=         0.031715
 Sum of electronic and zero-point Energies=           -230.016493
 Sum of electronic and thermal Energies=              -230.011389
 Sum of electronic and thermal Enthalpies=            -230.010445
 Sum of electronic and thermal Free Energies=         -230.045189

                     E (Thermal)             CV                S
                      KCal/Mol        Cal/Mol-Kelvin    Cal/Mol-Kelvin
 Total                   41.111             16.965             73.124
 Electronic               0.000              0.000              1.377
 Translational            0.889              2.981             38.570
 Rotational               0.889              2.981             25.435
 Vibrational             39.333             11.004              7.743
 Vibration     1          0.619              1.900              2.646
 Vibration     2          0.656              1.783              1.821
 Vibration     3          0.759              1.490              0.996
 Vibration     4          0.769              1.463              0.951

 Optimization completed.
    -- Stationary point found.
 Normal termination of Gaussian 09 at Thu Mar  7 17:16:07 2019.
