 Gaussian 09, Revision E.01,
 Gaussian 09:  EM64L-G09RevE.01 30-Nov-2015

 ------------------------------------------------------
 #p b3lyp/6-311++G(3df,2p) freq IOp(2/17=3) IOp(2/18=3)
 ------------------------------------------------------

 ---------
 b3lyp opt
 ---------
 Symbolic Z-matrix:
 Charge = -1 Multiplicity = 2

                         Standard orientation:
 ---------------------------------------------------------------------
 Center     Atomic      Atomic             Coordinates (Angstroms)
 Number     Number       Type             X           Y           Z
 ---------------------------------------------------------------------
      1          6           0        0.000000    1.136910    0.000000
      2          6           0       -0.894744   -1.001401    0.000000
      3          8           0       -1.157428    0.454485    0.000000
      4          6           0        0.650404   -1.068201    0.000000
      5          6           0        1.103164    0.375481    0.000000
      6          1           0       -0.078904    2.219506    0.000000
      7          1           0        1.034295   -1.633471    0.874181
      8          1           0        1.034295   -1.633471   -0.874181
      9          1           0        2.116791    0.754823    0.000000
 ---------------------------------------------------------------------

 SCF Done:  E(UB3LYP) =  -230.006079161     A.U. after   19 cycles

 The electronic state is 2-A".
 Alpha  occ. eigenvalues --  -18.95704 -10.03839  -9.98257  -9.98193  -9.96522
 Alpha  occ. eigenvalues --   -0.86501  -0.59429  -0.52152  -0.39843  -0.35030
 Alpha  occ. eigenvalues --   -0.32166  -0.25455  -0.21959  -0.19473  -0.19326
 Alpha  occ. eigenvalues --   -0.14892  -0.06085  -0.00980   0.06855
 Alpha virt. eigenvalues --    0.10627   0.12188   0.13576   0.14314   0.17922
 Alpha virt. eigenvalues --    0.18935   0.19411   0.20634   0.21200   0.22822
 Alpha virt. eigenvalues --    0.23253   0.24226   0.24302   0.25120   0.25948

  Beta  occ. eigenvalues --  -18.95592 -10.03833  -9.98355  -9.98089  -9.95283
  Beta  occ. eigenvalues --   -0.86104  -0.59203  -0.51337  -0.39381  -0.34190
  Beta  occ. eigenvalues --   -0.31755  -0.24319  -0.21198  -0.19297  -0.18481
  Beta  occ. eigenvalues --   -0.14537  -0.04833   0.00924
  Beta virt. eigenvalues --    0.10623   0.12190   0.13639   0.14386   0.17308
  Beta virt. eigenvalues --    0.18751   0.18964   0.19432   0.20824   0.21259
  Beta virt. eigenvalues --    0.22800   0.23250   0.24221   0.25115   0.25894

 Mulliken charges and spin densities:
               1          2
     1  C    0.016580  -0.062365
     2  C   -0.594359   1.034603
     3  O   -0.569443  -0.027885
     4  C    0.070973  -0.187138
     5  C   -0.156160   0.135658
     6  H    0.103874  -0.001087
     7  H    0.003919   0.055786
     8  H    0.003919   0.055786
     9  H    0.120696  -0.003358
 Sum of Mulliken charges =  -1.00000   1.00000

 Dipole moment (field-independent basis, Debye):
    X=              4.1064    Y=              3.7519    Z=             -0.0000  Tot=              5.5623
 Quadrupole moment (field-independent basis, Debye-Ang):
   XX=            -44.9055   YY=            -41.9818   ZZ=            -37.1882
   XY=             -5.6831   XZ=             -0.0000   YZ=              0.0000

  Exact polarizability:  98.226   7.298  95.091  -0.000   0.000  68.604
 Approx polarizability: 134.349   0.572 121.048  -0.000  -0.000  87.238

 ******    1 imaginary frequencies (negative Signs) ******

                      1                      2                      3
                     A"                     A"                     A'
 Frequencies --    -42.4187               493.4997               642.7067
 Red. masses --      2.9203                 2.7480                 7.0864
 Frc consts  --      0.0031                 0.3943                 1.7247
 IR Inten    --     22.7828                 8.5149                38.4311

                      4                      5                      6
                     A"                     A'                     A'
 Frequencies --    653.8157               751.8448               797.3174
 Red. masses --      1.1830                 8.4511                 6.3285
 Frc consts  --      0.2980                 2.8146                 2.3703
 IR Inten    --     33.6825                 7.7638                 4.3889

                      7                      8                      9
                     A"                     A"                     A'
 Frequencies --    859.3598               886.5575               895.5723
 Red. masses --      1.3902                 1.4294                 5.1756
 Frc consts  --      0.6049                 0.6619                 2.4458
 IR Inten    --      4.4743                 4.3140                14.8408

                     10                     11                     12
                     A'                     A"                     A'
 Frequencies --    940.8429              1064.8353              1067.9301
 Red. masses --      2.0623                 1.1534                 2.6383
 Frc consts  --      1.0756                 0.7705                 1.7728
 IR Inten    --     14.9083                 5.8839                27.7256

                     13                     14                     15
                     A'                     A'                     A'
 Frequencies --   1143.3381              1216.4593              1345.5356
 Red. masses --      1.5436                 1.5303                 1.7231
 Frc consts  --      1.1888                 1.3342                 1.8380
 IR Inten    --     45.6751                 4.0839                 2.9002

                     16                     17                     18
                     A'                     A'                     A"
 Frequencies --   1452.0741              1604.6305              2623.1498
 Red. masses --      1.1083                 4.7849                 1.1081
 Frc consts  --      1.3769                 7.2589                 4.4922
 IR Inten    --     28.7545               134.5268               305.2401

                     19                     20                     21
                     A'                     A'                     A'
 Frequencies --   2787.9944              3124.1992              3164.1442
 Red. masses --      1.0504                 1.0861                 1.0998
 Frc consts  --      4.8104                 6.2460                 6.4875
 IR Inten    --    441.6165                56.7966                98.1174

 - Thermochemistry -
 -------------------
 Temperature   298.150 Kelvin.  Pressure   1.00000 Atm.
 Atom     1 has atomic number  6 and mass  12.00000

 Molecular mass:    68.02621 amu.
 Principal axes and moments of inertia in atomic units:
                           1         2         3
     Eigenvalues --   198.93161 220.23536 408.16563
           X            0.70714   0.70708   0.00000
           Y           -0.70708   0.70714   0.00000
           Z           -0.00000   0.00000   1.00000
 This molecule is an asymmetric top.
 Rotational symmetry number  1.
 Rotational temperatures (Kelvin)      0.43539     0.39328     0.21220
 Rotational constants (GHZ):           9.07217     8.19460     4.42159
    1 imaginary frequencies ignored.
 Zero-point vibrational energy     164581.1 (Joules/Mol)
                                   39.33582 (Kcal/Mol)
 Warning -- explicit consideration of   1 degrees of freedom as
           vibrations may cause significant error
 Vibrational temperatures:    710.04   924.71   940.69  1081.74  1147.16
          (Kelvin)           1236.43  1275.56  1288.53  1353.66  1532.06
                             1536.51  1645.01  1750.21  1935.92  2089.21
                             2308.70  3774.12  4011.30  4495.02  4552.49

 Zero-point correction=                           0.062686 (Hartree/Particle)
 Thermal correction to Energy=                    0.066523
 Thermal correction to Enthalpy=                  0.067468
 Thermal correction to Gibbs Free Energy=         0.035598
 Sum of electronic and zero-point Energies=           -229.943394
 Sum of electronic and thermal Energies=              -229.939556
 Sum of electronic and thermal Enthalpies=            -229.938612
 Sum of electronic and thermal Free Energies=         -229.970481

                     E (Thermal)             CV                S
                      KCal/Mol        Cal/Mol-Kelvin    Cal/Mol-Kelvin
 Total                   41.744             13.835             67.075
 Electronic               0.000              0.000              1.377
 Translational            0.889              2.981             38.570
 Rotational               0.889              2.981             24.395
 Vibrational             39.967              7.874              2.733
 Vibration     1          0.849              1.264              0.675

 Normal termination of Gaussian 09 at Thu Mar  7 15:00:46 2019.
