 Gaussian 09, Revision E.01,
 Gaussian 09:  EM64L-G09RevE.01 30-Nov-2015

 ------------------------------------------------------
 #p b3lyp/6-311++G(3df,2p) freq IOp(2/17=3) IOp(2/18=3)
 ------------------------------------------------------

 ---------
 b3lyp opt
 ---------
 Symbolic Z-matrix:
 Charge = -1 Multiplicity = 4

                         Standard orientation:
 ---------------------------------------------------------------------
 Center     Atomic      Atomic             Coordinates (Angstroms)
 Number     Number       Type             X           Y           Z
 ---------------------------------------------------------------------
      1          6           0       -1.168946    0.359038    0.416190
      2          6           0        2.329181   -0.465298    0.084961
      3          8           0       -1.924708   -0.648763   -0.124471
      4          6           0        1.270751    0.128470   -0.057410
      5          6           0        0.078737    0.786333   -0.229455
      6          1           0       -1.305167    0.438897    1.485754
      7          1           0       -1.682549   -0.777227   -1.056338
      8          1           0        3.261385   -0.969745    0.178454
      9          1           0        0.065660    1.646917   -0.897816
 ---------------------------------------------------------------------

 SCF Done:  E(UB3LYP) =  -229.941068992     A.U. after   30 cycles

 The electronic state is 4-A.
 Alpha  occ. eigenvalues --  -19.04530 -10.11087 -10.09074 -10.06910 -10.06656
 Alpha  occ. eigenvalues --   -0.94741  -0.69186  -0.61920  -0.53425  -0.43695
 Alpha  occ. eigenvalues --   -0.39944  -0.37143  -0.35379  -0.28473  -0.26283
 Alpha  occ. eigenvalues --   -0.22710  -0.17060  -0.10345  -0.06441   0.05391
 Alpha virt. eigenvalues --    0.07816   0.09273   0.10230   0.13060   0.14676
 Alpha virt. eigenvalues --    0.15023   0.16618   0.17333   0.17824   0.18827
 Alpha virt. eigenvalues --    0.18881   0.19781   0.20541   0.21339   0.21951

  Beta  occ. eigenvalues --  -19.03831 -10.09819 -10.08071 -10.07090 -10.05895
  Beta  occ. eigenvalues --   -0.93137  -0.67304  -0.59360  -0.51241  -0.42541
  Beta  occ. eigenvalues --   -0.38847  -0.35578  -0.33803  -0.25841  -0.23831
  Beta  occ. eigenvalues --   -0.19498  -0.16348
  Beta virt. eigenvalues --    0.00882   0.07213   0.08646   0.09830   0.10247
  Beta virt. eigenvalues --    0.10943   0.13486   0.15399   0.15970   0.16985
  Beta virt. eigenvalues --    0.17740   0.18919   0.19858   0.20119   0.20732

 Mulliken charges and spin densities:
               1          2
     1  C    1.361882  -0.401621
     2  C  -13.259674  14.093487
     3  O   -0.541925   0.164499
     4  C    9.545421  -9.915560
     5  C    5.894718  -5.812011
     6  H    0.132026   0.006346
     7  H   -0.323397   0.594829
     8  H   -2.907559   3.214746
     9  H   -0.901492   1.055286
 Sum of Mulliken charges =  -1.00000   3.00000

 Dipole moment (field-independent basis, Debye):
    X=             -5.5126    Y=              1.8799    Z=              3.0666  Tot=              6.5823
 Quadrupole moment (field-independent basis, Debye-Ang):
   XX=            -87.9284   YY=            -59.1680   ZZ=            -53.8520
   XY=              7.4540   XZ=             -2.7127   YZ=              1.2327

  Exact polarizability:2084.999-521.6461397.674 633.472-201.043 703.074
 Approx polarizability:2671.943-625.408 977.528 864.287-219.666 651.590

 ******    1 imaginary frequencies (negative Signs) ******

                      1                      2                      3
                      A                      A                      A
 Frequencies --   -312.3406               165.5760               295.3205
 Red. masses --      4.3018                 2.4065                 1.6970
 Frc consts  --      0.2473                 0.0389                 0.0872
 IR Inten    --     14.6717               103.7340               436.7725

                      4                      5                      6
                      A                      A                      A
 Frequencies --    367.4677               441.4096               511.4967
 Red. masses --      2.0591                 1.6047                 1.6115
 Frc consts  --      0.1638                 0.1842                 0.2484
 IR Inten    --    331.4804               806.0784                46.4338

                      7                      8                      9
                      A                      A                      A
 Frequencies --    583.0098               664.5912               687.9147
 Red. masses --      2.6815                 1.4139                 1.7318
 Frc consts  --      0.5370                 0.3679                 0.4829
 IR Inten    --     99.0125              1052.7412               454.2840

                     10                     11                     12
                      A                      A                      A
 Frequencies --    714.6904               947.8633              1097.3085
 Red. masses --      1.8792                 4.9095                 2.9793
 Frc consts  --      0.5655                 2.5988                 2.1136
 IR Inten    --    690.9022               363.9880               432.0465

                     13                     14                     15
                      A                      A                      A
 Frequencies --   1188.2543              1248.3305              1323.8082
 Red. masses --      1.4795                 1.7931                 1.5337
 Frc consts  --      1.2308                 1.6463                 1.5835
 IR Inten    --    211.1061                29.1827               254.4075

                     16                     17                     18
                      A                      A                      A
 Frequencies --   1393.8112              1959.1166              3049.1633
 Red. masses --      1.5989                 6.7349                 1.0832
 Frc consts  --      1.8301                15.2301                 5.9338
 IR Inten    --   1193.4434               125.9092               578.9254

                     19                     20                     21
                      A                      A                      A
 Frequencies --   3167.1046              3398.0259              3589.3241
 Red. masses --      1.0857                 1.1393                 1.0665
 Frc consts  --      6.4163                 7.7504                 8.0956
 IR Inten    --    118.4689              3006.3956              9397.6157

 - Thermochemistry -
 -------------------
 Temperature   298.150 Kelvin.  Pressure   1.00000 Atm.
 Atom     1 has atomic number  6 and mass  12.00000

 Molecular mass:    68.02621 amu.
 Principal axes and moments of inertia in atomic units:
                           1         2         3
     Eigenvalues --   107.91508 652.80974 708.77280
           X            0.99988  -0.01500   0.00229
           Y            0.01503   0.99982  -0.01168
           Z           -0.00211   0.01171   0.99993
 This molecule is an asymmetric top.
 Rotational symmetry number  1.
 Rotational temperatures (Kelvin)      0.80261     0.13268     0.12220
 Rotational constants (GHZ):          16.72372     2.76457     2.54629
    1 imaginary frequencies ignored.
 Zero-point vibrational energy     160261.2 (Joules/Mol)
                                   38.30336 (Kcal/Mol)
 Warning -- explicit consideration of   6 degrees of freedom as
           vibrations may cause significant error
 Vibrational temperatures:    238.23   424.90   528.70   635.09   735.93
          (Kelvin)            838.82   956.20   989.75  1028.28  1363.76
                             1578.78  1709.63  1796.07  1904.66  2005.38
                             2818.73  4387.06  4556.75  4889.00  5164.23

 Zero-point correction=                           0.061040 (Hartree/Particle)
 Thermal correction to Energy=                    0.066387
 Thermal correction to Enthalpy=                  0.067331
 Thermal correction to Gibbs Free Energy=         0.031719
 Sum of electronic and zero-point Energies=           -229.880029
 Sum of electronic and thermal Energies=              -229.874682
 Sum of electronic and thermal Enthalpies=            -229.873738
 Sum of electronic and thermal Free Energies=         -229.909350

                     E (Thermal)             CV                S
                      KCal/Mol        Cal/Mol-Kelvin    Cal/Mol-Kelvin
 Total                   41.658             18.660             74.952
 Electronic               0.000              0.000              2.755
 Translational            0.889              2.981             38.570
 Rotational               0.889              2.981             25.416
 Vibrational             39.881             12.699              8.212
 Vibration     1          0.624              1.885              2.485
 Vibration     2          0.690              1.682              1.443
 Vibration     3          0.740              1.539              1.090
 Vibration     4          0.801              1.380              0.822
 Vibration     5          0.867              1.225              0.630
 Vibration     6          0.940              1.068              0.480

 Optimization completed.
    -- Stationary point found.
 Normal termination of Gaussian 09 at Fri Mar  8 03:35:40 2019.
