 Gaussian 09, Revision E.01,
 Gaussian 09:  EM64L-G09RevE.01 30-Nov-2015

 ------------------------------------------------------
 #p b3lyp/6-311++G(3df,2p) freq IOp(2/17=3) IOp(2/18=3)
 ------------------------------------------------------

 ---------
 b3lyp opt
 ---------
 Symbolic Z-matrix:
 Charge = -1 Multiplicity = 4

                         Standard orientation:
 ---------------------------------------------------------------------
 Center     Atomic      Atomic             Coordinates (Angstroms)
 Number     Number       Type             X           Y           Z
 ---------------------------------------------------------------------
      1          8           0        0.000000   -0.000000    2.353411
      2          6           0       -0.000000   -0.767347   -1.459051
      3          6           0        0.000000    0.767347   -1.459051
      4          6           0        0.000000   -0.000000   -0.197600
      5          6           0        0.000000   -0.000000    1.145469
      6          1           0        0.912768   -1.282699   -1.751475
      7          1           0       -0.912768   -1.282699   -1.751475
      8          1           0       -0.912768    1.282699   -1.751475
      9          1           0        0.912768    1.282699   -1.751475
 ---------------------------------------------------------------------

 SCF Done:  E(UB3LYP) =  -229.931325643     A.U. after   20 cycles

 The electronic state is 4-A2.
 Alpha  occ. eigenvalues --  -19.05045 -10.13403 -10.12670 -10.06680 -10.06660
 Alpha  occ. eigenvalues --   -0.95928  -0.77017  -0.60897  -0.50340  -0.41524
 Alpha  occ. eigenvalues --   -0.37904  -0.37826  -0.32660  -0.31384  -0.26260
 Alpha  occ. eigenvalues --   -0.23023  -0.21656  -0.14993  -0.00786   0.05694
 Alpha virt. eigenvalues --    0.08962   0.09507   0.11388   0.12569   0.14689
 Alpha virt. eigenvalues --    0.15050   0.15568   0.16718   0.17647   0.19902
 Alpha virt. eigenvalues --    0.20099   0.21321   0.22365   0.22767   0.23231

  Beta  occ. eigenvalues --  -19.03595 -10.12529 -10.11654 -10.06409 -10.06388
  Beta  occ. eigenvalues --   -0.93200  -0.75143  -0.57154  -0.49292  -0.40055
  Beta  occ. eigenvalues --   -0.36123  -0.35991  -0.27750  -0.27309  -0.25476
  Beta  occ. eigenvalues --   -0.20790  -0.20314
  Beta virt. eigenvalues --   -0.03121   0.09366   0.09826   0.11122   0.11835
  Beta virt. eigenvalues --    0.11930   0.14180   0.15618   0.15755   0.17264
  Beta virt. eigenvalues --    0.17751   0.18706   0.20170   0.20640   0.22072

 Mulliken charges and spin densities:
               1          2
     1  O   -0.671656   0.483852
     2  C   -0.002409  -0.150891
     3  C   -0.002409  -0.150891
     4  C   -1.175650   2.289366
     5  C    3.899013  -3.278615
     6  H   -0.761722   0.951795
     7  H   -0.761722   0.951795
     8  H   -0.761722   0.951795
     9  H   -0.761722   0.951795
 Sum of Mulliken charges =  -1.00000   3.00000

 Dipole moment (field-independent basis, Debye):
    X=             -0.0000    Y=             -0.0000    Z=              5.9635  Tot=              5.9635
 Quadrupole moment (field-independent basis, Debye-Ang):
   XX=            -59.3478   YY=            -54.2107   ZZ=            -76.6412
   XY=             -0.0000   XZ=              0.0000   YZ=              0.0000

  Exact polarizability:1463.294  -0.0001512.180  -0.000   0.000 447.692
 Approx polarizability:1305.657   0.000 968.842   0.000  -0.000 410.906

 ******    1 imaginary frequencies (negative Signs) ******

                      1                      2                      3
                     B2                     B1                     B2
 Frequencies --   -734.0939               145.2853               285.9291
 Red. masses --     11.7742                 3.0739                 3.9606
 Frc consts  --      3.7384                 0.0382                 0.1908
 IR Inten    --     79.2049                75.5490                 0.6620

                      4                      5                      6
                     B1                     A1                     B1
 Frequencies --    368.5944               616.3367               678.7817
 Red. masses --     10.5505                 4.9703                 1.0376
 Frc consts  --      0.8445                 1.1124                 0.2817
 IR Inten    --    346.3621                29.1285               466.0646

                      7                      8                      9
                     A2                     B2                     A1
 Frequencies --    736.3172               808.8185               972.5959
 Red. masses --      1.1183                 6.5241                 3.3972
 Frc consts  --      0.3572                 2.5146                 1.8934
 IR Inten    --      0.0000               415.4737                47.7275

                     10                     11                     12
                     B1                     A1                     B2
 Frequencies --    991.3425              1008.3050              1047.1169
 Red. masses --      1.4088                 1.3997                 1.4474
 Frc consts  --      0.8158                 0.8384                 0.9351
 IR Inten    --    339.3093               322.9722                 1.8023

                     13                     14                     15
                     A2                     A1                     B2
 Frequencies --   1153.4641              1320.6714              1401.0415
 Red. masses --      1.2373                 3.4486                 1.0735
 Frc consts  --      0.9700                 3.5439                 1.2415
 IR Inten    --      0.0000               197.8771              1072.3786

                     16                     17                     18
                     A1                     A1                     A1
 Frequencies --   1415.7339              1945.8893              3018.1331
 Red. masses --      1.3991                12.5218                 1.0575
 Frc consts  --      1.6522                27.9352                 5.6753
 IR Inten    --     83.4022                66.8910                 6.0552

                     19                     20                     21
                     B2                     B1                     A2
 Frequencies --   3020.9462              3086.0385              3114.1118
 Red. masses --      1.0483                 1.1133                 1.1138
 Frc consts  --      5.6365                 6.2468                 6.3639
 IR Inten    --    266.6533              1694.5809                 0.0000

 - Thermochemistry -
 -------------------
 Temperature   298.150 Kelvin.  Pressure   1.00000 Atm.
 Atom     1 has atomic number  8 and mass  15.99491

 Molecular mass:    68.02621 amu.
 Principal axes and moments of inertia in atomic units:
                           1         2         3
     Eigenvalues --    86.14534 610.33683 672.49418
           X            0.00000   0.00000   1.00000
           Y            0.00000   1.00000  -0.00000
           Z            1.00000  -0.00000  -0.00000
 This molecule is an asymmetric top.
 Rotational symmetry number  2.
 Rotational temperatures (Kelvin)      1.00544     0.14191     0.12879
 Rotational constants (GHZ):          20.94996     2.95696     2.68365
    1 imaginary frequencies ignored.
 Zero-point vibrational energy     162306.1 (Joules/Mol)
                                   38.79208 (Kcal/Mol)
 Warning -- explicit consideration of   4 degrees of freedom as
           vibrations may cause significant error
 Vibrational temperatures:    209.03   411.39   530.32   886.77   976.61
          (Kelvin)           1059.39  1163.71  1399.35  1426.32  1450.72
                             1506.57  1659.58  1900.15  2015.78  2036.92
                             2799.70  4342.41  4346.46  4440.12  4480.51

 Zero-point correction=                           0.061819 (Hartree/Particle)
 Thermal correction to Energy=                    0.066721
 Thermal correction to Enthalpy=                  0.067665
 Thermal correction to Gibbs Free Energy=         0.033438
 Sum of electronic and zero-point Energies=           -229.869507
 Sum of electronic and thermal Energies=              -229.864605
 Sum of electronic and thermal Enthalpies=            -229.863661
 Sum of electronic and thermal Free Energies=         -229.897888

                     E (Thermal)             CV                S
                      KCal/Mol        Cal/Mol-Kelvin    Cal/Mol-Kelvin
 Total                   41.868             16.460             72.038
 Electronic               0.000              0.000              2.755
 Translational            0.889              2.981             38.570
 Rotational               0.889              2.981             23.695
 Vibrational             40.091             10.498              7.018
 Vibration     1          0.617              1.908              2.733
 Vibration     2          0.684              1.700              1.498
 Vibration     3          0.741              1.537              1.086
 Vibration     4          0.976              0.997              0.422

 Optimization completed.
    -- Stationary point found.
 Normal termination of Gaussian 09 at Thu Mar  7 17:48:05 2019.
