 Gaussian 09, Revision E.01,
 Gaussian 09:  EM64L-G09RevE.01 30-Nov-2015

 ------------------------------------------------------
 #p b3lyp/6-311++G(3df,2p) freq IOp(2/17=3) IOp(2/18=3)
 ------------------------------------------------------

 ---------
 b3lyp opt
 ---------
 Symbolic Z-matrix:
 Charge = -1 Multiplicity = 2

                         Standard orientation:
 ---------------------------------------------------------------------
 Center     Atomic      Atomic             Coordinates (Angstroms)
 Number     Number       Type             X           Y           Z
 ---------------------------------------------------------------------
      1          8           0       -1.966234   -0.384025   -0.000000
      2          6           0        0.561106    0.017019    0.000000
      3          6           0       -0.861897    0.117120   -0.000000
      4          6           0        0.000000    1.240733    0.000000
      5          6           0        1.817557   -0.757725   -0.000000
      6          1           0        0.218885    2.298179    0.000000
      7          1           0        1.857675   -1.409105    0.879673
      8          1           0        2.694947   -0.110785    0.000000
      9          1           0        1.857675   -1.409105   -0.879673
 ---------------------------------------------------------------------

 SCF Done:  E(UB3LYP) =  -230.040667200     A.U. after   26 cycles

 The electronic state is 2-A'.
 Alpha  occ. eigenvalues --  -18.98189 -10.15042 -10.10949 -10.09581 -10.06755
 Alpha  occ. eigenvalues --   -0.91304  -0.79730  -0.63281  -0.46990  -0.40427
 Alpha  occ. eigenvalues --   -0.35238  -0.33449  -0.32240  -0.29315  -0.28724
 Alpha  occ. eigenvalues --   -0.24409  -0.17512  -0.12246   0.05022
 Alpha virt. eigenvalues --    0.08105   0.08285   0.10727   0.10936   0.13477
 Alpha virt. eigenvalues --    0.14113   0.14491   0.16892   0.17503   0.18882
 Alpha virt. eigenvalues --    0.19070   0.19678   0.19756   0.21270   0.21881

  Beta  occ. eigenvalues --  -18.98183 -10.15037 -10.10947 -10.09550 -10.06656
  Beta  occ. eigenvalues --   -0.91288  -0.79707  -0.63157  -0.46872  -0.40324
  Beta  occ. eigenvalues --   -0.35191  -0.33388  -0.32174  -0.29254  -0.28670
  Beta  occ. eigenvalues --   -0.24359  -0.17489  -0.12211
  Beta virt. eigenvalues --    0.08353   0.08381   0.09706   0.12149   0.12180
  Beta virt. eigenvalues --    0.14002   0.14291   0.14874   0.17056   0.17454
  Beta virt. eigenvalues --    0.19207   0.19404   0.19807   0.20283   0.21418

 Mulliken charges and spin densities:
               1          2
     1  O   -0.858379   0.051846
     2  C   -0.547724   0.536561
     3  C    1.913667  -1.470133
     4  C   -2.957188   3.054333
     5  C    5.826069  -6.254176
     6  H   -1.960779   2.198819
     7  H   -0.685950   0.842503
     8  H   -1.043766   1.197743
     9  H   -0.685950   0.842503
 Sum of Mulliken charges =  -1.00000   1.00000

 Dipole moment (field-independent basis, Debye):
    X=             -4.8981    Y=             -0.7840    Z=              0.0000  Tot=              4.9604
 Quadrupole moment (field-independent basis, Debye-Ang):
   XX=            -79.7674   YY=            -65.9114   ZZ=            -51.4537
   XY=             -1.3905   XZ=              0.0000   YZ=             -0.0000

  Exact polarizability: 767.398-448.8941984.009  -0.000   0.0001177.636
 Approx polarizability: 619.321-404.9161760.554  -0.000   0.000 525.140

 ******    1 imaginary frequencies (negative Signs) ******

                      1                      2                      3
                     A"                     A"                     A'
 Frequencies --   -337.4712               151.4416               235.5407
 Red. masses --      3.4641                 1.1040                 3.7067
 Frc consts  --      0.2324                 0.0149                 0.1212
 IR Inten    --   6388.8553                 5.5814                21.0093

                      4                      5                      6
                     A"                     A'                     A'
 Frequencies --    542.8138               544.5657               751.0424
 Red. masses --      4.2134                 2.8092                 5.6441
 Frc consts  --      0.7314                 0.4908                 1.8757
 IR Inten    --    541.8957                44.2255                 3.8030

                      7                      8                      9
                     A'                     A"                     A'
 Frequencies --    866.3718               905.4868               975.4929
 Red. masses --      2.1498                 1.4957                 2.0390
 Frc consts  --      0.9507                 0.7225                 1.1432
 IR Inten    --     91.7103                21.4270                10.3334

                     10                     11                     12
                     A"                     A'                     A'
 Frequencies --    998.4144              1083.0557              1228.0749
 Red. masses --      1.3279                 2.2901                 3.2004
 Frc consts  --      0.7799                 1.5827                 2.8438
 IR Inten    --    683.4730               171.2260                46.7720

                     13                     14                     15
                     A'                     A"                     A'
 Frequencies --   1379.7700              1451.0160              1454.4794
 Red. masses --      1.2124                 1.0442                 1.0649
 Frc consts  --      1.3599                 1.2954                 1.3274
 IR Inten    --    447.3669              1627.9061               169.7987

                     16                     17                     18
                     A'                     A'                     A"
 Frequencies --   1649.0346              1887.6791              2826.5716
 Red. masses --      8.0210                10.8163                 1.1189
 Frc consts  --     12.8510                22.7084                 5.2671
 IR Inten    --     26.1300               366.4970             20602.3966

                     19                     20                     21
                     A'                     A'                     A'
 Frequencies --   2970.2324              3073.1569              3196.6803
 Red. masses --      1.0378                 1.1015                 1.1122
 Frc consts  --      5.3945                 6.1294                 6.6962
 IR Inten    --    244.3254                23.1618               103.9644

 - Thermochemistry -
 -------------------
 Temperature   298.150 Kelvin.  Pressure   1.00000 Atm.
 Atom     1 has atomic number  8 and mass  15.99491

 Molecular mass:    68.02621 amu.
 Principal axes and moments of inertia in atomic units:
                           1         2         3
     Eigenvalues --   134.15873 466.50477 589.52349
           X            0.99346   0.11416   0.00000
           Y           -0.11416   0.99346   0.00000
           Z            0.00000  -0.00000   1.00000
 This molecule is an asymmetric top.
 Rotational symmetry number  1.
 Rotational temperatures (Kelvin)      0.64561     0.18567     0.14692
 Rotational constants (GHZ):          13.45228     3.86864     3.06136
    1 imaginary frequencies ignored.
 Zero-point vibrational energy     168499.5 (Joules/Mol)
                                   40.27235 (Kcal/Mol)
 Warning -- explicit consideration of   4 degrees of freedom as
           vibrations may cause significant error
 Vibrational temperatures:    217.89   338.89   780.99   783.51  1080.58
          (Kelvin)           1246.51  1302.79  1403.51  1436.49  1558.27
                             1766.92  1985.18  2087.69  2092.67  2372.59
                             2715.95  4066.80  4273.50  4421.58  4599.30

 Zero-point correction=                           0.064178 (Hartree/Particle)
 Thermal correction to Energy=                    0.068897
 Thermal correction to Enthalpy=                  0.069841
 Thermal correction to Gibbs Free Energy=         0.035835
 Sum of electronic and zero-point Energies=           -229.976489
 Sum of electronic and thermal Energies=              -229.971770
 Sum of electronic and thermal Enthalpies=            -229.970826
 Sum of electronic and thermal Free Energies=         -230.004833

                     E (Thermal)             CV                S
                      KCal/Mol        Cal/Mol-Kelvin    Cal/Mol-Kelvin
 Total                   43.233             15.350             71.572
 Electronic               0.000              0.000              1.377
 Translational            0.889              2.981             38.570
 Rotational               0.889              2.981             25.115
 Vibrational             41.456              9.388              6.510
 Vibration     1          0.619              1.901              2.654
 Vibration     2          0.655              1.786              1.836
 Vibration     3          0.898              1.155              0.559
 Vibration     4          0.900              1.152              0.556

 Normal termination of Gaussian 09 at Thu Mar  7 15:01:01 2019.
