 Gaussian 09, Revision E.01,
 Gaussian 09:  EM64L-G09RevE.01 30-Nov-2015

 ------------------------------------------------------
 #p b3lyp/6-311++G(3df,2p) freq IOp(2/17=3) IOp(2/18=3)
 ------------------------------------------------------

 ---------
 b3lyp opt
 ---------
 Symbolic Z-matrix:
 Charge = -1 Multiplicity = 4

                         Standard orientation:
 ---------------------------------------------------------------------
 Center     Atomic      Atomic             Coordinates (Angstroms)
 Number     Number       Type             X           Y           Z
 ---------------------------------------------------------------------
      1          6           0       -1.136597    0.318086   -0.439604
      2          6           0        1.307769    0.106830    0.054491
      3          8           0       -2.020464   -0.583116    0.099914
      4          6           0        2.406377   -0.396599   -0.124987
      5          6           0        0.083508    0.676340    0.291018
      6          1           0       -1.634891    1.033415   -1.079792
      7          1           0       -1.554850   -1.155166    0.731156
      8          1           0        3.364182   -0.845918   -0.239441
      9          1           0        0.022924    1.404653    1.103264
 ---------------------------------------------------------------------

 SCF Done:  E(UB3LYP) =  -229.940947111     A.U. after   29 cycles

 The electronic state is 4-A.
 Alpha  occ. eigenvalues --  -19.04695 -10.11169 -10.09131 -10.06927 -10.06661
 Alpha  occ. eigenvalues --   -0.94872  -0.69187  -0.62018  -0.53659  -0.43452
 Alpha  occ. eigenvalues --   -0.40006  -0.37042  -0.35814  -0.28509  -0.26503
 Alpha  occ. eigenvalues --   -0.22809  -0.16960  -0.10307  -0.06722   0.05410
 Alpha virt. eigenvalues --    0.07974   0.08837   0.10106   0.13088   0.14466
 Alpha virt. eigenvalues --    0.15407   0.16667   0.16961   0.17897   0.18435
 Alpha virt. eigenvalues --    0.19251   0.19566   0.20325   0.21406   0.21752

  Beta  occ. eigenvalues --  -19.04011 -10.09880 -10.08140 -10.07133 -10.05905
  Beta  occ. eigenvalues --   -0.93296  -0.67338  -0.59477  -0.51526  -0.42397
  Beta  occ. eigenvalues --   -0.38890  -0.35255  -0.34219  -0.26102  -0.23947
  Beta  occ. eigenvalues --   -0.19610  -0.16326
  Beta virt. eigenvalues --    0.00906   0.06917   0.08780   0.09672   0.10192
  Beta virt. eigenvalues --    0.10849   0.13466   0.15156   0.16171   0.17196
  Beta virt. eigenvalues --    0.17474   0.18685   0.19257   0.20172   0.21186

 Mulliken charges and spin densities:
               1          2
     1  C    1.615971  -0.676985
     2  C   10.156977 -10.500113
     3  O   -0.581881   0.200212
     4  C  -15.205938  16.015286
     5  C    7.211907  -7.109788
     6  H   -0.011149   0.145426
     7  H   -0.245085   0.510917
     8  H   -3.081858   3.389773
     9  H   -0.858944   1.025273
 Sum of Mulliken charges =  -1.00000   3.00000

 Dipole moment (field-independent basis, Debye):
    X=             -6.3720    Y=              2.4696    Z=             -2.0255  Tot=              7.1277
 Quadrupole moment (field-independent basis, Debye-Ang):
   XX=            -90.6168   YY=            -58.3848   ZZ=            -54.0090
   XY=              6.7262   XZ=              2.1716   YZ=             -1.4713

  Exact polarizability:2222.174-537.1181566.528-493.965 164.154 724.476
 Approx polarizability:2574.548-462.1881006.227-645.572 163.747 569.784

 ******    1 imaginary frequencies (negative Signs) ******

                      1                      2                      3
                      A                      A                      A
 Frequencies --   -462.0878               194.0554               311.4691
 Red. masses --      5.6451                 2.5502                 1.6718
 Frc consts  --      0.7102                 0.0566                 0.0956
 IR Inten    --    121.0093                42.9823               124.8455

                      4                      5                      6
                      A                      A                      A
 Frequencies --    371.4101               412.3421               461.1448
 Red. masses --      3.1153                 1.5404                 1.6229
 Frc consts  --      0.2532                 0.1543                 0.2033
 IR Inten    --    276.8417               469.4790               614.5938

                      7                      8                      9
                      A                      A                      A
 Frequencies --    598.8120               688.0374               696.8990
 Red. masses --      1.6874                 1.1868                 1.9290
 Frc consts  --      0.3565                 0.3310                 0.5520
 IR Inten    --    312.0035              1293.7780               267.1062

                     10                     11                     12
                      A                      A                      A
 Frequencies --    735.5758               937.7656              1109.0838
 Red. masses --      2.2375                 5.1701                 2.8913
 Frc consts  --      0.7133                 2.6788                 2.0954
 IR Inten    --   1217.6929               316.2731               674.7490

                     13                     14                     15
                      A                      A                      A
 Frequencies --   1171.4925              1247.6816              1353.2526
 Red. masses --      1.4440                 1.6868                 1.6864
 Frc consts  --      1.1676                 1.5471                 1.8196
 IR Inten    --    296.5059                48.3069               201.6421

                     16                     17                     18
                      A                      A                      A
 Frequencies --   1390.7144              1944.3403              3017.5781
 Red. masses --      1.6393                 6.1605                 1.0825
 Frc consts  --      1.8680                13.7218                 5.8076
 IR Inten    --   1184.2006              1581.1513               442.7290

                     19                     20                     21
                      A                      A                      A
 Frequencies --   3163.7372              3400.1898              3596.9413
 Red. masses --      1.0854                 1.1579                 1.0661
 Frc consts  --      6.4009                 7.8872                 8.1265
 IR Inten    --    149.2916              3116.9142             10306.9237

 - Thermochemistry -
 -------------------
 Temperature   298.150 Kelvin.  Pressure   1.00000 Atm.
 Atom     1 has atomic number  6 and mass  12.00000

 Molecular mass:    68.02621 amu.
 Principal axes and moments of inertia in atomic units:
                           1         2         3
     Eigenvalues --    92.72039 693.43322 738.23543
           X            0.99987  -0.01594  -0.00059
           Y            0.01593   0.99974  -0.01605
           Z            0.00085   0.01604   0.99987
 This molecule is an asymmetric top.
 Rotational symmetry number  1.
 Rotational temperatures (Kelvin)      0.93414     0.12491     0.11733
 Rotational constants (GHZ):          19.46434     2.60262     2.44467
    1 imaginary frequencies ignored.
 Zero-point vibrational energy     160314.7 (Joules/Mol)
                                   38.31613 (Kcal/Mol)
 Warning -- explicit consideration of   6 degrees of freedom as
           vibrations may cause significant error
 Vibrational temperatures:    279.20   448.13   534.38   593.27   663.48
          (Kelvin)            861.56   989.93  1002.68  1058.33  1349.23
                             1595.72  1685.51  1795.13  1947.03  2000.93
                             2797.47  4341.62  4551.91  4892.11  5175.19

 Zero-point correction=                           0.061061 (Hartree/Particle)
 Thermal correction to Energy=                    0.066372
 Thermal correction to Enthalpy=                  0.067316
 Thermal correction to Gibbs Free Energy=         0.031852
 Sum of electronic and zero-point Energies=           -229.879886
 Sum of electronic and thermal Energies=              -229.874575
 Sum of electronic and thermal Enthalpies=            -229.873631
 Sum of electronic and thermal Free Energies=         -229.909095

                     E (Thermal)             CV                S
                      KCal/Mol        Cal/Mol-Kelvin    Cal/Mol-Kelvin
 Total                   41.649             18.628             74.640
 Electronic               0.000              0.000              2.755
 Translational            0.889              2.981             38.570
 Rotational               0.889              2.981             25.365
 Vibrational             39.871             12.666              7.950
 Vibration     1          0.635              1.848              2.189
 Vibration     2          0.700              1.652              1.355
 Vibration     3          0.743              1.531              1.074
 Vibration     4          0.776              1.443              0.918
 Vibration     5          0.819              1.336              0.763
 Vibration     6          0.957              1.034              0.452

 Normal termination of Gaussian 09 at Fri Mar  8 03:32:28 2019.
