 Gaussian 09, Revision E.01,
 Gaussian 09:  EM64L-G09RevE.01 30-Nov-2015

 ------------------------------------------------------
 #p b3lyp/6-311++G(3df,2p) freq IOp(2/17=3) IOp(2/18=3)
 ------------------------------------------------------

 ---------
 b3lyp opt
 ---------
 Symbolic Z-matrix:
 Charge = -1 Multiplicity = 2

                         Standard orientation:
 ---------------------------------------------------------------------
 Center     Atomic      Atomic             Coordinates (Angstroms)
 Number     Number       Type             X           Y           Z
 ---------------------------------------------------------------------
      1          6           0        2.422870   -0.597677    0.000000
      2          6           0       -1.256663   -0.155683    0.000000
      3          8           0       -2.391612    0.406401    0.000000
      4          6           0       -0.000000    0.502658    0.000000
      5          6           0        1.238712   -0.059947    0.000000
      6          1           0        2.975709   -0.856824    0.918798
      7          1           0       -1.203401   -1.264557    0.000000
      8          1           0       -0.044632    1.590890    0.000000
      9          1           0        2.975709   -0.856824   -0.918798
 ---------------------------------------------------------------------

 SCF Done:  E(UB3LYP) =  -230.077131434     A.U. after   22 cycles

 The electronic state is 2-A".
 Alpha  occ. eigenvalues --  -18.88720 -10.02832 -10.01313 -10.00267  -9.99304
 Alpha  occ. eigenvalues --   -0.79914  -0.61858  -0.54691  -0.41250  -0.35224
 Alpha  occ. eigenvalues --   -0.29738  -0.27715  -0.24476  -0.20772  -0.18936
 Alpha  occ. eigenvalues --   -0.10978  -0.09436  -0.05330   0.05617
 Alpha virt. eigenvalues --    0.10159   0.12189   0.12981   0.13658   0.15723
 Alpha virt. eigenvalues --    0.17908   0.19284   0.19441   0.20558   0.21248
 Alpha virt. eigenvalues --    0.22681   0.23507   0.24723   0.25344   0.26248

  Beta  occ. eigenvalues --  -18.88041 -10.02480 -10.01446  -9.99510  -9.99340
  Beta  occ. eigenvalues --   -0.78667  -0.60765  -0.54197  -0.40087  -0.34611
  Beta  occ. eigenvalues --   -0.29296  -0.26633  -0.24071  -0.20196  -0.16034
  Beta  occ. eigenvalues --   -0.10714  -0.06437  -0.04778
  Beta virt. eigenvalues --    0.10248   0.11919   0.12965   0.13611   0.14881
  Beta virt. eigenvalues --    0.15969   0.17764   0.19207   0.20011   0.20452
  Beta virt. eigenvalues --    0.21840   0.22676   0.23551   0.24742   0.25852

 Mulliken charges and spin densities:
               1          2
     1  C   -0.656807  -0.200588
     2  C   -0.062157   0.279944
     3  O   -0.774016   0.217172
     4  C    0.022118  -0.027532
     5  C    0.307729   0.476701
     6  H    0.017898   0.134933
     7  H    0.023979  -0.016517
     8  H    0.103358   0.000955
     9  H    0.017898   0.134933
 Sum of Mulliken charges =  -1.00000   1.00000

 Dipole moment (field-independent basis, Debye):
    X=              2.7805    Y=             -0.3641    Z=              0.0000  Tot=              2.8042
 Quadrupole moment (field-independent basis, Debye-Ang):
   XX=            -61.5590   YY=            -35.9109   ZZ=            -36.5349
   XY=              5.1448   XZ=              0.0000   YZ=             -0.0000

  Exact polarizability: 221.702 -43.745  73.713   0.000  -0.000 169.665
 Approx polarizability: 269.521 -50.060  98.168  -0.000   0.000 115.624

 ******    2 imaginary frequencies (negative Signs) ******

                      1                      2                      3
                     A"                     A"                     A'
 Frequencies --   -327.0032              -120.9305               168.4370
 Red. masses --      3.3190                 1.6033                 4.1744
 Frc consts  --      0.2091                 0.0138                 0.0698
 IR Inten    --    238.1935                24.4540                 3.2329

                      4                      5                      6
                     A"                     A'                     A'
 Frequencies --    254.9772               458.2957               558.3270
 Red. masses --      2.3500                 4.7819                 7.0173
 Frc consts  --      0.0900                 0.5918                 1.2888
 IR Inten    --     23.6713                 7.7219                43.7889

                      7                      8                      9
                     A"                     A"                     A'
 Frequencies --    776.2206               829.7218               873.6685
 Red. masses --      1.1921                 1.6145                 1.3571
 Frc consts  --      0.4232                 0.6549                 0.6103
 IR Inten    --     88.2930                20.7485                12.9737

                     10                     11                     12
                     A'                     A"                     A'
 Frequencies --   1008.7323              1015.4136              1162.9497
 Red. masses --      2.7957                 1.3031                 3.1380
 Frc consts  --      1.6760                 0.7916                 2.5005
 IR Inten    --     19.0028                14.9128                 5.9405

                     13                     14                     15
                     A'                     A'                     A'
 Frequencies --   1279.4201              1341.8961              1468.4400
 Red. masses --      1.6805                 1.4342                 1.1879
 Frc consts  --      1.6208                 1.5216                 1.5092
 IR Inten    --     27.5575               445.2082                 0.5692

                     16                     17                     18
                     A'                     A'                     A"
 Frequencies --   1548.4534              1867.1238              2735.4230
 Red. masses --      3.8694                10.9404                 1.1201
 Frc consts  --      5.4663                22.4714                 4.9379
 IR Inten    --   1161.9645                31.9485              4246.1341

                     19                     20                     21
                     A'                     A'                     A'
 Frequencies --   2827.0412              2874.8564              3083.4693
 Red. masses --      1.0764                 1.0451                 1.0830
 Frc consts  --      5.0685                 5.0891                 6.0666
 IR Inten    --    163.9722               944.8597                35.5892

 - Thermochemistry -
 -------------------
 Temperature   298.150 Kelvin.  Pressure   1.00000 Atm.
 Atom     1 has atomic number  6 and mass  12.00000

 Molecular mass:    68.02621 amu.
 Principal axes and moments of inertia in atomic units:
                           1         2         3
     Eigenvalues --    41.82381 806.65392 836.32475
           X            0.98613   0.16595   0.00000
           Y           -0.16595   0.98613   0.00000
           Z            0.00000  -0.00000   1.00000
 This molecule is an asymmetric top.
 Rotational symmetry number  1.
 Rotational temperatures (Kelvin)      2.07092     0.10737     0.10356
 Rotational constants (GHZ):          43.15105     2.23732     2.15794
    2 imaginary frequencies ignored.
 Zero-point vibrational energy     156309.3 (Joules/Mol)
                                   37.35881 (Kcal/Mol)
 Warning -- explicit consideration of   4 degrees of freedom as
           vibrations may cause significant error
 Vibrational temperatures:    242.34   366.85   659.38   803.31  1116.81
          (Kelvin)           1193.78  1257.01  1451.34  1460.95  1673.22
                             1840.80  1930.69  2112.76  2227.88  2686.37
                             3935.66  4067.48  4136.27  4436.42

 Zero-point correction=                           0.059535 (Hartree/Particle)
 Thermal correction to Energy=                    0.064238
 Thermal correction to Enthalpy=                  0.065182
 Thermal correction to Gibbs Free Energy=         0.031393
 Sum of electronic and zero-point Energies=           -230.017596
 Sum of electronic and thermal Energies=              -230.012894
 Sum of electronic and thermal Enthalpies=            -230.011949
 Sum of electronic and thermal Free Energies=         -230.045738

                     E (Thermal)             CV                S
                      KCal/Mol        Cal/Mol-Kelvin    Cal/Mol-Kelvin
 Total                   40.310             15.306             71.114
 Electronic               0.000              0.000              1.377
 Translational            0.889              2.981             38.570
 Rotational               0.889              2.981             24.849
 Vibrational             38.532              9.345              6.319
 Vibration     1          0.625              1.881              2.453
 Vibration     2          0.665              1.754              1.696
 Vibration     3          0.816              1.343              0.771
 Vibration     4          0.914              1.122              0.527

 Optimization completed.
    -- Stationary point found.
 Normal termination of Gaussian 09 at Thu Mar  7 17:36:02 2019.
