 Gaussian 09, Revision E.01,
 Gaussian 09:  EM64L-G09RevE.01 30-Nov-2015

 ------------------------------------------------------
 #p b3lyp/6-311++G(3df,2p) freq IOp(2/17=3) IOp(2/18=3)
 ------------------------------------------------------

 ---------
 b3lyp opt
 ---------
 Symbolic Z-matrix:
 Charge = -1 Multiplicity = 2

                         Standard orientation:
 ---------------------------------------------------------------------
 Center     Atomic      Atomic             Coordinates (Angstroms)
 Number     Number       Type             X           Y           Z
 ---------------------------------------------------------------------
      1          8           0        0.000000   -0.000000    2.332622
      2          6           0        0.000000   -0.760879   -1.450139
      3          6           0        0.000000    0.760879   -1.450139
      4          6           0        0.000000    0.000000   -0.164396
      5          6           0        0.000000   -0.000000    1.124444
      6          1           0        0.908750   -1.280315   -1.754902
      7          1           0       -0.908750   -1.280315   -1.754902
      8          1           0       -0.908750    1.280315   -1.754902
      9          1           0        0.908750    1.280315   -1.754902
 ---------------------------------------------------------------------

 SCF Done:  E(UB3LYP) =  -230.038899597     A.U. after   25 cycles

 The electronic state is 2-B2.
 Alpha  occ. eigenvalues --  -18.96885 -10.07209 -10.03601 -10.03579 -10.01115
 Alpha  occ. eigenvalues --   -0.88546  -0.70322  -0.53753  -0.46107  -0.36587
 Alpha  occ. eigenvalues --   -0.32868  -0.31002  -0.25621  -0.23679  -0.22425
 Alpha  occ. eigenvalues --   -0.17804  -0.15646  -0.05378   0.06944
 Alpha virt. eigenvalues --    0.09393   0.11015   0.11425   0.13191   0.14213
 Alpha virt. eigenvalues --    0.17197   0.17308   0.18133   0.20564   0.21469
 Alpha virt. eigenvalues --    0.21939   0.22337   0.22909   0.24747   0.24748

  Beta  occ. eigenvalues --  -18.96429 -10.06711 -10.03420 -10.03398 -10.01234
  Beta  occ. eigenvalues --   -0.87681  -0.70000  -0.52729  -0.45739  -0.36368
  Beta  occ. eigenvalues --   -0.32752  -0.30370  -0.23198  -0.23171  -0.22290
  Beta  occ. eigenvalues --   -0.17416  -0.14508  -0.05251
  Beta virt. eigenvalues --    0.10010   0.11008   0.11802   0.14162   0.14226
  Beta virt. eigenvalues --    0.15037   0.17098   0.17468   0.18573   0.20249
  Beta virt. eigenvalues --    0.21683   0.22331   0.22404   0.23168   0.24824

 Mulliken charges and spin densities:
               1          2
     1  O   -0.752356   0.128437
     2  C    0.706170  -0.914626
     3  C    0.706170  -0.914626
     4  C   -0.708391   1.023794
     5  C    0.048806   0.204432
     6  H   -0.250100   0.368147
     7  H   -0.250100   0.368147
     8  H   -0.250100   0.368147
     9  H   -0.250100   0.368147
 Sum of Mulliken charges =  -1.00000   1.00000

 Dipole moment (field-independent basis, Debye):
    X=             -0.0000    Y=             -0.0000    Z=              0.8417  Tot=              0.8417
 Quadrupole moment (field-independent basis, Debye-Ang):
   XX=            -39.9876   YY=            -55.3949   ZZ=            -61.8114
   XY=             -0.0000   XZ=              0.0000   YZ=             -0.0000

  Exact polarizability: 459.165   0.0006321.731  -0.000  -0.000 331.440
 Approx polarizability: 263.007   0.0001018.616   0.000  -0.000 563.384

 ******    1 imaginary frequencies (negative Signs) ******

                      1                      2                      3
                     B2                     B1                     B2
 Frequencies --   -287.9000               117.0028               304.4166
 Red. masses --     12.1558                 3.6679                 3.9193
 Frc consts  --      0.5936                 0.0296                 0.2140
 IR Inten    --   3639.0157                 7.9344                43.9510

                      4                      5                      6
                     B1                     A1                     B2
 Frequencies --    515.4091               609.5730               755.0094
 Red. masses --     11.2041                 4.8332                 7.1694
 Frc consts  --      1.7536                 1.0581                 2.4079
 IR Inten    --     12.0283               291.1746             12766.6009

                      7                      8                      9
                     B1                     A2                     A1
 Frequencies --    779.4049               858.1800               952.5587
 Red. masses --      1.0226                 1.0917                 4.9508
 Frc consts  --      0.3660                 0.4737                 2.6467
 IR Inten    --    191.1762                 0.0000               686.7562

                     10                     11                     12
                     A1                     B1                     B2
 Frequencies --   1009.1417              1045.0761              1065.0184
 Red. masses --      1.2369                 1.3251                 1.3966
 Frc consts  --      0.7421                 0.8527                 0.9334
 IR Inten    --     12.7322                50.6752               213.2551

                     13                     14                     15
                     A2                     A1                     B2
 Frequencies --   1159.9167              1368.6926              1443.1473
 Red. masses --      1.2621                 4.0163                 1.0896
 Frc consts  --      1.0004                 4.4329                 1.3370
 IR Inten    --      0.0000              1182.8621              5858.8360

                     16                     17                     18
                     A1                     A1                     B2
 Frequencies --   1475.7508              2030.9591              2982.9494
 Red. masses --      1.3452                12.2015                 1.0477
 Frc consts  --      1.7261                29.6528                 5.4925
 IR Inten    --     53.8607              2987.3899             26185.8838

                     19                     20                     21
                     A1                     A2                     B1
 Frequencies --   2997.8132              3050.4864              3090.5358
 Red. masses --      1.0542                 1.1244                 1.1164
 Frc consts  --      5.5820                 6.1645                 6.2823
 IR Inten    --     27.7430                 0.0000                67.0237

 - Thermochemistry -
 -------------------
 Temperature   298.150 Kelvin.  Pressure   1.00000 Atm.
 Atom     1 has atomic number  8 and mass  15.99491

 Molecular mass:    68.02621 amu.
 Principal axes and moments of inertia in atomic units:
                           1         2         3
     Eigenvalues --    85.10480 600.04768 661.37522
           X           -0.00000  -0.00000   1.00000
           Y           -0.00000   1.00000   0.00000
           Z            1.00000   0.00000   0.00000
 This molecule is an asymmetric top.
 Rotational symmetry number  2.
 Rotational temperatures (Kelvin)      1.01773     0.14434     0.13096
 Rotational constants (GHZ):          21.20610     3.00766     2.72877
    1 imaginary frequencies ignored.
 Zero-point vibrational energy     165150.7 (Joules/Mol)
                                   39.47197 (Kcal/Mol)
 Warning -- explicit consideration of   4 degrees of freedom as
           vibrations may cause significant error
 Vibrational temperatures:    168.34   437.99   741.56   877.04  1086.29
          (Kelvin)           1121.39  1234.73  1370.52  1451.93  1503.63
                             1532.32  1668.86  1969.24  2076.36  2123.27
                             2922.09  4291.79  4313.18  4388.96  4446.59

 Zero-point correction=                           0.062903 (Hartree/Particle)
 Thermal correction to Energy=                    0.067640
 Thermal correction to Enthalpy=                  0.068584
 Thermal correction to Gibbs Free Energy=         0.035191
 Sum of electronic and zero-point Energies=           -229.975997
 Sum of electronic and thermal Energies=              -229.971260
 Sum of electronic and thermal Enthalpies=            -229.970316
 Sum of electronic and thermal Free Energies=         -230.003708

                     E (Thermal)             CV                S
                      KCal/Mol        Cal/Mol-Kelvin    Cal/Mol-Kelvin
 Total                   42.445             15.738             70.281
 Electronic               0.000              0.000              1.377
 Translational            0.889              2.981             38.570
 Rotational               0.889              2.981             23.650
 Vibrational             40.667              9.776              6.684
 Vibration     1          0.608              1.935              3.149
 Vibration     2          0.695              1.665              1.393
 Vibration     3          0.870              1.216              0.621
 Vibration     4          0.969              1.012              0.433

 Optimization completed.
    -- Stationary point found.
 Normal termination of Gaussian 09 at Thu Mar  7 12:40:58 2019.
