 Gaussian 09, Revision E.01,
 Gaussian 09:  EM64L-G09RevE.01 30-Nov-2015

 ------------------------------------------------------
 #p b3lyp/6-311++G(3df,2p) freq IOp(2/17=3) IOp(2/18=3)
 ------------------------------------------------------

 ---------
 b3lyp opt
 ---------
 Symbolic Z-matrix:
 Charge = -1 Multiplicity = 4

                         Standard orientation:
 ---------------------------------------------------------------------
 Center     Atomic      Atomic             Coordinates (Angstroms)
 Number     Number       Type             X           Y           Z
 ---------------------------------------------------------------------
      1          6           0        0.446958    1.283205    0.646815
      2          6           0       -0.623890   -1.051811    0.000000
      3          8           0        0.446958   -1.781770    0.000000
      4          6           0       -0.622391    0.456172    0.000000
      5          6           0        0.446958    1.283205   -0.646815
      6          1           0        0.887831    1.602812    1.575623
      7          1           0       -1.657255    0.797003    0.000000
      8          1           0       -1.579874   -1.573086    0.000000
      9          1           0        0.887831    1.602812   -1.575623
 ---------------------------------------------------------------------

 SCF Done:  E(UB3LYP) =  -229.884819329     A.U. after   26 cycles

 The electronic state is 4-A".
 Alpha  occ. eigenvalues --  -19.07892 -10.10270 -10.10039 -10.08122 -10.08012
 Alpha  occ. eigenvalues --   -0.95337  -0.77935  -0.57917  -0.46200  -0.45730
 Alpha  occ. eigenvalues --   -0.40259  -0.39605  -0.33451  -0.31309  -0.27078
 Alpha  occ. eigenvalues --   -0.23187  -0.21131  -0.15893  -0.03301   0.05545
 Alpha virt. eigenvalues --    0.07989   0.08343   0.09683   0.10018   0.13877
 Alpha virt. eigenvalues --    0.15508   0.16199   0.16886   0.19142   0.19494
 Alpha virt. eigenvalues --    0.20192   0.20836   0.21208   0.21260   0.21457

  Beta  occ. eigenvalues --  -19.05230 -10.10148 -10.08924 -10.07925 -10.07815
  Beta  occ. eigenvalues --   -0.89544  -0.77275  -0.54868  -0.45637  -0.43650
  Beta  occ. eigenvalues --   -0.39028  -0.35698  -0.31338  -0.25903  -0.24693
  Beta  occ. eigenvalues --   -0.19339  -0.15801
  Beta virt. eigenvalues --   -0.06125   0.08399   0.08912   0.09845   0.09878
  Beta virt. eigenvalues --    0.10910   0.11247   0.14324   0.16169   0.16912
  Beta virt. eigenvalues --    0.17197   0.19155   0.20046   0.20747   0.21518

 Mulliken charges and spin densities:
               1          2
     1  C    1.833200  -1.863152
     2  C    1.681850  -1.121367
     3  O   -0.434169   0.926199
     4  C   -1.328723   1.367691
     5  C    1.833200  -1.863152
     6  H   -1.442999   1.697148
     7  H   -1.178353   1.352906
     8  H   -0.521007   0.806580
     9  H   -1.442999   1.697148
 Sum of Mulliken charges =  -1.00000   3.00000

 Dipole moment (field-independent basis, Debye):
    X=              0.6915    Y=             -5.0635    Z=              0.0000  Tot=              5.1105
 Quadrupole moment (field-independent basis, Debye-Ang):
   XX=            -65.9848   YY=            -73.0660   ZZ=            -61.8099
   XY=             -7.1312   XZ=              0.0000   YZ=             -0.0000

  Exact polarizability:2032.906 855.3821564.881  -0.000  -0.0002317.328
 Approx polarizability:1919.210 956.5021280.665   0.000  -0.0001592.530

 ******    1 imaginary frequencies (negative Signs) ******

                      1                      2                      3
                     A"                     A"                     A'
 Frequencies --   -480.8807               104.1143               236.8564
 Red. masses --      1.4784                 2.6773                 6.5098
 Frc consts  --      0.2014                 0.0171                 0.2152
 IR Inten    --    285.0338                28.9078               102.4903

                      4                      5                      6
                     A"                     A'                     A'
 Frequencies --    390.7516               508.8822               665.5133
 Red. masses --      2.7081                 2.3559                 1.6749
 Frc consts  --      0.2436                 0.3595                 0.4371
 IR Inten    --      8.4340               348.8414               810.4716

                      7                      8                      9
                     A"                     A'                     A'
 Frequencies --    731.2445               820.5921               849.7971
 Red. masses --      2.6660                 7.9690                 1.7433
 Frc consts  --      0.8399                 3.1616                 0.7417
 IR Inten    --      8.1585               846.8218               188.7776

                     10                     11                     12
                     A"                     A'                     A"
 Frequencies --    875.4304               957.4654              1001.3309
 Red. masses --      1.5180                 1.3237                 1.3672
 Frc consts  --      0.6854                 0.7150                 0.8077
 IR Inten    --   1214.5755               583.7097              1109.1454

                     13                     14                     15
                     A"                     A'                     A'
 Frequencies --   1014.8619              1178.3796              1222.2566
 Red. masses --      1.4688                 1.5524                 2.5598
 Frc consts  --      0.8913                 1.2700                 2.2531
 IR Inten    --    145.8389               212.4170                33.6410

                     16                     17                     18
                     A'                     A'                     A'
 Frequencies --   1396.6681              1688.8875              3039.1810
 Red. masses --      1.5775                 5.2318                 1.0811
 Frc consts  --      1.8131                 8.7923                 5.8833
 IR Inten    --    108.5271                68.0382               149.2796

                     19                     20                     21
                     A'                     A"                     A'
 Frequencies --   3074.9546              3206.5755              3241.4229
 Red. masses --      1.0807                 1.0849                 1.1459
 Frc consts  --      6.0204                 6.5722                 7.0934
 IR Inten    --    313.0872                 2.1386               114.0393

 - Thermochemistry -
 -------------------
 Temperature   298.150 Kelvin.  Pressure   1.00000 Atm.
 Atom     1 has atomic number  6 and mass  12.00000

 Molecular mass:    68.02621 amu.
 Principal axes and moments of inertia in atomic units:
                           1         2         3
     Eigenvalues --   136.36900 465.49380 494.41017
           X            0.10460   0.99451   0.00000
           Y            0.99451  -0.10460   0.00000
           Z           -0.00000  -0.00000   1.00000
 This molecule is an asymmetric top.
 Rotational symmetry number  1.
 Rotational temperatures (Kelvin)      0.63514     0.18607     0.17519
 Rotational constants (GHZ):          13.23425     3.87705     3.65029
    1 imaginary frequencies ignored.
 Zero-point vibrational energy     156741.7 (Joules/Mol)
                                   37.46217 (Kcal/Mol)
 Warning -- explicit consideration of   4 degrees of freedom as
           vibrations may cause significant error
 Vibrational temperatures:    149.80   340.78   562.20   732.17   957.52
          (Kelvin)           1052.10  1180.65  1222.67  1259.55  1377.58
                             1440.69  1460.16  1695.42  1758.55  2009.49
                             2429.93  4372.70  4424.17  4613.54  4663.68

 Zero-point correction=                           0.059700 (Hartree/Particle)
 Thermal correction to Energy=                    0.064884
 Thermal correction to Enthalpy=                  0.065828
 Thermal correction to Gibbs Free Energy=         0.030360
 Sum of electronic and zero-point Energies=           -229.825120
 Sum of electronic and thermal Energies=              -229.819936
 Sum of electronic and thermal Enthalpies=            -229.818991
 Sum of electronic and thermal Free Energies=         -229.854460

                     E (Thermal)             CV                S
                      KCal/Mol        Cal/Mol-Kelvin    Cal/Mol-Kelvin
 Total                   40.715             17.522             74.649
 Electronic               0.000              0.000              2.755
 Translational            0.889              2.981             38.570
 Rotational               0.889              2.981             24.954
 Vibrational             38.938             11.561              8.371
 Vibration     1          0.605              1.946              3.376
 Vibration     2          0.656              1.784              1.826
 Vibration     3          0.758              1.490              0.997
 Vibration     4          0.864              1.230              0.636

 Optimization completed.
    -- Stationary point found.
 Normal termination of Gaussian 09 at Fri Mar  8 02:31:28 2019.
