 Gaussian 09, Revision E.01,
 Gaussian 09:  EM64L-G09RevE.01 30-Nov-2015

 ------------------------------------------------------
 #p b3lyp/6-311++G(3df,2p) freq IOp(2/17=3) IOp(2/18=3)
 ------------------------------------------------------

 ---------
 b3lyp opt
 ---------
 Symbolic Z-matrix:
 Charge = -1 Multiplicity = 4

                         Standard orientation:
 ---------------------------------------------------------------------
 Center     Atomic      Atomic             Coordinates (Angstroms)
 Number     Number       Type             X           Y           Z
 ---------------------------------------------------------------------
      1          8           0        0.468187   -0.013289   -0.000000
      2          6           0       -0.530126    0.937469    0.000000
      3          6           0        0.000000    2.350319   -0.000000
      4          6           0        0.166737   -1.276700    0.000000
      5          6           0       -0.030598   -2.460303    0.000000
      6          1           0       -1.551469    0.605310    0.000000
      7          1           0       -0.686405    3.184340    0.000000
      8          1           0        1.064258    2.519896   -0.000000
      9          1           0       -0.207962   -3.507951    0.000000
 ---------------------------------------------------------------------

 SCF Done:  E(UB3LYP) =  -229.865525066     A.U. after   28 cycles

 The electronic state is 4-A'.
 Alpha  occ. eigenvalues --  -19.11801 -10.12954 -10.12457 -10.08625 -10.06251
 Alpha  occ. eigenvalues --   -1.02919  -0.68483  -0.63349  -0.54867  -0.47109
 Alpha  occ. eigenvalues --   -0.41243  -0.37629  -0.37379  -0.32181  -0.29449
 Alpha  occ. eigenvalues --   -0.20836  -0.17616  -0.15325  -0.02799   0.05334
 Alpha virt. eigenvalues --    0.07089   0.09095   0.10184   0.12738   0.13565
 Alpha virt. eigenvalues --    0.14305   0.14749   0.15994   0.17248   0.17862
 Alpha virt. eigenvalues --    0.18716   0.19470   0.21400   0.21491   0.21830

  Beta  occ. eigenvalues --  -19.11314 -10.12515 -10.11589 -10.07189 -10.06061
  Beta  occ. eigenvalues --   -1.01835  -0.66761  -0.61482  -0.52397  -0.45506
  Beta  occ. eigenvalues --   -0.40967  -0.36219  -0.34540  -0.31151  -0.28416
  Beta  occ. eigenvalues --   -0.17407  -0.16301
  Beta virt. eigenvalues --   -0.02893   0.08336   0.09114   0.10114   0.11287
  Beta virt. eigenvalues --    0.11528   0.13100   0.14131   0.15203   0.15560
  Beta virt. eigenvalues --    0.16407   0.17906   0.19319   0.19893   0.20093

 Mulliken charges and spin densities:
               1          2
     1  O   -0.620186   0.189442
     2  C   -0.555753   1.522647
     3  C    1.339048  -0.657788
     4  C    4.707890  -4.883795
     5  C   -1.743759   1.954417
     6  H   -0.589318   0.743846
     7  H   -0.614952   0.747949
     8  H   -0.245151   0.377519
     9  H   -2.677819   3.005764
 Sum of Mulliken charges =  -1.00000   3.00000

 Dipole moment (field-independent basis, Debye):
    X=              2.8417    Y=              3.7522    Z=             -0.0000  Tot=              4.7068
 Quadrupole moment (field-independent basis, Debye-Ang):
   XX=            -56.1837   YY=           -113.4593   ZZ=            -50.7479
   XY=              1.2375   XZ=              0.0000   YZ=              0.0000

  Exact polarizability:1298.056 -35.0703778.729  -0.233  -0.204 244.067
 Approx polarizability: 710.856-412.5297038.182  -0.000  -0.000 222.599

 ******    3 imaginary frequencies (negative Signs) ******

                      1                      2                      3
                     A"                     A"                     A"
 Frequencies --   -637.9076              -462.0638              -278.3214
 Red. masses --      1.1855                 1.3912                 1.1875
 Frc consts  --      0.2842                 0.1750                 0.0542
 IR Inten    --     68.9667                28.8946                68.2852

                      4                      5                      6
                     ?A                     ?A                     A'
 Frequencies --    132.8231               175.7540               368.6668
 Red. masses --      4.4112                 3.9127                 3.2919
 Frc consts  --      0.0459                 0.0712                 0.2636
 IR Inten    --     21.6043                27.0358                11.8394

                      7                      8                      9
                     A"                     A'                     ?A
 Frequencies --    446.1525               542.3145               659.2604
 Red. masses --      9.3951                 7.7118                 1.1737
 Frc consts  --      1.1018                 1.3363                 0.3006
 IR Inten    --     21.4651                54.7875              1450.2311

                     10                     11                     12
                     ?A                     A'                     A'
 Frequencies --    701.4412               829.1865              1057.2774
 Red. masses --      1.1788                 1.9189                 3.8698
 Frc consts  --      0.3417                 0.7773                 2.5487
 IR Inten    --   1569.6413                82.9054               577.9342

                     13                     14                     15
                     A'                     A'                     A'
 Frequencies --   1103.6549              1225.3482              1351.8308
 Red. masses --      2.5588                 3.7003                 1.3937
 Frc consts  --      1.8363                 3.2734                 1.5006
 IR Inten    --    174.4171               671.2204                63.4774

                     16                     17                     18
                     A'                     A'                     A'
 Frequencies --   1426.9791              2225.6551              3133.9049
 Red. masses --      1.3163                 6.0994                 1.0528
 Frc consts  --      1.5793                17.8014                 6.0923
 IR Inten    --    476.0527               165.1970               403.8063

                     19                     20                     21
                     A'                     A'                     A'
 Frequencies --   3258.5294              3265.6847              3422.0001
 Red. masses --      1.0933                 1.1188                 1.1653
 Frc consts  --      6.8394                 7.0300                 8.0400
 IR Inten    --    212.0616                 5.1493              1831.7021

 - Thermochemistry -
 -------------------
 Temperature   298.150 Kelvin.  Pressure   1.00000 Atm.
 Atom     1 has atomic number  8 and mass  15.99491

 Molecular mass:    68.02621 amu.
 Principal axes and moments of inertia in atomic units:
                           1         2         3
     Eigenvalues --    39.25196 709.21436 748.46632
           X           -0.03931   0.99923   0.00000
           Y            0.99923   0.03931   0.00000
           Z           -0.00000  -0.00000   1.00000
 This molecule is an asymmetric top.
 Rotational symmetry number  1.
 Rotational temperatures (Kelvin)      2.20661     0.12213     0.11572
 Rotational constants (GHZ):          45.97837     2.54470     2.41125
    3 imaginary frequencies ignored.
 Zero-point vibrational energy     151485.9 (Joules/Mol)
                                   36.20600 (Kcal/Mol)
 Warning -- explicit consideration of   5 degrees of freedom as
           vibrations may cause significant error
 Vibrational temperatures:    191.10   252.87   530.43   641.91   780.27
          (Kelvin)            948.53  1009.22  1193.01  1521.18  1587.91
                             1763.00  1944.98  2053.10  3202.22  4508.98
                             4688.29  4698.59  4923.49

 Zero-point correction=                           0.057698 (Hartree/Particle)
 Thermal correction to Energy=                    0.063005
 Thermal correction to Enthalpy=                  0.063949
 Thermal correction to Gibbs Free Energy=         0.028475
 Sum of electronic and zero-point Energies=           -229.807827
 Sum of electronic and thermal Energies=              -229.802521
 Sum of electronic and thermal Enthalpies=            -229.801576
 Sum of electronic and thermal Free Energies=         -229.837050

                     E (Thermal)             CV                S
                      KCal/Mol        Cal/Mol-Kelvin    Cal/Mol-Kelvin
 Total                   39.536             17.167             74.662
 Electronic               0.000              0.000              2.755
 Translational            0.889              2.981             38.570
 Rotational               0.889              2.981             24.547
 Vibrational             37.758             11.205              8.790
 Vibration     1          0.613              1.921              2.905
 Vibration     2          0.628              1.872              2.373
 Vibration     3          0.741              1.537              1.085
 Vibration     4          0.805              1.369              0.807
 Vibration     5          0.897              1.157              0.560

 Optimization completed.
    -- Stationary point found.
 Normal termination of Gaussian 09 at Fri Mar  8 02:32:03 2019.
