 Gaussian 09, Revision E.01,
 Gaussian 09:  EM64L-G09RevE.01 30-Nov-2015

 ------------------------------------------------------
 #p b3lyp/6-311++G(3df,2p) freq IOp(2/17=3) IOp(2/18=3)
 ------------------------------------------------------

 ---------
 b3lyp opt
 ---------
 Symbolic Z-matrix:
 Charge = -1 Multiplicity = 4

                         Standard orientation:
 ---------------------------------------------------------------------
 Center     Atomic      Atomic             Coordinates (Angstroms)
 Number     Number       Type             X           Y           Z
 ---------------------------------------------------------------------
      1          6           0        0.677851    0.147957   -0.000304
      2          1           0        1.223382   -0.282444    0.865123
      3          1           0        1.228311   -0.290530   -0.858241
      4          1           0       -2.501358    0.952254    0.000115
      5          1           0        0.788053    1.239600   -0.004158
      6          8           0       -0.600687   -0.313328   -0.000127
 ---------------------------------------------------------------------

 SCF Done:  E(UB3LYP) =  -115.578373312     A.U. after   19 cycles

 The electronic state is 4-A.
 Alpha  occ. eigenvalues --  -19.04665 -10.08275  -0.90597  -0.53939  -0.35002
 Alpha  occ. eigenvalues --   -0.33281  -0.31903  -0.20018  -0.19128  -0.14863
 Alpha  occ. eigenvalues --    0.06376
 Alpha virt. eigenvalues --    0.11507   0.11538   0.14010   0.15863   0.19422
 Alpha virt. eigenvalues --    0.20377   0.22266   0.28408   0.28472   0.29456
 Alpha virt. eigenvalues --    0.31757   0.32562   0.35636   0.38253   0.44368

  Beta  occ. eigenvalues --  -19.02180 -10.08183  -0.85201  -0.51664  -0.32263
  Beta  occ. eigenvalues --   -0.29546  -0.29466  -0.14422
  Beta virt. eigenvalues --   -0.01987   0.02941   0.10799   0.13605   0.13980
  Beta virt. eigenvalues --    0.16500   0.16776   0.20088   0.20966   0.23057
  Beta virt. eigenvalues --    0.28695   0.29490   0.30110   0.33429   0.33858

 Mulliken charges and spin densities:
               1          2
     1  C    3.522676  -3.547071
     2  H   -1.438237   1.688699
     3  H   -1.434591   1.683197
     4  H   -0.072834   1.004818
     5  H   -0.961121   1.088579
     6  O   -0.615894   1.081778
 Sum of Mulliken charges =  -1.00000   3.00000

 Dipole moment (field-independent basis, Debye):
    X=             -6.3946    Y=             -0.5795    Z=             -0.0177  Tot=              6.4209
 Quadrupole moment (field-independent basis, Debye-Ang):
   XX=            -49.0118   YY=            -38.2739   ZZ=            -38.7214
   XY=              1.7620   XZ=             -0.0222   YZ=             -0.0018

  Exact polarizability: 250.021-125.752 749.843  -0.925  -0.111 778.768
 Approx polarizability: 204.229-108.075 574.417  -0.728  -0.067 663.835

 ******    1 imaginary frequencies (negative Signs) ******

                      1                      2                      3
                      A                      A                      A
 Frequencies --    -77.0456               110.7110               269.9487
 Red. masses --      1.0639                 1.2205                 1.0948
 Frc consts  --      0.0037                 0.0088                 0.0470
 IR Inten    --    245.3684                 2.5665                44.8073

                      4                      5                      6
                      A                      A                      A
 Frequencies --    639.0432              1021.5950              1172.1493
 Red. masses --      1.4329                 3.9584                 1.5240
 Frc consts  --      0.3448                 2.4341                 1.2337
 IR Inten    --    599.9882               162.6079                62.4514

                      7                      8                      9
                      A                      A                      A
 Frequencies --   1294.9748              1368.3409              1471.9796
 Red. masses --      1.0978                 1.0252                 1.1097
 Frc consts  --      1.0847                 1.1310                 1.4166
 IR Inten    --    505.3542               670.4459               843.9509

                     10                     11                     12
                      A                      A                      A
 Frequencies --   2810.2802              2831.8402              2986.8519
 Red. masses --      1.0338                 1.0784                 1.0997
 Frc consts  --      4.8106                 5.0951                 5.7803
 IR Inten    --     99.5083                59.2395                51.3143

 - Thermochemistry -
 -------------------
 Temperature   298.150 Kelvin.  Pressure   1.00000 Atm.
 Atom     1 has atomic number  6 and mass  12.00000

 Molecular mass:    32.02621 amu.
 Principal axes and moments of inertia in atomic units:
                           1         2         3
     Eigenvalues --    20.10713  82.03595  91.45378
           X            0.99286  -0.11926   0.00003
           Y            0.11926   0.99286   0.00001
           Z           -0.00003  -0.00000   1.00000
 This molecule is an asymmetric top.
 Rotational symmetry number  1.
 Rotational temperatures (Kelvin)      4.30762     1.05580     0.94708
 Rotational constants (GHZ):          89.75629    21.99939    19.73392
    1 imaginary frequencies ignored.
 Zero-point vibrational energy      95568.0 (Joules/Mol)
                                   22.84129 (Kcal/Mol)
 Warning -- explicit consideration of   2 degrees of freedom as
           vibrations may cause significant error
 Vibrational temperatures:    159.29   388.40   919.44  1469.85  1686.46
          (Kelvin)           1863.18  1968.73  2117.85  4043.36  4074.38
                             4297.41

 Zero-point correction=                           0.036400 (Hartree/Particle)
 Thermal correction to Energy=                    0.040624
 Thermal correction to Enthalpy=                  0.041568
 Thermal correction to Gibbs Free Energy=         0.011082
 Sum of electronic and zero-point Energies=           -115.541973
 Sum of electronic and thermal Energies=              -115.537750
 Sum of electronic and thermal Enthalpies=            -115.536805
 Sum of electronic and thermal Free Energies=         -115.567292

                     E (Thermal)             CV                S
                      KCal/Mol        Cal/Mol-Kelvin    Cal/Mol-Kelvin
 Total                   25.492             11.511             64.164
 Electronic               0.000              0.000              2.755
 Translational            0.889              2.981             36.324
 Rotational               0.889              2.981             19.651
 Vibrational             23.714              5.549              5.434
 Vibration     1          0.607              1.941              3.256
 Vibration     2          0.674              1.729              1.597

 Normal termination of Gaussian 09 at Fri Mar  8 03:40:23 2019.
