 Gaussian 09, Revision E.01,
 Gaussian 09:  EM64L-G09RevE.01 30-Nov-2015

 ------------------------------------------------------
 #p b3lyp/6-311++G(3df,2p) freq IOp(2/17=3) IOp(2/18=3)
 ------------------------------------------------------

 ---------
 b3lyp opt
 ---------
 Symbolic Z-matrix:
 Charge = -1 Multiplicity = 3

                         Standard orientation:
 ---------------------------------------------------------------------
 Center     Atomic      Atomic             Coordinates (Angstroms)
 Number     Number       Type             X           Y           Z
 ---------------------------------------------------------------------
      1          6           0        0.418637    0.428838   -0.000219
      2          6           0       -0.841005    0.049123   -0.000034
      3          6           0       -2.113434   -0.158243    0.000137
      4          1           0        2.318785    0.362786    0.001392
      5          8           0        1.612003   -0.285137   -0.000087
 ---------------------------------------------------------------------

 SCF Done:  E(UB3LYP) =  -190.030116775     A.U. after   19 cycles

 The electronic state is 3-A.
 Alpha  occ. eigenvalues --  -19.00720 -10.03875  -9.95422  -9.94990  -0.89971
 Alpha  occ. eigenvalues --   -0.56689  -0.46990  -0.36572  -0.29957  -0.23833
 Alpha  occ. eigenvalues --   -0.12263  -0.10300  -0.07063  -0.02267   0.03278
 Alpha virt. eigenvalues --    0.09884   0.17069   0.18210   0.18964   0.19448
 Alpha virt. eigenvalues --    0.21042   0.21510   0.23505   0.25575   0.27185
 Alpha virt. eigenvalues --    0.27425   0.29074   0.31087   0.32336   0.32969

  Beta  occ. eigenvalues --  -19.00201 -10.01987  -9.95261  -9.94184  -0.88601
  Beta  occ. eigenvalues --   -0.54831  -0.44141  -0.35142  -0.27364  -0.21218
  Beta  occ. eigenvalues --   -0.08348  -0.07372  -0.04841
  Beta virt. eigenvalues --    0.08446   0.10770   0.14856   0.17388   0.18595
  Beta virt. eigenvalues --    0.19191   0.19822   0.21056   0.22307   0.24563
  Beta virt. eigenvalues --    0.26484   0.27925   0.27994   0.30538   0.31424

 Mulliken charges and spin densities:
               1          2
     1  C   -0.803092   1.450328
     2  C    1.027245  -0.555143
     3  C   -0.922058   1.046884
     4  H    0.219239   0.000027
     5  O   -0.521334   0.057904
 Sum of Mulliken charges =  -1.00000   2.00000

 Dipole moment (field-independent basis, Debye):
    X=              7.6485    Y=              0.9401    Z=              0.0021  Tot=              7.7060
 Quadrupole moment (field-independent basis, Debye-Ang):
   XX=            -44.9621   YY=            -29.1132   ZZ=            -28.8667
   XY=              0.3862   XZ=              0.0082   YZ=              0.0021

  Exact polarizability: 107.075  12.658  49.943  -0.004  -0.002  45.039
 Approx polarizability: 158.417  22.055  65.820  -0.005  -0.002  56.448

 ******    1 imaginary frequencies (negative Signs) ******

                      1                      2                      3
                      A                      A                      A
 Frequencies --    -59.8128               224.7394               377.6183
 Red. masses --      1.1262                 8.6016                11.2139
 Frc consts  --      0.0024                 0.2560                 0.9421
 IR Inten    --     90.5899                 4.0121                 1.5408

                      4                      5                      6
                      A                      A                      A
 Frequencies --    536.9083               862.1174              1178.1945
 Red. masses --      9.5961                 7.4235                 1.5192
 Frc consts  --      1.6298                 3.2508                 1.2425
 IR Inten    --      2.5481                90.3571               318.1834

                      7                      8                      9
                      A                      A                      A
 Frequencies --   1369.7667              1719.6421              3859.7790
 Red. masses --      3.8028                11.6561                 1.0661
 Frc consts  --      4.2039                20.3086                 9.3579
 IR Inten    --      9.1629               125.1801                80.6186

 - Thermochemistry -
 -------------------
 Temperature   298.150 Kelvin.  Pressure   1.00000 Atm.
 Atom     1 has atomic number  6 and mass  12.00000

 Molecular mass:    53.00274 amu.
 Principal axes and moments of inertia in atomic units:
                           1         2         3
     Eigenvalues --    14.14219 396.66811 410.81028
           X            0.99997   0.00792   0.00003
           Y           -0.00792   0.99997   0.00014
           Z           -0.00003  -0.00014   1.00000
 This molecule is an asymmetric top.
 Rotational symmetry number  1.
 Rotational temperatures (Kelvin)      6.12450     0.21835     0.21084
 Rotational constants (GHZ):         127.61399     4.54975     4.39313
    1 imaginary frequencies ignored.
 Zero-point vibrational energy      60583.5 (Joules/Mol)
                                   14.47980 (Kcal/Mol)
 Warning -- explicit consideration of   3 degrees of freedom as
           vibrations may cause significant error
 Vibrational temperatures:    323.35   543.31   772.49  1240.39  1695.16
          (Kelvin)           1970.79  2474.18  5553.35

 Zero-point correction=                           0.023075 (Hartree/Particle)
 Thermal correction to Energy=                    0.027051
 Thermal correction to Enthalpy=                  0.027996
 Thermal correction to Gibbs Free Energy=        -0.003431
 Sum of electronic and zero-point Energies=           -190.007042
 Sum of electronic and thermal Energies=              -190.003065
 Sum of electronic and thermal Enthalpies=            -190.002121
 Sum of electronic and thermal Free Energies=         -190.033547

                     E (Thermal)             CV                S
                      KCal/Mol        Cal/Mol-Kelvin    Cal/Mol-Kelvin
 Total                   16.975             11.376             66.142
 Electronic               0.000              0.000              2.183
 Translational            0.889              2.981             37.826
 Rotational               0.889              2.981             22.360
 Vibrational             15.198              5.414              3.774
 Vibration     1          0.649              1.803              1.921
 Vibration     2          0.748              1.518              1.049
 Vibration     3          0.892              1.168              0.572

 Optimization completed.
    -- Stationary point found.
 Normal termination of Gaussian 09 at Fri Mar  8 04:44:40 2019.
