 Gaussian 09, Revision E.01,
 Gaussian 09:  EM64L-G09RevE.01 30-Nov-2015

 ------------------------------------------------------
 #p b3lyp/6-311++G(3df,2p) freq IOp(2/17=3) IOp(2/18=3)
 ------------------------------------------------------

 ---------
 b3lyp opt
 ---------
 Symbolic Z-matrix:
 Charge = -1 Multiplicity = 3

                         Standard orientation:
 ---------------------------------------------------------------------
 Center     Atomic      Atomic             Coordinates (Angstroms)
 Number     Number       Type             X           Y           Z
 ---------------------------------------------------------------------
      1          6           0       -0.000000    1.847302   -0.000000
      2          6           0        0.004306   -0.546800    0.000000
      3          6           0       -0.696846    0.590091   -0.000000
      4          1           0       -1.793954    0.505249   -0.000000
      5          8           0        0.743649   -1.481101    0.000000
 ---------------------------------------------------------------------

 SCF Done:  E(UB3LYP) =  -190.047192424     A.U. after   18 cycles

 The electronic state is 3-A".
 Alpha  occ. eigenvalues --  -18.99057 -10.08504  -9.99266  -9.95990  -0.91165
 Alpha  occ. eigenvalues --   -0.59982  -0.40711  -0.33685  -0.30202  -0.26634
 Alpha  occ. eigenvalues --   -0.23614  -0.09764  -0.07568   0.02094   0.05483
 Alpha virt. eigenvalues --    0.11932   0.13831   0.15896   0.19302   0.20103
 Alpha virt. eigenvalues --    0.21458   0.21906   0.22853   0.23568   0.23955
 Alpha virt. eigenvalues --    0.25852   0.26655   0.27860   0.28915   0.30015

  Beta  occ. eigenvalues --  -18.98621 -10.07805  -9.99587  -9.93943  -0.90313
  Beta  occ. eigenvalues --   -0.58669  -0.36840  -0.32072  -0.29290  -0.24168
  Beta  occ. eigenvalues --   -0.22292  -0.07564  -0.04008
  Beta virt. eigenvalues --    0.11824   0.13783   0.14945   0.16342   0.17319
  Beta virt. eigenvalues --    0.19837   0.20243   0.21522   0.22558   0.23421
  Beta virt. eigenvalues --    0.24615   0.25621   0.26443   0.26843   0.27798

 Mulliken charges and spin densities:
               1          2
     1  C   -0.936263   1.685568
     2  C    0.500230   0.294753
     3  C    0.099785  -0.201106
     4  H    0.030719   0.102972
     5  O   -0.694471   0.117813
 Sum of Mulliken charges =  -1.00000   2.00000

 Dipole moment (field-independent basis, Debye):
    X=             -1.7139    Y=             -5.4266    Z=              0.0000  Tot=              5.6908
 Quadrupole moment (field-independent basis, Debye-Ang):
   XX=            -28.1762   YY=            -48.6528   ZZ=            -28.9589
   XY=              0.8823   XZ=              0.0000   YZ=              0.0000

  Exact polarizability:  62.006  -0.824  97.439  -0.000  -0.000  49.373
 Approx polarizability:  80.299 -10.188 160.396   0.000  -0.000  58.851

 ******    1 imaginary frequencies (negative Signs) ******

                      1                      2                      3
                     A"                     A'                     A"
 Frequencies --   -298.7587               198.3564               578.1823
 Red. masses --     11.5982                10.0328                 1.3586
 Frc consts  --      0.6099                 0.2326                 0.2676
 IR Inten    --      3.5774                55.0909                 5.8745

                      4                      5                      6
                     A'                     A'                     A'
 Frequencies --    588.0206               928.8080              1027.3070
 Red. masses --      8.2410                 4.6949                 6.4981
 Frc consts  --      1.6789                 2.3863                 4.0405
 IR Inten    --      3.7001                51.9694                84.7041

                      7                      8                      9
                     A'                     A'                     A'
 Frequencies --   1183.8870              2012.4208              2880.4702
 Red. masses --      1.3934                12.1921                 1.0797
 Frc consts  --      1.1506                29.0914                 5.2779
 IR Inten    --      2.3539               856.0097               270.9836

 - Thermochemistry -
 -------------------
 Temperature   298.150 Kelvin.  Pressure   1.00000 Atm.
 Atom     1 has atomic number  6 and mass  12.00000

 Molecular mass:    53.00274 amu.
 Principal axes and moments of inertia in atomic units:
                           1         2         3
     Eigenvalues --    37.05451 326.88498 363.93949
           X           -0.30359   0.95280   0.00000
           Y            0.95280   0.30359   0.00000
           Z           -0.00000  -0.00000   1.00000
 This molecule is an asymmetric top.
 Rotational symmetry number  1.
 Rotational temperatures (Kelvin)      2.33747     0.26497     0.23799
 Rotational constants (GHZ):          48.70504     5.52103     4.95890
    1 imaginary frequencies ignored.
 Zero-point vibrational energy      56209.2 (Joules/Mol)
                                   13.43433 (Kcal/Mol)
 Warning -- explicit consideration of   3 degrees of freedom as
           vibrations may cause significant error
 Vibrational temperatures:    285.39   831.87   846.03  1336.35  1478.06
          (Kelvin)           1703.35  2895.42  4144.35

 Zero-point correction=                           0.021409 (Hartree/Particle)
 Thermal correction to Energy=                    0.025244
 Thermal correction to Enthalpy=                  0.026188
 Thermal correction to Gibbs Free Energy=        -0.005349
 Sum of electronic and zero-point Energies=           -190.025783
 Sum of electronic and thermal Energies=              -190.021949
 Sum of electronic and thermal Enthalpies=            -190.021004
 Sum of electronic and thermal Free Energies=         -190.052541

                     E (Thermal)             CV                S
                      KCal/Mol        Cal/Mol-Kelvin    Cal/Mol-Kelvin
 Total                   15.841             10.977             66.374
 Electronic               0.000              0.000              2.183
 Translational            0.889              2.981             37.826
 Rotational               0.889              2.981             23.004
 Vibrational             14.063              5.015              3.362
 Vibration     1          0.637              1.842              2.148
 Vibration     2          0.935              1.078              0.489
 Vibration     3          0.945              1.057              0.471

 Normal termination of Gaussian 09 at Fri Mar  8 04:30:38 2019.
