 Gaussian 09, Revision E.01,
 Gaussian 09:  EM64L-G09RevE.01 30-Nov-2015

 ------------------------------------------------------
 #p b3lyp/6-311++G(3df,2p) freq IOp(2/17=3) IOp(2/18=3)
 ------------------------------------------------------

 ---------
 b3lyp opt
 ---------
 Symbolic Z-matrix:
 Charge = -1 Multiplicity = 1

                         Standard orientation:
 ---------------------------------------------------------------------
 Center     Atomic      Atomic             Coordinates (Angstroms)
 Number     Number       Type             X           Y           Z
 ---------------------------------------------------------------------
      1          6           0        0.644321   -2.640978    0.000000
      2          6           0        0.000000    1.232397    0.000000
      3          6           0        0.147573   -0.112272    0.000000
      4          6           0        0.400523   -1.382637    0.000000
      5          1           0        1.019687    1.697617    0.000000
      6          8           0       -1.021774    1.965415   -0.000000
 ---------------------------------------------------------------------

 SCF Done:  E(RB3LYP) =  -228.189409120     A.U. after   16 cycles

 The electronic state is 1-A'.
 Alpha  occ. eigenvalues --  -18.91654 -10.08255 -10.04940 -10.01748 -10.00819
 Alpha  occ. eigenvalues --   -0.83361  -0.63144  -0.55039  -0.45522  -0.33421
 Alpha  occ. eigenvalues --   -0.26169  -0.22439  -0.15749  -0.15062  -0.11753
 Alpha  occ. eigenvalues --   -0.08630  -0.02806
 Alpha virt. eigenvalues --    0.04705   0.11836   0.14923   0.16458   0.16731
 Alpha virt. eigenvalues --    0.17924   0.18742   0.19371   0.20165   0.22198
 Alpha virt. eigenvalues --    0.22988   0.25209   0.26245   0.27388   0.28163

 Mulliken charges:
               1
     1  C   -0.947774
     2  C    0.080516
     3  C    0.006895
     4  C    0.603725
     5  H    0.046805
     6  O   -0.790166
 Sum of Mulliken charges =  -1.00000

 Dipole moment (field-independent basis, Debye):
    X=              1.0285    Y=              2.9499    Z=              0.0000  Tot=              3.1240
 Quadrupole moment (field-independent basis, Debye-Ang):
   XX=            -35.7070   YY=            -65.0455   ZZ=            -33.6601
   XY=             12.1198   XZ=             -0.0000   YZ=              0.0000

  Exact polarizability:  54.367 -19.353 131.539  -0.000   0.000  43.317
 Approx polarizability:  83.360 -43.521 245.462   0.000  -0.000  58.528

 ******    1 imaginary frequencies (negative Signs) ******

                      1                      2                      3
                     A"                     A'                     A'
 Frequencies --    -50.3413               134.4882               284.5760
 Red. masses --      5.9979                 8.9816                10.0976
 Frc consts  --      0.0090                 0.0957                 0.4818
 IR Inten    --      0.0055                21.5061                 2.0630

                      4                      5                      6
                     A"                     A'                     A'
 Frequencies --    426.2587               642.6021               852.1479
 Red. masses --     11.7029                 9.8197                 6.3474
 Frc consts  --      1.2528                 2.3891                 2.7156
 IR Inten    --      3.5936                 1.5747                14.5877

                      7                      8                      9
                     A"                     A'                     A'
 Frequencies --    868.0488              1314.4575              1420.8491
 Red. masses --      1.7408                 1.2401                11.1260
 Frc consts  --      0.7728                 1.2624                13.2338
 IR Inten    --      0.2877                29.9293               306.6040

                     10                     11                     12
                     A'                     A'                     A'
 Frequencies --   1656.7804              1964.2997              2730.7818
 Red. masses --      9.2259                11.1989                 1.0695
 Frc consts  --     14.9207                25.4591                 4.6992
 IR Inten    --    556.6271                 9.0803               164.4540

 - Thermochemistry -
 -------------------
 Temperature   298.150 Kelvin.  Pressure   1.00000 Atm.
 Atom     1 has atomic number  6 and mass  12.00000

 Molecular mass:    65.00274 amu.
 Principal axes and moments of inertia in atomic units:
                           1         2         3
     Eigenvalues --    24.00347 742.20446 766.20793
           X           -0.30064   0.95374  -0.00000
           Y            0.95374   0.30064  -0.00000
           Z           -0.00000   0.00000   1.00000
 This molecule is an asymmetric top.
 Rotational symmetry number  1.
 Rotational temperatures (Kelvin)      3.60839     0.11670     0.11304
 Rotational constants (GHZ):          75.18667     2.43160     2.35542
    1 imaginary frequencies ignored.
 Zero-point vibrational energy      73542.2 (Joules/Mol)
                                   17.57700 (Kcal/Mol)
 Warning -- explicit consideration of   3 degrees of freedom as
           vibrations may cause significant error
 Vibrational temperatures:    193.50   409.44   613.29   924.56  1226.05
          (Kelvin)           1248.93  1891.21  2044.28  2383.73  2826.19
                             3928.98

 Zero-point correction=                           0.028011 (Hartree/Particle)
 Thermal correction to Energy=                    0.032523
 Thermal correction to Enthalpy=                  0.033467
 Thermal correction to Gibbs Free Energy=         0.000883
 Sum of electronic and zero-point Energies=           -228.161398
 Sum of electronic and thermal Energies=              -228.156887
 Sum of electronic and thermal Enthalpies=            -228.155942
 Sum of electronic and thermal Free Energies=         -228.188526

                     E (Thermal)             CV                S
                      KCal/Mol        Cal/Mol-Kelvin    Cal/Mol-Kelvin
 Total                   20.408             13.349             68.578
 Electronic               0.000              0.000              0.000
 Translational            0.889              2.981             38.434
 Rotational               0.889              2.981             24.127
 Vibrational             18.631              7.388              6.017
 Vibration     1          0.613              1.919              2.881
 Vibration     2          0.683              1.702              1.506
 Vibration     3          0.788              1.413              0.871

 Optimization completed.
    -- Stationary point found.
 Normal termination of Gaussian 09 at Fri Mar  8 05:02:12 2019.
