 Gaussian 09, Revision E.01,
 Gaussian 09:  EM64L-G09RevE.01 30-Nov-2015

 ------------------------------------------------------
 #p b3lyp/6-311++G(3df,2p) freq IOp(2/17=3) IOp(2/18=3)
 ------------------------------------------------------

 ---------
 b3lyp opt
 ---------
 Symbolic Z-matrix:
 Charge = -1 Multiplicity = 3

                         Standard orientation:
 ---------------------------------------------------------------------
 Center     Atomic      Atomic             Coordinates (Angstroms)
 Number     Number       Type             X           Y           Z
 ---------------------------------------------------------------------
      1          6           0       -0.958019   -2.502939   -0.000000
      2          6           0        0.718514    1.085217    0.000000
      3          6           0        0.295875   -0.242522    0.000000
      4          6           0       -0.359714   -1.349022   -0.000000
      5          1           0        1.820066    1.228537    0.000000
      6          8           0        0.000000    2.103382    0.000000
 ---------------------------------------------------------------------

 SCF Done:  E(UB3LYP) =  -228.188401841     A.U. after   17 cycles

 The electronic state is 3-A".
 Alpha  occ. eigenvalues --  -18.95775 -10.09945 -10.02701 -10.00010  -9.99850
 Alpha  occ. eigenvalues --   -0.87465  -0.62361  -0.54650  -0.45270  -0.34760
 Alpha  occ. eigenvalues --   -0.29271  -0.25326  -0.16197  -0.16133  -0.11818
 Alpha  occ. eigenvalues --   -0.10841  -0.04387  -0.02301
 Alpha virt. eigenvalues --    0.11243   0.13132   0.16205   0.16732   0.18179
 Alpha virt. eigenvalues --    0.18286   0.20024   0.20325   0.22159   0.22764
 Alpha virt. eigenvalues --    0.24583   0.25972   0.26021   0.27283   0.29451

  Beta  occ. eigenvalues --  -18.94970 -10.09949 -10.01434 -10.00163  -9.98603
  Beta  occ. eigenvalues --   -0.85938  -0.60191  -0.51949  -0.43184  -0.33955
  Beta  occ. eigenvalues --   -0.28036  -0.22218  -0.12964  -0.12885  -0.10596
  Beta  occ. eigenvalues --   -0.08534
  Beta virt. eigenvalues --    0.04955   0.09109   0.11282   0.15884   0.16284
  Beta virt. eigenvalues --    0.16950   0.18237   0.18662   0.20288   0.20993
  Beta virt. eigenvalues --    0.22263   0.22950   0.25220   0.26360   0.27330

 Mulliken charges and spin densities:
               1          2
     1  C   -1.037598   0.926491
     2  C   -0.198609  -0.016738
     3  C    0.186231   0.921413
     4  C    0.665456  -0.104075
     5  H    0.065357   0.005440
     6  O   -0.680836   0.267469
 Sum of Mulliken charges =  -1.00000   2.00000

 Dipole moment (field-independent basis, Debye):
    X=              3.2910    Y=              3.8727    Z=              0.0000  Tot=              5.0822
 Quadrupole moment (field-independent basis, Debye-Ang):
   XX=            -36.0145   YY=            -64.8652   ZZ=            -31.9049
   XY=             -7.4534   XZ=             -0.0000   YZ=             -0.0000

  Exact polarizability:  65.900  28.315 125.269   0.000   0.000  43.387
 Approx polarizability:  95.079  46.801 198.009   0.000   0.000  59.469

 ******    1 imaginary frequencies (negative Signs) ******

                      1                      2                      3
                     A'                     A"                     A'
 Frequencies --    -56.1340               195.5259               381.0160
 Red. masses --     10.4120                 3.8629                11.9766
 Frc consts  --      0.0193                 0.0870                 1.0244
 IR Inten    --      2.1592                 0.7700                 8.8592

                      4                      5                      6
                     A"                     A'                     A'
 Frequencies --    436.3391               567.0623               854.4026
 Red. masses --      8.9555                11.9450                 6.0090
 Frc consts  --      1.0046                 2.2631                 2.5845
 IR Inten    --      9.2628                15.0738                66.7149

                      7                      8                      9
                     A"                     A'                     A'
 Frequencies --    930.7704              1387.4306              1422.1288
 Red. masses --      1.7130                 1.2860                 7.3553
 Frc consts  --      0.8743                 1.4585                 8.7645
 IR Inten    --      0.3889                35.3191                21.4295

                     10                     11                     12
                     A'                     A'                     A'
 Frequencies --   1547.8589              1840.9905              2822.7061
 Red. masses --      7.3618                11.9438                 1.0744
 Frc consts  --     10.3920                23.8505                 5.0439
 IR Inten    --    528.6906                 8.3000               232.2303

 - Thermochemistry -
 -------------------
 Temperature   298.150 Kelvin.  Pressure   1.00000 Atm.
 Atom     1 has atomic number  6 and mass  12.00000

 Molecular mass:    65.00274 amu.
 Principal axes and moments of inertia in atomic units:
                           1         2         3
     Eigenvalues --    40.08332 699.89894 739.98226
           X            0.25353   0.96733   0.00000
           Y            0.96733  -0.25353   0.00000
           Z           -0.00000  -0.00000   1.00000
 This molecule is an asymmetric top.
 Rotational symmetry number  1.
 Rotational temperatures (Kelvin)      2.16084     0.12375     0.11705
 Rotational constants (GHZ):          45.02475     2.57857     2.43890
    1 imaginary frequencies ignored.
 Zero-point vibrational energy      74086.1 (Joules/Mol)
                                   17.70701 (Kcal/Mol)
 Warning -- explicit consideration of   4 degrees of freedom as
           vibrations may cause significant error
 Vibrational temperatures:    281.32   548.20   627.79   815.88  1229.29
          (Kelvin)           1339.17  1996.20  2046.12  2227.02  2648.77
                             4061.24

 Zero-point correction=                           0.028218 (Hartree/Particle)
 Thermal correction to Energy=                    0.032533
 Thermal correction to Enthalpy=                  0.033477
 Thermal correction to Gibbs Free Energy=         0.000191
 Sum of electronic and zero-point Energies=           -228.160184
 Sum of electronic and thermal Energies=              -228.155869
 Sum of electronic and thermal Enthalpies=            -228.154924
 Sum of electronic and thermal Free Energies=         -228.188211

                     E (Thermal)             CV                S
                      KCal/Mol        Cal/Mol-Kelvin    Cal/Mol-Kelvin
 Total                   20.415             13.131             70.057
 Electronic               0.000              0.000              2.183
 Translational            0.889              2.981             38.434
 Rotational               0.889              2.981             24.544
 Vibrational             18.637              7.169              4.897
 Vibration     1          0.636              1.846              2.175
 Vibration     2          0.751              1.511              1.035
 Vibration     3          0.797              1.391              0.838
 Vibration     4          0.923              1.103              0.510

 Normal termination of Gaussian 09 at Fri Mar  8 05:22:38 2019.
