 Gaussian 09, Revision E.01,
 Gaussian 09:  ES64L-G09RevE.01 30-Nov-2015

 -----------------------------------
 #p ccsd(t,maxcyc=200)/6-311++G(d,p)
 -----------------------------------

 -------------
 ccsd(t) iener
 -------------
 Symbolic Z-matrix:
 Charge =  0 Multiplicity = 1

                         Standard orientation:
 ---------------------------------------------------------------------
 Center     Atomic      Atomic             Coordinates (Angstroms)
 Number     Number       Type             X           Y           Z
 ---------------------------------------------------------------------
      1          6           0        0.000000    0.000000    0.000000
 ---------------------------------------------------------------------

 SCF Done:  E(RHF) =  -37.6003799877     A.U. after    8 cycles
 E2 =    -0.7115625696D-01 EUMP2 =    -0.37671536244684D+02
 CCSD(T)
 CCSD(T)= -0.37710031014D+02

 Unable to determine electronic state:  an orbital has unidentified symmetry.
 Alpha  occ. eigenvalues --  -11.36513  -0.72606  -0.35716
 Alpha virt. eigenvalues --    0.02037   0.02037   0.10234   0.13263   0.15516
 Alpha virt. eigenvalues --    0.15516   0.71605   0.72959   0.72959   0.81937
 Alpha virt. eigenvalues --    1.55014   1.55014   1.56998   1.56998   1.57666

 Mulliken charges:
               1
     1  C    0.000000
 Sum of Mulliken charges =   0.00000

 Dipole moment (field-independent basis, Debye):
    X=              0.0000    Y=              0.0000    Z=              0.0000  Tot=              0.0000
 Quadrupole moment (field-independent basis, Debye-Ang):
   XX=             -9.6321   YY=             -5.0625   ZZ=             -5.0625
   XY=             -0.0000   XZ=              0.0000   YZ=             -0.0000

 062918\CCSD(T)=-37.710031\RMSD=2.270e-09\PG=OH [O(C1)]\\@
 Normal termination of Gaussian 09 at Tue Oct 10 01:41:51 2017.
