 Gaussian 09, Revision E.01,
 Gaussian 09:  ES64L-G09RevE.01 30-Nov-2015

 -----------------------------------
 #p ccsd(t,maxcyc=200)/6-311++G(d,p)
 -----------------------------------

 -------------
 ccsd(t) iener
 -------------
 Symbolic Z-matrix:
 Charge =  0 Multiplicity = 3

                         Standard orientation:
 ---------------------------------------------------------------------
 Center     Atomic      Atomic             Coordinates (Angstroms)
 Number     Number       Type             X           Y           Z
 ---------------------------------------------------------------------
      1          6           0        0.000000    0.000000    0.000000
 ---------------------------------------------------------------------

 SCF Done:  E(UHF) =  -37.6895699085     A.U. after    9 cycles
 E2 =    -0.5630367910D-01 EUMP2 =    -0.37745873587633D+02
 CCSD(T)
 CCSD(T)= -0.37767643467D+02

 Unable to determine electronic state:  an orbital has unidentified symmetry.
 Alpha  occ. eigenvalues --  -11.34577  -0.82915  -0.43843  -0.43843
 Alpha virt. eigenvalues --    0.01739   0.09884   0.12172   0.12172   0.15402
 Alpha virt. eigenvalues --    0.67580   0.67580   0.73159   0.80195   1.49996
 Alpha virt. eigenvalues --    1.49996   1.53041   1.53041   1.54246   3.00920

  Beta  occ. eigenvalues --  -11.29948  -0.58388
  Beta virt. eigenvalues --    0.04242   0.07105   0.07105   0.11193   0.17339
  Beta virt. eigenvalues --    0.21125   0.21125   0.75794   0.80456   0.80456
  Beta virt. eigenvalues --    0.86842   1.61281   1.62791   1.62791   1.67807

 Mulliken charges and spin densities:
               1          2
     1  C   -0.000000   2.000000
 Sum of Mulliken charges =  -0.00000   2.00000

 Dipole moment (field-independent basis, Debye):
    X=              0.0000    Y=              0.0000    Z=              0.0000  Tot=              0.0000
 Quadrupole moment (field-independent basis, Debye-Ang):
   XX=             -6.8610   YY=             -4.8638   ZZ=             -6.8610
   XY=             -0.0000   XZ=              0.0000   YZ=              0.0000

 Normal termination of Gaussian 09 at Tue Oct 10 01:41:50 2017.
