 Gaussian 09, Revision E.01,
 Gaussian 09:  ES64L-G09RevE.01 30-Nov-2015

 -----------------------------------
 #p ccsd(t,maxcyc=200)/6-311++G(d,p)
 -----------------------------------

 -------------
 ccsd(t) iener
 -------------
 Symbolic Z-matrix:
 Charge =  1 Multiplicity = 2

                         Standard orientation:
 ---------------------------------------------------------------------
 Center     Atomic      Atomic             Coordinates (Angstroms)
 Number     Number       Type             X           Y           Z
 ---------------------------------------------------------------------
      1          6           0        0.000000    0.000000    0.000000
 ---------------------------------------------------------------------

 SCF Done:  E(UHF) =  -37.2924769388     A.U. after    9 cycles
 E2 =    -0.4494405246D-01 EUMP2 =    -0.37337420991217D+02
 CCSD(T)
 CCSD(T)= -0.37363321603D+02

 Unable to determine electronic state:  an orbital has unidentified symmetry.
 Alpha  occ. eigenvalues --  -11.91175  -1.22342  -0.91270
 Alpha virt. eigenvalues --   -0.36290  -0.36290  -0.11773  -0.07366  -0.06308
 Alpha virt. eigenvalues --   -0.06308   0.33593   0.38058   0.38058   0.44666
 Alpha virt. eigenvalues --    1.08467   1.09295   1.09295   1.12517   1.12517

  Beta  occ. eigenvalues --  -11.88134  -1.08678
  Beta virt. eigenvalues --   -0.33944  -0.33944  -0.27435  -0.11213  -0.06016
  Beta virt. eigenvalues --   -0.06016  -0.04717   0.39148   0.39148   0.43227
  Beta virt. eigenvalues --    0.47666   1.13354   1.13354   1.18700   1.18700

 Mulliken charges and spin densities:
               1          2
     1  C    1.000000   1.000000
 Sum of Mulliken charges =   1.00000   1.00000

 Dipole moment (field-independent basis, Debye):
    X=              0.0000    Y=              0.0000    Z=              0.0000  Tot=              0.0000
 Quadrupole moment (field-independent basis, Debye-Ang):
   XX=             -4.6147   YY=             -3.1525   ZZ=             -3.1525
   XY=             -0.0000   XZ=              0.0000   YZ=             -0.0000

 Normal termination of Gaussian 09 at Tue Oct 10 01:41:55 2017.
