 Gaussian 09, Revision E.01,
 Gaussian 09:  ES64L-G09RevE.01 30-Nov-2015

 -----------------------------------
 #p ccsd(t,maxcyc=200)/6-311++G(d,p)
 -----------------------------------

 -------------
 ccsd(t) iener
 -------------
 Symbolic Z-matrix:
 Charge =  1 Multiplicity = 4

                         Standard orientation:
 ---------------------------------------------------------------------
 Center     Atomic      Atomic             Coordinates (Angstroms)
 Number     Number       Type             X           Y           Z
 ---------------------------------------------------------------------
      1          6           0        0.000000    0.000000    0.000000
 ---------------------------------------------------------------------

 SCF Done:  E(UHF) =  -37.1587693238     A.U. after    8 cycles
 E2 =    -0.9616101767D-02 EUMP2 =    -0.37168385425558D+02
 CCSD(T)
 CCSD(T)= -0.37171757716D+02

 Unable to determine electronic state:  an orbital has unidentified symmetry.
 Alpha  occ. eigenvalues --  -11.90716  -1.34387  -0.95001  -0.95001
 Alpha virt. eigenvalues --   -0.40079  -0.12192  -0.07646  -0.07646  -0.06780
 Alpha virt. eigenvalues --    0.32560   0.32560   0.36574   0.42735   1.02611
 Alpha virt. eigenvalues --    1.02611   1.05512   1.05512   1.06687   2.52006

  Beta  occ. eigenvalues --  -11.78708
  Beta virt. eigenvalues --   -0.49124  -0.24601  -0.19605  -0.19605  -0.09190
  Beta virt. eigenvalues --   -0.04713  -0.02838  -0.02838   0.42182   0.46680
  Beta virt. eigenvalues --    0.46680   0.56226   1.20175   1.21750   1.21750

 Mulliken charges and spin densities:
               1          2
     1  C    1.000000   3.000000
 Sum of Mulliken charges =   1.00000   3.00000

 Dipole moment (field-independent basis, Debye):
    X=              0.0000    Y=              0.0000    Z=              0.0000  Tot=              0.0000
 Quadrupole moment (field-independent basis, Debye-Ang):
   XX=             -4.0702   YY=             -2.5528   ZZ=             -4.0702
   XY=             -0.0000   XZ=              0.0000   YZ=              0.0000

 D=-37.1717394\CCSD(T)=-37.1717577\S2=3.750006\S2-1=0.\S2A=3.75\RMSD=1.
 Normal termination of Gaussian 09 at Tue Oct 10 01:41:54 2017.
