 Gaussian 09, Revision E.01,
 Gaussian 09:  ES64L-G09RevE.01 30-Nov-2015

 -----------------------------------
 #p ccsd(t,maxcyc=200)/6-311++G(d,p)
 -----------------------------------

 -------------
 ccsd(t) iener
 -------------
 Symbolic Z-matrix:
 Charge =  0 Multiplicity = 3

                         Standard orientation:
 ---------------------------------------------------------------------
 Center     Atomic      Atomic             Coordinates (Angstroms)
 Number     Number       Type             X           Y           Z
 ---------------------------------------------------------------------
      1          6           0        0.000000    0.000000    0.652985
      2          6           0        0.000000    0.000000   -0.652985
 ---------------------------------------------------------------------

 SCF Done:  E(UHF) =  -75.4888500251     A.U. after   11 cycles
 E2 =    -0.2224273044D+00 EUMP2 =    -0.75711277329431D+02
 CCSD(T)
 CCSD(T)= -0.75744386941D+02

 Unable to determine electronic state:  an orbital has unidentified symmetry.
 Alpha  occ. eigenvalues --  -11.35964 -11.35706  -1.13041  -0.65866  -0.54475
 Alpha  occ. eigenvalues --   -0.50604  -0.45995
 Alpha virt. eigenvalues --    0.07781   0.09504   0.09581   0.09746   0.11199
 Alpha virt. eigenvalues --    0.11976   0.15203   0.18348   0.20078   0.22794
 Alpha virt. eigenvalues --    0.48367   0.59900   0.65102   0.67760   0.74978

  Beta  occ. eigenvalues --  -11.33530 -11.33412  -0.97614  -0.44683  -0.42861
  Beta virt. eigenvalues --   -0.04982  -0.02985   0.09890   0.11112   0.12174
  Beta virt. eigenvalues --    0.12467   0.12574   0.13607   0.15960   0.22121
  Beta virt. eigenvalues --    0.23430   0.27524   0.51562   0.65437   0.69102

 Mulliken charges and spin densities:
               1          2
     1  C   -0.000000   1.000000
     2  C   -0.000000   1.000000
 Sum of Mulliken charges =  -0.00000   2.00000

 Dipole moment (field-independent basis, Debye):
    X=             -0.0000    Y=              0.0000    Z=             -0.0000  Tot=              0.0000
 Quadrupole moment (field-independent basis, Debye-Ang):
   XX=            -13.0356   YY=            -10.8530   ZZ=            -12.4648
   XY=              0.0000   XZ=              0.0000   YZ=             -0.0000

 67\CCSD=-75.7298136\CCSD(T)=-75.7443869\S2=2.016531\S2-1=2.003064\S2A=
 Normal termination of Gaussian 09 at Mon Oct  9 12:06:54 2017.
