 Gaussian 09, Revision E.01,
 Gaussian 09:  ES64L-G09RevE.01 30-Nov-2015

 -----------------------------------
 #p ccsd(t,maxcyc=200)/6-311++G(d,p)
 -----------------------------------

 -------------
 ccsd(t) iener
 -------------
 Symbolic Z-matrix:
 Charge =  1 Multiplicity = 4

                         Standard orientation:
 ---------------------------------------------------------------------
 Center     Atomic      Atomic             Coordinates (Angstroms)
 Number     Number       Type             X           Y           Z
 ---------------------------------------------------------------------
      1          6           0        0.000000    0.000000    0.703133
      2          6           0        0.000000    0.000000   -0.703133
 ---------------------------------------------------------------------

 SCF Done:  E(UHF) =  -75.1069994497     A.U. after   11 cycles
 E2 =    -0.1768293454D+00 EUMP2 =    -0.75283828795141D+02
 CCSD(T)
 CCSD(T)= -0.75326636038D+02

 The electronic state is 4-SGG.
 Alpha  occ. eigenvalues --  -11.77843 -11.77660  -1.49857  -1.04238  -0.89668
 Alpha  occ. eigenvalues --   -0.84527  -0.84527
 Alpha virt. eigenvalues --   -0.26666  -0.26666  -0.10039  -0.06710  -0.06672
 Alpha virt. eigenvalues --   -0.06672  -0.02909  -0.00454  -0.00454   0.05477
 Alpha virt. eigenvalues --    0.14416   0.34020   0.37833   0.37833   0.45648

  Beta  occ. eigenvalues --  -11.74266 -11.74228  -1.27466  -0.77720
  Beta virt. eigenvalues --   -0.35501  -0.33522  -0.33522  -0.11357  -0.11357
  Beta virt. eigenvalues --   -0.07650  -0.06082  -0.05035  -0.05035  -0.02034
  Beta virt. eigenvalues --    0.01804   0.01804   0.06173   0.22113   0.39587

 Mulliken charges and spin densities:
               1          2
     1  C    0.500000   1.500000
     2  C    0.500000   1.500000
 Sum of Mulliken charges =   1.00000   3.00000

 Dipole moment (field-independent basis, Debye):
    X=              0.0000    Y=              0.0000    Z=              0.0000  Tot=              0.0000
 Quadrupole moment (field-independent basis, Debye-Ang):
   XX=             -8.8408   YY=             -8.8408   ZZ=             -7.2608
   XY=              0.0000   XZ=             -0.0000   YZ=             -0.0000

 8\MP4SDQ=-75.3139417\CCSD=-75.3144336\CCSD(T)=-75.326636\S2=3.764505\S
 Normal termination of Gaussian 09 at Mon Oct  9 12:09:42 2017.
