 Gaussian 09, Revision E.01,
 Gaussian 09:  ES64L-G09RevE.01 30-Nov-2015

 -----------------------------------
 #p ccsd(t,maxcyc=200)/6-311++G(d,p)
 -----------------------------------

 -------------
 ccsd(t) iener
 -------------
 Symbolic Z-matrix:
 Charge =  0 Multiplicity = 1

                         Standard orientation:
 ---------------------------------------------------------------------
 Center     Atomic      Atomic             Coordinates (Angstroms)
 Number     Number       Type             X           Y           Z
 ---------------------------------------------------------------------
      1          6           0        0.000000    0.000000    0.625973
      2          6           0        0.000000    0.000000   -0.625973
 ---------------------------------------------------------------------

 SCF Done:  E(RHF) =  -75.3943376933     A.U. after   10 cycles
 E2 =    -0.3256105010D+00 EUMP2 =    -0.75719948194252D+02
 CCSD(T)
 CCSD(T)= -0.75747803968D+02

 The electronic state is 1-SGG.
 Alpha  occ. eigenvalues --  -11.36582 -11.36366  -1.06179  -0.52046  -0.45650
 Alpha  occ. eigenvalues --   -0.45650
 Alpha virt. eigenvalues --   -0.11726   0.09023   0.10662   0.10662   0.10692
 Alpha virt. eigenvalues --    0.12137   0.12137   0.16093   0.21472   0.21472
 Alpha virt. eigenvalues --    0.23131   0.49713   0.62441   0.68123   0.68123

 Mulliken charges:
               1
     1  C   -0.000000
     2  C   -0.000000
 Sum of Mulliken charges =  -0.00000

 Dipole moment (field-independent basis, Debye):
    X=             -0.0000    Y=              0.0000    Z=             -0.0000  Tot=              0.0000
 Quadrupole moment (field-independent basis, Debye-Ang):
   XX=            -12.7110   YY=            -12.7110   ZZ=             -9.0012
   XY=              0.0000   XZ=             -0.0000   YZ=              0.0000

 75.7056909\MP4SDQ=-75.7220767\CCSD=-75.717552\CCSD(T)=-75.747804\RMSD=
 Normal termination of Gaussian 09 at Mon Oct  9 12:06:50 2017.
