 Gaussian 09, Revision E.01,
 Gaussian 09:  ES64L-G09RevE.01 30-Nov-2015

 -----------------------------------
 #p ccsd(t,maxcyc=200)/6-311++G(d,p)
 -----------------------------------

 -------------
 ccsd(t) iener
 -------------
 Symbolic Z-matrix:
 Charge =  1 Multiplicity = 2

                         Standard orientation:
 ---------------------------------------------------------------------
 Center     Atomic      Atomic             Coordinates (Angstroms)
 Number     Number       Type             X           Y           Z
 ---------------------------------------------------------------------
      1          6           0        0.000000    0.000000    0.660731
      2          6           0        0.000000    0.000000   -0.660731
 ---------------------------------------------------------------------

 SCF Done:  E(UHF) =  -74.9890642059     A.U. after   11 cycles
 E2 =    -0.2696719270D+00 EUMP2 =    -0.75258736132869D+02
 CCSD(T)
 CCSD(T)= -0.75302500697D+02

 Unable to determine electronic state:  an orbital has unidentified symmetry.
 Alpha  occ. eigenvalues --  -11.79149 -11.78993  -1.46030  -0.90045  -0.86087
 Alpha  occ. eigenvalues --   -0.81305
 Alpha virt. eigenvalues --   -0.45676  -0.23937  -0.20481  -0.08771  -0.07150
 Alpha virt. eigenvalues --   -0.06643  -0.05925  -0.02752  -0.00546   0.00048
 Alpha virt. eigenvalues --    0.05813   0.20781   0.35391   0.37509   0.39883

  Beta  occ. eigenvalues --  -11.78034 -11.77924  -1.37301  -0.85662  -0.79395
  Beta virt. eigenvalues --   -0.44703  -0.36042  -0.19390  -0.12073  -0.08446
  Beta virt. eigenvalues --   -0.06958  -0.05846  -0.05279  -0.02526   0.00199
  Beta virt. eigenvalues --    0.01443   0.05905   0.22248   0.36319   0.40373

 Mulliken charges and spin densities:
               1          2
     1  C    0.500000   0.500000
     2  C    0.500000   0.500000
 Sum of Mulliken charges =   1.00000   1.00000

 Dipole moment (field-independent basis, Debye):
    X=              0.0000    Y=              0.0000    Z=             -0.0000  Tot=              0.0000
 Quadrupole moment (field-independent basis, Debye-Ang):
   XX=             -8.6692   YY=            -10.4310   ZZ=             -4.3342
   XY=             -0.0000   XZ=             -0.0000   YZ=              0.0000

 733783\CCSD=-75.2765536\CCSD(T)=-75.3025007\S2=0.753483\S2-1=0.749983\
 Normal termination of Gaussian 09 at Mon Oct  9 12:07:03 2017.
