 Gaussian 09, Revision E.01,
 Gaussian 09:  ES64L-G09RevE.01 30-Nov-2015

 -----------------------------------
 #p ccsd(t,maxcyc=200)/6-311++G(d,p)
 -----------------------------------

 -------------
 ccsd(t) iener
 -------------
 Symbolic Z-matrix:
 Charge =  0 Multiplicity = 1

                         Standard orientation:
 ---------------------------------------------------------------------
 Center     Atomic      Atomic             Coordinates (Angstroms)
 Number     Number       Type             X           Y           Z
 ---------------------------------------------------------------------
      1          6           0        0.000000    0.747836   -0.447539
      2          6           0       -0.000000   -0.747836   -0.447539
      3          8           0       -0.000000   -0.000000    0.671309
 ---------------------------------------------------------------------

 SCF Done:  E(RHF) =  -150.416664195     A.U. after   12 cycles
 E2 =    -0.4245642569D+00 EUMP2 =    -0.15084122845176D+03
 CCSD(T)
 CCSD(T)= -0.15088076642D+03

 The electronic state is 1-A1.
 Alpha  occ. eigenvalues --  -20.73356 -11.37405 -11.37324  -1.59405  -0.94442
 Alpha  occ. eigenvalues --   -0.86311  -0.67716  -0.62160  -0.48766  -0.43583
 Alpha virt. eigenvalues --    0.01837   0.08855   0.08905   0.09900   0.10046
 Alpha virt. eigenvalues --    0.12213   0.13303   0.14733   0.18999   0.21621
 Alpha virt. eigenvalues --    0.25373   0.27708   0.29070   0.33727   0.35620

 Mulliken charges:
               1
     1  C   -0.045803
     2  C   -0.045803
     3  O    0.091606
 Sum of Mulliken charges =  -0.00000

 Dipole moment (field-independent basis, Debye):
    X=             -0.0000    Y=             -0.0000    Z=              0.2019  Tot=              0.2019
 Quadrupole moment (field-independent basis, Debye-Ang):
   XX=            -14.7129   YY=            -21.2116   ZZ=            -18.0049
   XY=             -0.0000   XZ=             -0.0000   YZ=             -0.0000

 DQ=-150.8606005\CCSD=-150.8592451\CCSD(T)=-150.8807664\RMSD=2.792e-09\
 Normal termination of Gaussian 09 at Mon Oct  9 12:02:30 2017.
