 Gaussian 09, Revision E.01,
 Gaussian 09:  ES64L-G09RevE.01 30-Nov-2015

 -----------------------------------
 #p ccsd(t,maxcyc=200)/6-311++G(d,p)
 -----------------------------------

 -------------
 ccsd(t) iener
 -------------
 Symbolic Z-matrix:
 Charge =  1 Multiplicity = 2

                         Standard orientation:
 ---------------------------------------------------------------------
 Center     Atomic      Atomic             Coordinates (Angstroms)
 Number     Number       Type             X           Y           Z
 ---------------------------------------------------------------------
      1          6           0       -0.000000   -0.000000    1.291370
      2          6           0        0.000000    0.000000   -1.452820
      3          8           0       -0.000000   -0.000000    0.121087
 ---------------------------------------------------------------------

 SCF Done:  E(UHF) =  -150.083602406     A.U. after   17 cycles
 E2 =    -0.3599890483D+00 EUMP2 =    -0.15044359145389D+03
 CCSD(T)
 CCSD(T)= -0.15049256475D+03

 Unable to determine electronic state:  an orbital has unidentified symmetry.
 Alpha  occ. eigenvalues --  -21.00260 -11.75341 -11.72017  -1.85143  -1.33819
 Alpha  occ. eigenvalues --   -0.98771  -0.97389  -0.96819  -0.83634  -0.76567
 Alpha virt. eigenvalues --   -0.27207  -0.15815  -0.14410  -0.11565  -0.09466
 Alpha virt. eigenvalues --   -0.05080  -0.04163  -0.03512  -0.00483  -0.00186
 Alpha virt. eigenvalues --   -0.00090   0.02900   0.12758   0.12894   0.14396

  Beta  occ. eigenvalues --  -21.00351 -11.72462 -11.71883  -1.84928  -1.29462
  Beta  occ. eigenvalues --   -0.97555  -0.97336  -0.89310  -0.82442
  Beta virt. eigenvalues --   -0.25027  -0.20521  -0.14179  -0.12958  -0.09485
  Beta virt. eigenvalues --   -0.08769  -0.04068  -0.03087  -0.01668   0.00004
  Beta virt. eigenvalues --    0.00113   0.00641   0.03177   0.12779   0.13422

 Mulliken charges and spin densities:
               1          2
     1  C    0.251223   0.058110
     2  C    0.490821   1.010744
     3  O    0.257956  -0.068854
 Sum of Mulliken charges =   1.00000   1.00000

 Dipole moment (field-independent basis, Debye):
    X=              0.0000    Y=              0.0000    Z=             -1.0136  Tot=              1.0136
 Quadrupole moment (field-independent basis, Debye-Ang):
   XX=            -14.4032   YY=            -12.8535   ZZ=             -8.0963
   XY=             -0.0000   XZ=             -0.0000   YZ=             -0.0000

 625\CCSD=-150.4749988\CCSD(T)=-150.4925647\S2=0.764898\S2-1=0.75641\S2
 Normal termination of Gaussian 09 at Mon Oct  9 12:04:15 2017.
