 Gaussian 09, Revision E.01,
 Gaussian 09:  ES64L-G09RevE.01 30-Nov-2015

 -----------------------------------
 #p ccsd(t,maxcyc=200)/6-311++G(d,p)
 -----------------------------------

 -------------
 ccsd(t) iener
 -------------
 Symbolic Z-matrix:
 Charge =  0 Multiplicity = 3

                         Standard orientation:
 ---------------------------------------------------------------------
 Center     Atomic      Atomic             Coordinates (Angstroms)
 Number     Number       Type             X           Y           Z
 ---------------------------------------------------------------------
      1          6           0        0.000000   -0.000000    0.056229
      2          6           0       -0.000000   -0.000000    1.425254
      3          8           0        0.000000    0.000000   -1.111112
 ---------------------------------------------------------------------

 SCF Done:  E(UHF) =  -150.501506550     A.U. after   16 cycles
 E2 =    -0.3985101960D+00 EUMP2 =    -0.15090001674602D+03
 CCSD(T)
 CCSD(T)= -0.15093660980D+03

 The electronic state is 3-SG.
 Alpha  occ. eigenvalues --  -20.71617 -11.42030 -11.32761  -1.55856  -1.10551
 Alpha  occ. eigenvalues --   -0.81781  -0.72694  -0.72694  -0.52520  -0.45121
 Alpha  occ. eigenvalues --   -0.45121
 Alpha virt. eigenvalues --    0.05760   0.10342   0.10584   0.10584   0.12686
 Alpha virt. eigenvalues --    0.12686   0.14833   0.18338   0.18338   0.21949
 Alpha virt. eigenvalues --    0.28959   0.33119   0.33119   0.36201   0.44824

  Beta  occ. eigenvalues --  -20.68801 -11.42246 -11.30037  -1.50151  -0.96710
  Beta  occ. eigenvalues --   -0.77538  -0.61698  -0.61698  -0.45865
  Beta virt. eigenvalues --    0.00430   0.00430   0.06102   0.10701   0.11509
  Beta virt. eigenvalues --    0.11509   0.14717   0.14717   0.15253   0.22264
  Beta virt. eigenvalues --    0.27396   0.27396   0.30008   0.35172   0.35172

 Mulliken charges and spin densities:
               1          2
     1  C    0.180965   0.030054
     2  C    0.014901   1.390952
     3  O   -0.195866   0.578993
 Sum of Mulliken charges =  -0.00000   2.00000

 Dipole moment (field-independent basis, Debye):
    X=              0.0000    Y=              0.0000    Z=             -1.3132  Tot=              1.3132
 Quadrupole moment (field-independent basis, Debye-Ang):
   XX=            -16.1166   YY=            -16.1166   ZZ=            -23.6366
   XY=             -0.0000   XZ=              0.0000   YZ=              0.0000

 =-150.917415\CCSD(T)=-150.9366098\S2=2.060347\S2-1=2.029027\S2A=2.0017
 Normal termination of Gaussian 09 at Mon Oct  9 12:03:20 2017.
