 Gaussian 09, Revision E.01,
 Gaussian 09:  ES64L-G09RevE.01 30-Nov-2015

 -----------------------------------
 #p ccsd(t,maxcyc=200)/6-311++G(d,p)
 -----------------------------------

 -------------
 ccsd(t) iener
 -------------
 Symbolic Z-matrix:
 Charge =  1 Multiplicity = 4

                         Standard orientation:
 ---------------------------------------------------------------------
 Center     Atomic      Atomic             Coordinates (Angstroms)
 Number     Number       Type             X           Y           Z
 ---------------------------------------------------------------------
      1          6           0       -0.000000   -0.000000    1.398884
      2          6           0        0.000000    0.000000    0.052544
      3          8           0       -0.000000   -0.000000   -1.088571
 ---------------------------------------------------------------------

 SCF Done:  E(UHF) =  -150.152374063     A.U. after   15 cycles
 E2 =    -0.3502186257D+00 EUMP2 =    -0.15050259268882D+03
 CCSD(T)
 CCSD(T)= -0.15053777516D+03

 The electronic state is 4-SG.
 Alpha  occ. eigenvalues --  -21.03490 -11.73430 -11.71234  -1.87408  -1.44645
 Alpha  occ. eigenvalues --   -1.11417  -1.02310  -1.02310  -0.98557  -0.82101
 Alpha  occ. eigenvalues --   -0.82101
 Alpha virt. eigenvalues --   -0.12532  -0.12532  -0.12082  -0.06447  -0.06447
 Alpha virt. eigenvalues --   -0.06362  -0.01995  -0.00825  -0.00825   0.03452
 Alpha virt. eigenvalues --    0.07724   0.15820   0.15820   0.19706   0.21258

  Beta  occ. eigenvalues --  -21.00060 -11.74493 -11.62922  -1.80616  -1.27556
  Beta  occ. eigenvalues --   -1.05843  -0.91010  -0.91010
  Beta virt. eigenvalues --   -0.27138  -0.26304  -0.26304  -0.11210  -0.06611
  Beta virt. eigenvalues --   -0.06611  -0.04391  -0.02449  -0.02449  -0.01502
  Beta virt. eigenvalues --    0.04532   0.04532   0.05677   0.09808   0.17298

 Mulliken charges and spin densities:
               1          2
     1  C    0.664568   2.638610
     2  C    0.251935  -0.391735
     3  O    0.083497   0.753124
 Sum of Mulliken charges =   1.00000   3.00000

 Dipole moment (field-independent basis, Debye):
    X=              0.0000    Y=              0.0000    Z=              3.0033  Tot=              3.0033
 Quadrupole moment (field-independent basis, Debye-Ang):
   XX=            -13.2989   YY=            -13.2989   ZZ=             -8.1683
   XY=             -0.0000   XZ=             -0.0000   YZ=             -0.0000

 D=-150.5213301\CCSD(T)=-150.5377752\S2=3.88565\S2-1=3.836292\S2A=3.755
 Normal termination of Gaussian 09 at Mon Oct  9 12:06:43 2017.
