 Gaussian 09, Revision E.01,
 Gaussian 09:  ES64L-G09RevE.01 30-Nov-2015

 -----------------------------------
 #p ccsd(t,maxcyc=200)/6-311++G(d,p)
 -----------------------------------

 -------------
 ccsd(t) iener
 -------------
 Symbolic Z-matrix:
 Charge =  0 Multiplicity = 1

                         Standard orientation:
 ---------------------------------------------------------------------
 Center     Atomic      Atomic             Coordinates (Angstroms)
 Number     Number       Type             X           Y           Z
 ---------------------------------------------------------------------
      1          6           0        0.000000    0.000000    0.056701
      2          6           0        0.000000    0.000000    1.433635
      3          8           0       -0.000000   -0.000000   -1.117752
 ---------------------------------------------------------------------

 SCF Done:  E(RHF) =  -150.440779494     A.U. after   13 cycles
 E2 =    -0.4237197867D+00 EUMP2 =    -0.15086449928104D+03
 CCSD(T)
 CCSD(T)= -0.15090500467D+03

 Unable to determine electronic state:  an orbital has unidentified symmetry.
 Alpha  occ. eigenvalues --  -20.68914 -11.41672 -11.34515  -1.51296  -1.04008
 Alpha  occ. eigenvalues --   -0.78472  -0.68204  -0.63379  -0.50982  -0.39413
 Alpha virt. eigenvalues --   -0.04983   0.06094   0.10284   0.10898   0.11210
 Alpha virt. eigenvalues --    0.13382   0.13821   0.14954   0.20087   0.21859
 Alpha virt. eigenvalues --    0.23663   0.29498   0.34146   0.34354   0.36728

 Mulliken charges:
               1
     1  C    0.148786
     2  C    0.077518
     3  O   -0.226304
 Sum of Mulliken charges =  -0.00000

 Dipole moment (field-independent basis, Debye):
    X=             -0.0000    Y=              0.0000    Z=             -0.7029  Tot=              0.7029
 Quadrupole moment (field-independent basis, Debye-Ang):
   XX=            -14.4073   YY=            -18.1465   ZZ=            -23.2465
   XY=              0.0000   XZ=             -0.0000   YZ=              0.0000

 .8831258\CCSD(T)=-150.9050047\RMSD=4.984e-09\PG=C*V [C*(O1C1C1)]\\@
 Normal termination of Gaussian 09 at Mon Oct  9 12:02:33 2017.
