 Gaussian 09, Revision E.01,
 Gaussian 09:  ES64L-G09RevE.01 30-Nov-2015

 -----------------------------------
 #p ccsd(t,maxcyc=200)/6-311++G(d,p)
 -----------------------------------

 -------------
 ccsd(t) iener
 -------------
 Symbolic Z-matrix:
 Charge =  1 Multiplicity = 2

                         Standard orientation:
 ---------------------------------------------------------------------
 Center     Atomic      Atomic             Coordinates (Angstroms)
 Number     Number       Type             X           Y           Z
 ---------------------------------------------------------------------
      1          6           0       -0.000000    0.723176   -0.366457
      2          6           0       -0.000000   -0.723176   -0.366457
      3          6           0       -0.000000    0.000000    0.732915
 ---------------------------------------------------------------------

 SCF Done:  E(UHF) =  -112.949154013     A.U. after   28 cycles
 E2 =    -0.3619129190D+00 EUMP2 =    -0.11331106693159D+03
 CCSD(T)
 CCSD(T)= -0.11335509306D+03

 The electronic state is 2-B2.
 Alpha  occ. eigenvalues --  -11.72673 -11.72589 -11.69852  -1.63104  -1.08579
 Alpha  occ. eigenvalues --   -1.02771  -0.86508  -0.86169  -0.81418
 Alpha virt. eigenvalues --   -0.35935  -0.20628  -0.16849  -0.08253  -0.07620
 Alpha virt. eigenvalues --   -0.06852  -0.06458  -0.01671  -0.01621  -0.01002
 Alpha virt. eigenvalues --    0.00320   0.00808   0.01748   0.06718   0.06933

  Beta  occ. eigenvalues --  -11.70991 -11.70877 -11.68267  -1.62871  -1.02787
  Beta  occ. eigenvalues --   -0.94780  -0.85435  -0.72790
  Beta virt. eigenvalues --   -0.33747  -0.33265  -0.18314  -0.14378  -0.07496
  Beta virt. eigenvalues --   -0.07301  -0.06542  -0.06505  -0.01384  -0.01062
  Beta virt. eigenvalues --   -0.01006   0.00564   0.01249   0.02687   0.07228

 Mulliken charges and spin densities:
               1          2
     1  C    0.307953   0.217259
     2  C    0.307953   0.217259
     3  C    0.384093   0.565481
 Sum of Mulliken charges =   1.00000   1.00000

 Dipole moment (field-independent basis, Debye):
    X=             -0.0000    Y=             -0.0000    Z=              0.7057  Tot=              0.7057
 Quadrupole moment (field-independent basis, Debye-Ang):
   XX=            -14.0861   YY=            -12.0729   ZZ=            -12.4632
   XY=              0.0000   XZ=              0.0000   YZ=             -0.0000

 .3203943\CCSD=-113.324985\CCSD(T)=-113.3550931\S2=0.83107\S2-1=0.80042
 Normal termination of Gaussian 09 at Mon Oct  9 12:34:13 2017.
