 Gaussian 09, Revision E.01,
 Gaussian 09:  ES64L-G09RevE.01 30-Nov-2015

 -----------------------------------
 #p ccsd(t,maxcyc=200)/6-311++G(d,p)
 -----------------------------------

 -------------
 ccsd(t) iener
 -------------
 Symbolic Z-matrix:
 Charge =  1 Multiplicity = 4

                         Standard orientation:
 ---------------------------------------------------------------------
 Center     Atomic      Atomic             Coordinates (Angstroms)
 Number     Number       Type             X           Y           Z
 ---------------------------------------------------------------------
      1          6           0        0.000000   -0.000000    1.265768
      2          6           0        0.000000    0.000000    0.000000
      3          6           0        0.000000   -0.000000   -1.265768
 ---------------------------------------------------------------------

 SCF Done:  E(UHF) =  -112.978582069     A.U. after   14 cycles
 E2 =    -0.2548051330D+00 EUMP2 =    -0.11323338720237D+03
 CCSD(T)
 CCSD(T)= -0.11328580055D+03

 Unable to determine electronic state:  an orbital has unidentified symmetry.
 Alpha  occ. eigenvalues --  -11.70034 -11.70033 -11.55517  -1.41923  -1.30306
 Alpha  occ. eigenvalues --   -0.97699  -0.93290  -0.85678  -0.74874  -0.74266
 Alpha virt. eigenvalues --   -0.33483  -0.09091  -0.06364  -0.06163  -0.05597
 Alpha virt. eigenvalues --   -0.04508  -0.03447  -0.01118  -0.01088  -0.00655
 Alpha virt. eigenvalues --    0.02548   0.06561   0.06582   0.10708   0.13803

  Beta  occ. eigenvalues --  -11.63808 -11.63802 -11.56379  -1.37315  -1.16560
  Beta  occ. eigenvalues --   -0.75183  -0.74754
  Beta virt. eigenvalues --   -0.28055  -0.24818  -0.22152  -0.17950  -0.07239
  Beta virt. eigenvalues --   -0.06254  -0.05973  -0.03709  -0.02890   0.00052
  Beta virt. eigenvalues --    0.00807   0.02675   0.03482   0.04349   0.08930

 Mulliken charges and spin densities:
               1          2
     1  C    0.155182   1.604288
     2  C    0.689636  -0.208575
     3  C    0.155182   1.604288
 Sum of Mulliken charges =   1.00000   3.00000

 Dipole moment (field-independent basis, Debye):
    X=              0.0000    Y=             -0.0000    Z=              0.0000  Tot=              0.0000
 Quadrupole moment (field-independent basis, Debye-Ang):
   XX=            -13.6901   YY=            -15.0953   ZZ=             -2.6957
   XY=             -0.0000   XZ=             -0.0000   YZ=             -0.0000

 9\PMP3-0=-113.2578055\MP4SDQ=-113.2576036\CCSD=-113.2666657\CCSD(T)=-1
 Normal termination of Gaussian 09 at Mon Oct  9 12:38:13 2017.
