 Gaussian 09, Revision E.01,
 Gaussian 09:  ES64L-G09RevE.01 30-Nov-2015

 -----------------------------------
 #p ccsd(t,maxcyc=200)/6-311++G(d,p)
 -----------------------------------

 -------------
 ccsd(t) iener
 -------------
 Symbolic Z-matrix:
 Charge =  0 Multiplicity = 3

                         Standard orientation:
 ---------------------------------------------------------------------
 Center     Atomic      Atomic             Coordinates (Angstroms)
 Number     Number       Type             X           Y           Z
 ---------------------------------------------------------------------
      1          6           0       -0.000000    0.790752    0.000000
      2          6           0        0.684811   -0.395376    0.000000
      3          6           0       -0.684811   -0.395376    0.000000
 ---------------------------------------------------------------------

 SCF Done:  E(UHF) =  -113.353605882     A.U. after   12 cycles
 E2 =    -0.3565211400D+00 EUMP2 =    -0.11371012702249D+03
 CCSD(T)
 CCSD(T)= -0.11374314629D+03

 The electronic state is 3-A1'.
 Alpha  occ. eigenvalues --  -11.35508 -11.35272 -11.35272  -1.29621  -0.77519
 Alpha  occ. eigenvalues --   -0.77519  -0.59630  -0.53656  -0.46424  -0.46424
 Alpha virt. eigenvalues --    0.08286   0.08286   0.08586   0.08586   0.08859
 Alpha virt. eigenvalues --    0.10997   0.14498   0.14498   0.17167   0.17799
 Alpha virt. eigenvalues --    0.18788   0.18788   0.23807   0.23807   0.33857

  Beta  occ. eigenvalues --  -11.32957 -11.32755 -11.32755  -1.26094  -0.62308
  Beta  occ. eigenvalues --   -0.62308  -0.51871  -0.39265
  Beta virt. eigenvalues --   -0.01003  -0.01003   0.09104   0.09104   0.09953
  Beta virt. eigenvalues --    0.10065   0.10065   0.10875   0.15454   0.15454
  Beta virt. eigenvalues --    0.18079   0.18267   0.20792   0.20792   0.24663

 Mulliken charges and spin densities:
               1          2
     1  C    0.000000   0.666667
     2  C    0.000000   0.666667
     3  C    0.000000   0.666667
 Sum of Mulliken charges =   0.00000   2.00000

 Dipole moment (field-independent basis, Debye):
    X=             -0.0000    Y=             -0.0000    Z=              0.0000  Tot=              0.0000
 Quadrupole moment (field-independent basis, Debye-Ang):
   XX=            -18.5132   YY=            -18.5132   ZZ=            -16.7837
   XY=             -0.0000   XZ=              0.0000   YZ=             -0.0000

 3.7186706\CCSD(T)=-113.7431463\S2=2.046243\S2-1=2.015013\S2A=2.000699\
 Normal termination of Gaussian 09 at Mon Oct  9 12:30:11 2017.
