 Gaussian 09, Revision E.01,
 Gaussian 09:  ES64L-G09RevE.01 30-Nov-2015

 -----------------------------------
 #p ccsd(t,maxcyc=200)/6-311++G(d,p)
 -----------------------------------

 -------------
 ccsd(t) iener
 -------------
 Symbolic Z-matrix:
 Charge =  0 Multiplicity = 1

                         Standard orientation:
 ---------------------------------------------------------------------
 Center     Atomic      Atomic             Coordinates (Angstroms)
 Number     Number       Type             X           Y           Z
 ---------------------------------------------------------------------
      1          6           0        0.000000    0.000000    1.290898
      2          6           0        0.000000    0.000000    0.000000
      3          6           0        0.000000    0.000000   -1.290898
 ---------------------------------------------------------------------

 SCF Done:  E(RHF) =  -113.379840568     A.U. after   11 cycles
 E2 =    -0.3518325372D+00 EUMP2 =    -0.11373167310498D+03
 CCSD(T)
 CCSD(T)= -0.11377548618D+03

 The electronic state is 1-SGG.
 Alpha  occ. eigenvalues --  -11.38011 -11.38008 -11.24549  -1.12077  -0.95443
 Alpha  occ. eigenvalues --   -0.54432  -0.50637  -0.47177  -0.47177
 Alpha virt. eigenvalues --   -0.02147  -0.02147   0.08694   0.09470   0.10300
 Alpha virt. eigenvalues --    0.10300   0.12233   0.15662   0.15662   0.18584
 Alpha virt. eigenvalues --    0.18640   0.18640   0.26936   0.29184   0.29184

 Mulliken charges:
               1
     1  C    0.032437
     2  C   -0.064874
     3  C    0.032437
 Sum of Mulliken charges =  -0.00000

 Dipole moment (field-independent basis, Debye):
    X=              0.0000    Y=             -0.0000    Z=              0.0000  Tot=              0.0000
 Quadrupole moment (field-independent basis, Debye-Ang):
   XX=            -17.0745   YY=            -17.0745   ZZ=            -22.0131
   XY=             -0.0000   XZ=             -0.0000   YZ=             -0.0000

 Normal termination of Gaussian 09 at Mon Oct  9 12:25:53 2017.
