 Gaussian 09, Revision E.01,
 Gaussian 09:  ES64L-G09RevE.01 30-Nov-2015

 -----------------------------------
 #p ccsd(t,maxcyc=200)/6-311++G(d,p)
 -----------------------------------

 -------------
 ccsd(t) iener
 -------------
 Symbolic Z-matrix:
 Charge =  0 Multiplicity = 3

                         Standard orientation:
 ---------------------------------------------------------------------
 Center     Atomic      Atomic             Coordinates (Angstroms)
 Number     Number       Type             X           Y           Z
 ---------------------------------------------------------------------
      1          6           0        0.000000    0.000000    1.293841
      2          6           0        0.000000    0.000000   -1.293841
      3          6           0        0.000000    0.000000    0.000000
 ---------------------------------------------------------------------

 SCF Done:  E(UHF) =  -113.286467625     A.U. after   15 cycles
 E2 =    -0.3614588784D+00 EUMP2 =    -0.11364792650332D+03
 CCSD(T)
 CCSD(T)= -0.11369605720D+03

 Unable to determine electronic state:  an orbital has unidentified symmetry.
 Alpha  occ. eigenvalues --  -11.37377 -11.37377 -11.26985  -1.12403  -0.99649
 Alpha  occ. eigenvalues --   -0.62751  -0.58530  -0.55091  -0.46027  -0.42354
 Alpha virt. eigenvalues --   -0.03825   0.08413   0.08790   0.10386   0.10824
 Alpha virt. eigenvalues --    0.12323   0.14532   0.15413   0.17269   0.18136
 Alpha virt. eigenvalues --    0.18479   0.26165   0.26847   0.28407   0.30785

  Beta  occ. eigenvalues --  -11.33641 -11.33633 -11.28326  -1.09233  -0.87087
  Beta  occ. eigenvalues --   -0.47286  -0.46917  -0.34282
  Beta virt. eigenvalues --   -0.12394   0.01681   0.05305   0.09352   0.09786
  Beta virt. eigenvalues --    0.10076   0.10325   0.12440   0.16213   0.17504
  Beta virt. eigenvalues --    0.18893   0.19304   0.19632   0.27436   0.30045

 Mulliken charges and spin densities:
               1          2
     1  C   -0.286841   1.057723
     2  C   -0.286841   1.057723
     3  C    0.573681  -0.115446
 Sum of Mulliken charges =  -0.00000   2.00000

 Dipole moment (field-independent basis, Debye):
    X=             -0.0000    Y=             -0.0000    Z=             -0.0000  Tot=              0.0000
 Quadrupole moment (field-independent basis, Debye-Ang):
   XX=            -16.8779   YY=            -18.4588   ZZ=            -18.3908
   XY=             -0.0000   XZ=              0.0000   YZ=              0.0000

 .6541773\MP4SDQ=-113.6624343\CCSD=-113.6634758\CCSD(T)=-113.6960572\S2
 Normal termination of Gaussian 09 at Mon Oct  9 12:30:22 2017.
