 Gaussian 09, Revision E.01,
 Gaussian 09:  ES64L-G09RevE.01 30-Nov-2015

 -----------------------------------
 #p ccsd(t,maxcyc=200)/6-311++G(d,p)
 -----------------------------------

 -------------
 ccsd(t) iener
 -------------
 Symbolic Z-matrix:
 Charge =  1 Multiplicity = 4

                         Standard orientation:
 ---------------------------------------------------------------------
 Center     Atomic      Atomic             Coordinates (Angstroms)
 Number     Number       Type             X           Y           Z
 ---------------------------------------------------------------------
      1          6           0        0.000000    0.804550   -0.000000
      2          6           0       -0.696761   -0.402275   -0.000000
      3          6           0        0.696761   -0.402275   -0.000000
 ---------------------------------------------------------------------

 SCF Done:  E(UHF) =  -113.000982623     A.U. after   11 cycles
 E2 =    -0.2858214178D+00 EUMP2 =    -0.11328680404110D+03
 CCSD(T)
 CCSD(T)= -0.11332826174D+03

 The electronic state is 4-A1'.
 Alpha  occ. eigenvalues --  -11.69173 -11.68957 -11.68957  -1.59560  -1.09275
 Alpha  occ. eigenvalues --   -1.09275  -0.93443  -0.82844  -0.79195  -0.79195
 Alpha virt. eigenvalues --   -0.19170  -0.19170  -0.08344  -0.07236  -0.07236
 Alpha virt. eigenvalues --   -0.06102  -0.01614  -0.01614  -0.01544  -0.01265
 Alpha virt. eigenvalues --    0.00586   0.00586   0.06978   0.06978   0.07436

  Beta  occ. eigenvalues --  -11.65514 -11.65373 -11.65373  -1.52924  -0.91310
  Beta  occ. eigenvalues --   -0.91310  -0.79719
  Beta virt. eigenvalues --   -0.31501  -0.22896  -0.22896  -0.13292  -0.13292
  Beta virt. eigenvalues --   -0.06462  -0.06462  -0.05936  -0.05223  -0.00528
  Beta virt. eigenvalues --   -0.00455  -0.00455   0.01473   0.01473   0.03084

 Mulliken charges and spin densities:
               1          2
     1  C    0.333333   1.000000
     2  C    0.333333   1.000000
     3  C    0.333333   1.000000
 Sum of Mulliken charges =   1.00000   3.00000

 Dipole moment (field-independent basis, Debye):
    X=              0.0000    Y=             -0.0000    Z=             -0.0000  Tot=              0.0000
 Quadrupole moment (field-independent basis, Debye-Ang):
   XX=            -11.4715   YY=            -11.4715   ZZ=            -13.7121
   XY=             -0.0000   XZ=              0.0000   YZ=              0.0000

 Q=-113.3056801\CCSD=-113.308131\CCSD(T)=-113.3282617\S2=3.768333\S2-1=
 Normal termination of Gaussian 09 at Mon Oct  9 12:35:00 2017.
