 Gaussian 09, Revision E.01,
 Gaussian 09:  ES64L-G09RevE.01 30-Nov-2015

 -----------------------------------
 #p ccsd(t,maxcyc=200)/6-311++G(d,p)
 -----------------------------------

 -------------
 ccsd(t) iener
 -------------
 Symbolic Z-matrix:
 Charge =  0 Multiplicity = 1

                         Standard orientation:
 ---------------------------------------------------------------------
 Center     Atomic      Atomic             Coordinates (Angstroms)
 Number     Number       Type             X           Y           Z
 ---------------------------------------------------------------------
      1          6           0        0.000000    0.000000   -0.537041
      2          6           0       -0.000000   -0.000000    0.758018
      3          6           0       -0.000000   -0.000000    2.028084
      4          8           0        0.000000    0.000000   -1.686796
 ---------------------------------------------------------------------

 SCF Done:  E(RHF) =  -188.374287657     A.U. after   13 cycles
 E2 =    -0.5692636013D+00 EUMP2 =    -0.18894355125834D+03
 CCSD(T)
 CCSD(T)= -0.18897887396D+03

 The electronic state is 1-SG.
 Alpha  occ. eigenvalues --  -20.69787 -11.46680 -11.33398 -11.25192  -1.54724
 Alpha  occ. eigenvalues --   -1.11783  -0.94592  -0.79586  -0.69148  -0.69148
 Alpha  occ. eigenvalues --   -0.48980  -0.44185  -0.44185
 Alpha virt. eigenvalues --    0.02564   0.02564   0.05720   0.09463   0.09679
 Alpha virt. eigenvalues --    0.09679   0.11540   0.14941   0.14941   0.16574
 Alpha virt. eigenvalues --    0.19586   0.19586   0.26283   0.27475   0.31878

 Mulliken charges:
               1
     1  C   -1.477012
     2  C    1.328983
     3  C    0.376078
     4  O   -0.228048
 Sum of Mulliken charges =  -0.00000

 Dipole moment (field-independent basis, Debye):
    X=              0.0000    Y=             -0.0000    Z=             -1.6698  Tot=              1.6698
 Quadrupole moment (field-independent basis, Debye-Ang):
   XX=            -21.7676   YY=            -21.7676   ZZ=            -30.4204
   XY=              0.0000   XZ=              0.0000   YZ=              0.0000

 77\CCSD(T)=-188.978874\RMSD=8.344e-09\PG=C*V [C*(O1C1C1C1)]\\@
 Normal termination of Gaussian 09 at Mon Oct  9 12:18:47 2017.
