 Gaussian 09, Revision E.01,
 Gaussian 09:  ES64L-G09RevE.01 30-Nov-2015

 -----------------------------------
 #p ccsd(t,maxcyc=200)/6-311++G(d,p)
 -----------------------------------

 -------------
 ccsd(t) iener
 -------------
 Symbolic Z-matrix:
 Charge =  1 Multiplicity = 4

                         Standard orientation:
 ---------------------------------------------------------------------
 Center     Atomic      Atomic             Coordinates (Angstroms)
 Number     Number       Type             X           Y           Z
 ---------------------------------------------------------------------
      1          6           0        0.767715    0.333521    0.000107
      2          6           0        2.027856   -0.176717   -0.000254
      3          6           0       -0.550466   -0.142695    0.000599
      4          8           0       -1.683829   -0.010582   -0.000339
 ---------------------------------------------------------------------

 SCF Done:  E(UHF) =  -187.899980047     A.U. after   74 cycles
 E2 =    -0.4808991831D+00 EUMP2 =    -0.18838087922976D+03
 CCSD(T)
 CCSD(T)= -0.18845203958D+03

 The electronic state is 4-A.
 Alpha  occ. eigenvalues --  -20.99963 -11.70663 -11.66825 -11.63499  -1.84208
 Alpha  occ. eigenvalues --   -1.45946  -1.23481  -1.07325  -0.99250  -0.98010
 Alpha  occ. eigenvalues --   -0.85146  -0.84852  -0.80901  -0.63110
 Alpha virt. eigenvalues --   -0.23244  -0.18683  -0.08279  -0.07920  -0.06125
 Alpha virt. eigenvalues --   -0.04947  -0.03796  -0.01694  -0.01104  -0.00921
 Alpha virt. eigenvalues --    0.00053   0.02342   0.03465   0.05879   0.07093

  Beta  occ. eigenvalues --  -20.97078 -11.71188 -11.63521 -11.59816  -1.78429
  Beta  occ. eigenvalues --   -1.31256  -1.14687  -1.02808  -0.88755  -0.88690
  Beta  occ. eigenvalues --   -0.67149
  Beta virt. eigenvalues --   -0.31486  -0.30423  -0.16843  -0.15054  -0.11217
  Beta virt. eigenvalues --   -0.05386  -0.05324  -0.05146  -0.02842  -0.01434
  Beta virt. eigenvalues --   -0.01320  -0.00255   0.00666   0.02511   0.03941

 Mulliken charges and spin densities:
               1          2
     1  C    0.559651   1.471227
     2  C    0.304429   1.186214
     3  C    0.011662  -0.283714
     4  O    0.124258   0.626273
 Sum of Mulliken charges =   1.00000   3.00000

 Dipole moment (field-independent basis, Debye):
    X=              1.7307    Y=              0.4420    Z=              0.0010  Tot=              1.7863
 Quadrupole moment (field-independent basis, Debye-Ang):
   XX=            -12.9702   YY=            -20.1911   ZZ=            -17.7209
   XY=              1.7895   XZ=             -0.0028   YZ=              0.0022

 Normal termination of Gaussian 09 at Mon Oct  9 12:29:56 2017.
