 Gaussian 09, Revision E.01,
 Gaussian 09:  ES64L-G09RevE.01 30-Nov-2015

 -----------------------------------
 #p ccsd(t,maxcyc=200)/6-311++G(d,p)
 -----------------------------------

 -------------
 ccsd(t) iener
 -------------
 Symbolic Z-matrix:
 Charge =  1 Multiplicity = 2

                         Standard orientation:
 ---------------------------------------------------------------------
 Center     Atomic      Atomic             Coordinates (Angstroms)
 Number     Number       Type             X           Y           Z
 ---------------------------------------------------------------------
      1          6           0        0.000000    0.000000    1.896806
      2          6           0        0.000000    0.000000    0.699008
      3          6           0       -0.000000   -0.000000   -1.784904
      4          8           0       -0.000000   -0.000000   -0.608182
 ---------------------------------------------------------------------

 SCF Done:  E(UHF) =  -187.901696005     A.U. after   19 cycles
 E2 =    -0.4822545723D+00 EUMP2 =    -0.18838395057711D+03
 CCSD(T)
 CCSD(T)= -0.18845331576D+03

 The electronic state is 2-SG.
 Alpha  occ. eigenvalues --  -21.07431 -11.74856 -11.58391 -11.57630  -1.91994
 Alpha  occ. eigenvalues --   -1.42321  -1.30601  -1.04935  -1.04935  -0.87619
 Alpha  occ. eigenvalues --   -0.86071  -0.71191  -0.71191
 Alpha virt. eigenvalues --   -0.19746  -0.19746  -0.10267  -0.06534  -0.06534
 Alpha virt. eigenvalues --   -0.05170  -0.02849  -0.02023  -0.02023   0.00989
 Alpha virt. eigenvalues --    0.02398   0.02398   0.06492   0.06558   0.06558

  Beta  occ. eigenvalues --  -21.06552 -11.75323 -11.59742 -11.51947  -1.91280
  Beta  occ. eigenvalues --   -1.44758  -1.22366  -1.04346  -1.04346  -0.87547
  Beta  occ. eigenvalues --   -0.68489  -0.68489
  Beta virt. eigenvalues --   -0.19779  -0.19779  -0.19679  -0.10379  -0.05226
  Beta virt. eigenvalues --   -0.04815  -0.04815  -0.02686  -0.02686  -0.01159
  Beta virt. eigenvalues --    0.00943   0.03388   0.03388   0.05843   0.09600

 Mulliken charges and spin densities:
               1          2
     1  C   -0.360634   1.782104
     2  C    0.515571  -0.773622
     3  C    0.462990  -0.202851
     4  O    0.382074   0.194369
 Sum of Mulliken charges =   1.00000   1.00000

 Dipole moment (field-independent basis, Debye):
    X=              0.0000    Y=             -0.0000    Z=             -1.3084  Tot=              1.3084
 Quadrupole moment (field-independent basis, Debye-Ang):
   XX=            -19.0949   YY=            -19.0949   ZZ=             -7.4615
   XY=              0.0000   XZ=             -0.0000   YZ=              0.0000

 Normal termination of Gaussian 09 at Mon Oct  9 12:21:07 2017.
