 Gaussian 09, Revision E.01,
 Gaussian 09:  ES64L-G09RevE.01 30-Nov-2015

 -----------------------------------
 #p ccsd(t,maxcyc=200)/6-311++G(d,p)
 -----------------------------------

 -------------
 ccsd(t) iener
 -------------
 Symbolic Z-matrix:
 Charge =  1 Multiplicity = 2

                         Standard orientation:
 ---------------------------------------------------------------------
 Center     Atomic      Atomic             Coordinates (Angstroms)
 Number     Number       Type             X           Y           Z
 ---------------------------------------------------------------------
      1          6           0        1.009552    0.689039   -0.040691
      2          6           0       -0.394755    0.051370    0.157790
      3          6           0       -1.710512    0.026412   -0.078821
      4          8           0        0.821787   -0.575116   -0.028708
 ---------------------------------------------------------------------

 SCF Done:  E(UHF) =  -187.860907242     A.U. after   39 cycles
 E2 =    -0.4979647807D+00 EUMP2 =    -0.18835887202306D+03
 CCSD(T)
 CCSD(T)= -0.18843134143D+03

 The electronic state is 2-A.
 Alpha  occ. eigenvalues --  -21.03825 -11.70277 -11.68461 -11.67929  -1.90503
 Alpha  occ. eigenvalues --   -1.40472  -1.19556  -1.11647  -1.02356  -0.87424
 Alpha  occ. eigenvalues --   -0.82940  -0.76088  -0.73100
 Alpha virt. eigenvalues --   -0.26718  -0.21437  -0.15895  -0.08648  -0.06573
 Alpha virt. eigenvalues --   -0.05061  -0.04203  -0.03148  -0.01984  -0.00503
 Alpha virt. eigenvalues --    0.01135   0.02381   0.03758   0.05671   0.06956

  Beta  occ. eigenvalues --  -21.03134 -11.70778 -11.67323 -11.66482  -1.89289
  Beta  occ. eigenvalues --   -1.31775  -1.19723  -1.10938  -0.95285  -0.87314
  Beta  occ. eigenvalues --   -0.79632  -0.73078
  Beta virt. eigenvalues --   -0.29702  -0.24959  -0.19091  -0.10559  -0.06466
  Beta virt. eigenvalues --   -0.06061  -0.04864  -0.04188  -0.02333  -0.01569
  Beta virt. eigenvalues --   -0.00148   0.01558   0.02817   0.04187   0.06914

 Mulliken charges and spin densities:
               1          2
     1  C    0.365110  -0.260303
     2  C   -0.259364   0.590634
     3  C    0.597568   0.553540
     4  O    0.296686   0.116130
 Sum of Mulliken charges =   1.00000   1.00000

 Dipole moment (field-independent basis, Debye):
    X=             -1.1284    Y=              0.1207    Z=              0.4060  Tot=              1.2052
 Quadrupole moment (field-independent basis, Debye-Ang):
   XX=            -14.7710   YY=            -19.9350   ZZ=            -18.2746
   XY=              0.2087   XZ=             -0.6167   YZ=              0.0307

 Normal termination of Gaussian 09 at Mon Oct  9 12:25:03 2017.
