 Gaussian 09, Revision E.01,
 Gaussian 09:  ES64L-G09RevE.01 30-Nov-2015

 -----------------------------------
 #p ccsd(t,maxcyc=200)/6-311++G(d,p)
 -----------------------------------

 -------------
 ccsd(t) iener
 -------------
 Symbolic Z-matrix:
 Charge =  1 Multiplicity = 2

                         Standard orientation:
 ---------------------------------------------------------------------
 Center     Atomic      Atomic             Coordinates (Angstroms)
 Number     Number       Type             X           Y           Z
 ---------------------------------------------------------------------
      1          6           0       -0.000000    0.000000    1.998960
      2          6           0       -0.000000    0.000000    0.784820
      3          6           0        0.000000   -0.000000   -0.551366
      4          8           0        0.000000   -0.000000   -1.674310
 ---------------------------------------------------------------------

 SCF Done:  E(UHF) =  -188.035284820     A.U. after   23 cycles
 E2 =    -0.4884426898D+00 EUMP2 =    -0.18852372751004D+03
 CCSD(T)
 CCSD(T)= -0.18858982802D+03

 The electronic state is 2-SG.
 Alpha  occ. eigenvalues --  -20.97033 -11.72808 -11.64416 -11.56391  -1.80337
 Alpha  occ. eigenvalues --   -1.40302  -1.24400  -1.04144  -0.92295  -0.91461
 Alpha  occ. eigenvalues --   -0.91461  -0.76389  -0.76389
 Alpha virt. eigenvalues --   -0.22655  -0.22655  -0.10370  -0.06109  -0.05641
 Alpha virt. eigenvalues --   -0.05641  -0.02856  -0.01274  -0.01274   0.01094
 Alpha virt. eigenvalues --    0.03943   0.03943   0.07588   0.07588   0.08394

  Beta  occ. eigenvalues --  -20.99349 -11.71740 -11.58343 -11.57687  -1.84635
  Beta  occ. eigenvalues --   -1.40481  -1.18799  -1.06957  -0.98396  -0.98396
  Beta  occ. eigenvalues --   -0.74950  -0.74950
  Beta virt. eigenvalues --   -0.22953  -0.17555  -0.17555  -0.10169  -0.05997
  Beta virt. eigenvalues --   -0.05997  -0.04518  -0.02284  -0.01000  -0.01000
  Beta virt. eigenvalues --    0.01335   0.04346   0.04346   0.08617   0.10226

 Mulliken charges and spin densities:
               1          2
     1  C    0.466331   1.799547
     2  C    1.757453  -0.769774
     3  C   -1.263454   0.470690
     4  O    0.039670  -0.500462
 Sum of Mulliken charges =   1.00000   1.00000

 Dipole moment (field-independent basis, Debye):
    X=             -0.0000    Y=             -0.0000    Z=              2.5648  Tot=              2.5648
 Quadrupole moment (field-independent basis, Debye-Ang):
   XX=            -18.6778   YY=            -18.6778   ZZ=             -8.1285
   XY=             -0.0000   XZ=              0.0000   YZ=             -0.0000

 CCSD(T)=-188.589828\S2=1.478031\S2-1=1.356151\S2A=1.191531\RMSD=3.203e
 Normal termination of Gaussian 09 at Mon Oct  9 12:20:34 2017.
