 Gaussian 09, Revision E.01,
 Gaussian 09:  ES64L-G09RevE.01 30-Nov-2015

 -----------------------------------
 #p ccsd(t,maxcyc=200)/6-311++G(d,p)
 -----------------------------------

 -------------
 ccsd(t) iener
 -------------
 Symbolic Z-matrix:
 Charge =  1 Multiplicity = 4

                         Standard orientation:
 ---------------------------------------------------------------------
 Center     Atomic      Atomic             Coordinates (Angstroms)
 Number     Number       Type             X           Y           Z
 ---------------------------------------------------------------------
      1          6           0        0.000000   -0.717607   -1.057375
      2          6           0        0.000000    0.717607   -1.057375
      3          6           0       -0.000000   -0.000000    0.219852
      4          8           0       -0.000000   -0.000000    1.421174
 ---------------------------------------------------------------------

 SCF Done:  E(UHF) =  -187.901826207     A.U. after   18 cycles
 E2 =    -0.4706668618D+00 EUMP2 =    -0.18837249306923D+03
 CCSD(T)
 CCSD(T)= -0.18844189001D+03

 The electronic state is 4-A2.
 Alpha  occ. eigenvalues --  -20.95397 -11.69793 -11.69671 -11.66821  -1.79533
 Alpha  occ. eigenvalues --   -1.54805  -1.09940  -1.07565  -0.98529  -0.98527
 Alpha  occ. eigenvalues --   -0.92871  -0.84810  -0.79804  -0.71418
 Alpha virt. eigenvalues --   -0.23006  -0.10457  -0.09727  -0.07096  -0.06542
 Alpha virt. eigenvalues --   -0.06153  -0.02806  -0.01663  -0.01164  -0.00122
 Alpha virt. eigenvalues --    0.00040   0.02147   0.05699   0.06789   0.07320

  Beta  occ. eigenvalues --  -20.91702 -11.68099 -11.65853 -11.65792  -1.69526
  Beta  occ. eigenvalues --   -1.46623  -1.01572  -0.96790  -0.86661  -0.82266
  Beta  occ. eigenvalues --   -0.75879
  Beta virt. eigenvalues --   -0.30890  -0.29059  -0.22723  -0.10922  -0.07829
  Beta virt. eigenvalues --   -0.07304  -0.06186  -0.05959  -0.02254  -0.01985
  Beta virt. eigenvalues --   -0.00688  -0.00277   0.00068   0.02199   0.03665

 Mulliken charges and spin densities:
               1          2
     1  C    0.495289   1.267482
     2  C    0.495289   1.267482
     3  C   -0.022576  -0.428696
     4  O    0.031998   0.893731
 Sum of Mulliken charges =   1.00000   3.00000

 Dipole moment (field-independent basis, Debye):
    X=              0.0000    Y=              0.0000    Z=             -3.2168  Tot=              3.2168
 Quadrupole moment (field-independent basis, Debye-Ang):
   XX=            -17.8502   YY=            -16.5464   ZZ=            -15.5106
   XY=              0.0000   XZ=             -0.0000   YZ=             -0.0000

 188.4026994\CCSD=-188.4119732\CCSD(T)=-188.44189\S2=3.939058\S2-1=3.86
 Normal termination of Gaussian 09 at Mon Oct  9 12:22:10 2017.
