 Gaussian 09, Revision E.01,
 Gaussian 09:  ES64L-G09RevE.01 30-Nov-2015

 -----------------------------------
 #p ccsd(t,maxcyc=200)/6-311++G(d,p)
 -----------------------------------

 -------------
 ccsd(t) iener
 -------------
 Symbolic Z-matrix:
 Charge =  0 Multiplicity = 1

                         Standard orientation:
 ---------------------------------------------------------------------
 Center     Atomic      Atomic             Coordinates (Angstroms)
 Number     Number       Type             X           Y           Z
 ---------------------------------------------------------------------
      1          6           0       -0.000000   -0.000000   -1.794011
      2          6           0        0.000000    0.000000    1.939092
      3          6           0        0.000000    0.000000    0.680888
      4          8           0       -0.000000   -0.000000   -0.619477
 ---------------------------------------------------------------------

 SCF Done:  E(RHF) =  -188.191491000     A.U. after   13 cycles
 E2 =    -0.5727942329D+00 EUMP2 =    -0.18876428523269D+03
 CCSD(T)
 CCSD(T)= -0.18880998140D+03

 The electronic state is 1-SG.
 Alpha  occ. eigenvalues --  -20.85547 -11.50743 -11.28004 -11.24956  -1.69009
 Alpha  occ. eigenvalues --   -1.19518  -0.95696  -0.82007  -0.82007  -0.66382
 Alpha  occ. eigenvalues --   -0.42310  -0.37919  -0.37919
 Alpha virt. eigenvalues --   -0.00320  -0.00320   0.05270   0.08057   0.10064
 Alpha virt. eigenvalues --    0.10064   0.12957   0.14703   0.14703   0.15231
 Alpha virt. eigenvalues --    0.18110   0.18110   0.25451   0.27321   0.28745

 Mulliken charges:
               1
     1  C    0.244307
     2  C   -0.562136
     3  C   -0.071634
     4  O    0.389463
 Sum of Mulliken charges =  -0.00000

 Dipole moment (field-independent basis, Debye):
    X=             -0.0000    Y=             -0.0000    Z=             -6.5196  Tot=              6.5196
 Quadrupole moment (field-independent basis, Debye-Ang):
   XX=            -22.5549   YY=            -22.5549   ZZ=            -31.0078
   XY=              0.0000   XZ=             -0.0000   YZ=             -0.0000

 MP4SDQ=-188.7789161\CCSD=-188.7731768\CCSD(T)=-188.8099814\RMSD=5.157e
 Normal termination of Gaussian 09 at Mon Oct  9 12:10:36 2017.
