 Gaussian 09, Revision E.01,
 Gaussian 09:  ES64L-G09RevE.01 30-Nov-2015

 -----------------------------------
 #p ccsd(t,maxcyc=200)/6-311++G(d,p)
 -----------------------------------

 -------------
 ccsd(t) iener
 -------------
 Symbolic Z-matrix:
 Charge =  0 Multiplicity = 3

                         Standard orientation:
 ---------------------------------------------------------------------
 Center     Atomic      Atomic             Coordinates (Angstroms)
 Number     Number       Type             X           Y           Z
 ---------------------------------------------------------------------
      1          6           0        0.198487   -0.753736   -0.000000
      2          6           0        0.927946   -1.772953   -0.000000
      3          6           0       -0.000000    0.614238    0.000000
      4          8           0       -0.844825    1.434338    0.000000
 ---------------------------------------------------------------------

 SCF Done:  E(UHF) =  -188.312144895     A.U. after   24 cycles
 E2 =    -0.4804313504D+00 EUMP2 =    -0.18879257624547D+03
 CCSD(T)
 CCSD(T)= -0.18886961661D+03

 The electronic state is 3-A'.
 Alpha  occ. eigenvalues --  -20.62017 -11.37774 -11.35280 -11.28552  -1.45458
 Alpha  occ. eigenvalues --   -1.11570  -0.94603  -0.72991  -0.67830  -0.65558
 Alpha  occ. eigenvalues --   -0.57496  -0.51271  -0.48574  -0.37874
 Alpha virt. eigenvalues --    0.04775   0.06456   0.08057   0.10171   0.10181
 Alpha virt. eigenvalues --    0.11097   0.12677   0.14117   0.16563   0.16707
 Alpha virt. eigenvalues --    0.19541   0.20751   0.23632   0.25636   0.28664

  Beta  occ. eigenvalues --  -20.62510 -11.35018 -11.30637 -11.28667  -1.46103
  Beta  occ. eigenvalues --   -1.08959  -0.85351  -0.71605  -0.63575  -0.58634
  Beta  occ. eigenvalues --   -0.46846  -0.46643
  Beta virt. eigenvalues --   -0.01101   0.06841   0.08546   0.08688   0.10485
  Beta virt. eigenvalues --    0.10688   0.11190   0.11413   0.14926   0.16546
  Beta virt. eigenvalues --    0.16932   0.18122   0.21446   0.23755   0.24827

 Mulliken charges and spin densities:
               1          2
     1  C    0.456962  -1.081599
     2  C   -0.123064   2.318023
     3  C   -0.141881   0.949962
     4  O   -0.192017  -0.186386
 Sum of Mulliken charges =  -0.00000   2.00000

 Dipole moment (field-independent basis, Debye):
    X=              1.4980    Y=             -2.1161    Z=             -0.0000  Tot=              2.5927
 Quadrupole moment (field-independent basis, Debye-Ang):
   XX=            -22.7243   YY=            -22.2894   ZZ=            -21.4367
   XY=              0.0252   XZ=              0.0000   YZ=             -0.0000

 188.8413234\CCSD(T)=-188.8696166\S2=2.716207\S2-1=2.57632\S2A=2.279662
 Normal termination of Gaussian 09 at Mon Oct  9 12:19:19 2017.
