 Gaussian 09, Revision E.01,
 Gaussian 09:  ES64L-G09RevE.01 30-Nov-2015

 -----------------------------------
 #p ccsd(t,maxcyc=200)/6-311++G(d,p)
 -----------------------------------

 -------------
 ccsd(t) iener
 -------------
 Symbolic Z-matrix:
 Charge =  0 Multiplicity = 1

                         Standard orientation:
 ---------------------------------------------------------------------
 Center     Atomic      Atomic             Coordinates (Angstroms)
 Number     Number       Type             X           Y           Z
 ---------------------------------------------------------------------
      1          6           0        0.902283   -0.732514   -0.000000
      2          6           0       -0.453902    1.639998   -0.000000
      3          6           0        0.000000    0.435202   -0.000000
      4          8           0       -0.336286   -1.007014    0.000000
 ---------------------------------------------------------------------

 SCF Done:  E(RHF) =  -188.217063769     A.U. after   17 cycles
 E2 =    -0.5557310103D+00 EUMP2 =    -0.18877279477982D+03
 CCSD(T)
 CCSD(T)= -0.18882872089D+03

 The electronic state is 1-A'.
 Alpha  occ. eigenvalues --  -20.74142 -11.41560 -11.33656 -11.33308  -1.59273
 Alpha  occ. eigenvalues --   -1.07224  -0.92847  -0.79642  -0.71115  -0.62368
 Alpha  occ. eigenvalues --   -0.49484  -0.45371  -0.43270
 Alpha virt. eigenvalues --   -0.00448   0.03634   0.07768   0.09965   0.10216
 Alpha virt. eigenvalues --    0.10579   0.11783   0.13513   0.15399   0.16874
 Alpha virt. eigenvalues --    0.17422   0.20089   0.23535   0.23648   0.25718

 Mulliken charges:
               1
     1  C    0.224670
     2  C   -0.028729
     3  C   -0.283514
     4  O    0.087573
 Sum of Mulliken charges =  -0.00000

 Dipole moment (field-independent basis, Debye):
    X=              0.0585    Y=             -1.3229    Z=              0.0000  Tot=              1.3242
 Quadrupole moment (field-independent basis, Debye-Ang):
   XX=            -23.7847   YY=            -27.5209   ZZ=            -22.2669
   XY=              1.8674   XZ=              0.0000   YZ=              0.0000

 416\CCSD=-188.7955455\CCSD(T)=-188.8287209\RMSD=4.605e-09\PG=CS [SG(C3
 Normal termination of Gaussian 09 at Mon Oct  9 12:17:17 2017.
