 Gaussian 09, Revision E.01,
 Gaussian 09:  ES64L-G09RevE.01 30-Nov-2015

 -----------------------------------
 #p ccsd(t,maxcyc=200)/6-311++G(d,p)
 -----------------------------------

 -------------
 ccsd(t) iener
 -------------
 Symbolic Z-matrix:
 Charge =  1 Multiplicity = 4

                         Standard orientation:
 ---------------------------------------------------------------------
 Center     Atomic      Atomic             Coordinates (Angstroms)
 Number     Number       Type             X           Y           Z
 ---------------------------------------------------------------------
      1          6           0       -0.000000    0.658657   -0.984991
      2          6           0        0.000000    0.000000    1.676078
      3          6           0        0.000000   -0.658657   -0.984991
      4          6           0        0.000000    0.000000    0.293903
 ---------------------------------------------------------------------

 SCF Done:  E(UHF) =  -150.818446096     A.U. after   19 cycles
 E2 =    -0.3928194962D+00 EUMP2 =    -0.15121126559205D+03
 CCSD(T)
 CCSD(T)= -0.15127884486D+03

 The electronic state is 4-A2.
 Alpha  occ. eigenvalues --  -11.67516 -11.67297 -11.62270 -11.61873  -1.57501
 Alpha  occ. eigenvalues --   -1.31558  -1.05916  -0.99486  -0.86795  -0.86078
 Alpha  occ. eigenvalues --   -0.75155  -0.74845  -0.68115
 Alpha virt. eigenvalues --   -0.22273  -0.18261  -0.11234  -0.08492  -0.06334
 Alpha virt. eigenvalues --   -0.06078  -0.05402  -0.02283  -0.02138  -0.01420
 Alpha virt. eigenvalues --   -0.00517   0.00722   0.03707   0.04656   0.05590

  Beta  occ. eigenvalues --  -11.63810 -11.63665 -11.61898 -11.60216  -1.52659
  Beta  occ. eigenvalues --   -1.22120  -0.90861  -0.88539  -0.78364  -0.71522
  Beta virt. eigenvalues --   -0.27322  -0.26228  -0.24347  -0.15034  -0.09838
  Beta virt. eigenvalues --   -0.06806  -0.05733  -0.05427  -0.04322  -0.01717
  Beta virt. eigenvalues --   -0.01023  -0.00988  -0.00820   0.01645   0.02714

 Mulliken charges and spin densities:
               1          2
     1  C    0.250879   0.962057
     2  C    0.542168   0.913359
     3  C    0.250879   0.962057
     4  C   -0.043927   0.162527
 Sum of Mulliken charges =   1.00000   3.00000

 Dipole moment (field-independent basis, Debye):
    X=             -0.0000    Y=             -0.0000    Z=             -2.0483  Tot=              2.0483
 Quadrupole moment (field-independent basis, Debye-Ang):
   XX=            -19.6599   YY=            -16.4065   ZZ=            -16.6950
   XY=              0.0000   XZ=             -0.0000   YZ=              0.0000

 Q=-151.2456652\CCSD=-151.2519391\CCSD(T)=-151.2788449\S2=3.798662\S2-1
 Normal termination of Gaussian 09 at Tue Oct 10 01:41:14 2017.
