 Gaussian 09, Revision E.01,
 Gaussian 09:  ES64L-G09RevE.01 30-Nov-2015

 -----------------------------------
 #p ccsd(t,maxcyc=200)/6-311++G(d,p)
 -----------------------------------

 -------------
 ccsd(t) iener
 -------------
 Symbolic Z-matrix:
 Charge =  0 Multiplicity = 1

                         Standard orientation:
 ---------------------------------------------------------------------
 Center     Atomic      Atomic             Coordinates (Angstroms)
 Number     Number       Type             X           Y           Z
 ---------------------------------------------------------------------
      1          6           0       -0.000000    0.749208    0.000000
      2          6           0       -0.000000   -0.000000    1.237717
      3          6           0       -0.000000   -0.749208   -0.000000
      4          6           0        0.000000   -0.000000   -1.237717
 ---------------------------------------------------------------------

 SCF Done:  E(RHF) =  -151.177178466     A.U. after   11 cycles
 E2 =    -0.4902073983D+00 EUMP2 =    -0.15166738586468D+03
 CCSD(T)
 CCSD(T)= -0.15171368199D+03

 The electronic state is 1-AG.
 Alpha  occ. eigenvalues --  -11.37527 -11.37526 -11.35698 -11.35615  -1.34156
 Alpha  occ. eigenvalues --   -0.99831  -0.76945  -0.59271  -0.56854  -0.55835
 Alpha  occ. eigenvalues --   -0.45684  -0.42667
 Alpha virt. eigenvalues --   -0.02378   0.04820   0.07188   0.08669   0.09612
 Alpha virt. eigenvalues --    0.09904   0.10524   0.12815   0.13543   0.14551
 Alpha virt. eigenvalues --    0.15413   0.16802   0.16899   0.18537   0.19585

 Mulliken charges:
               1
     1  C   -0.177166
     2  C    0.177166
     3  C   -0.177166
     4  C    0.177166
 Sum of Mulliken charges =  -0.00000

 Dipole moment (field-independent basis, Debye):
    X=              0.0000    Y=              0.0000    Z=              0.0000  Tot=              0.0000
 Quadrupole moment (field-independent basis, Debye-Ang):
   XX=            -20.8772   YY=            -25.3494   ZZ=            -29.7721
   XY=              0.0000   XZ=              0.0000   YZ=              0.0000

 151.6802788\CCSD=-151.680701\CCSD(T)=-151.713682\RMSD=3.591e-09\PG=D02
 Normal termination of Gaussian 09 at Tue Oct 10 01:31:55 2017.
