 Gaussian 09, Revision E.01,
 Gaussian 09:  ES64L-G09RevE.01 30-Nov-2015

 -----------------------------------
 #p ccsd(t,maxcyc=200)/6-311++G(d,p)
 -----------------------------------

 -------------
 ccsd(t) iener
 -------------
 Symbolic Z-matrix:
 Charge =  0 Multiplicity = 3

                         Standard orientation:
 ---------------------------------------------------------------------
 Center     Atomic      Atomic             Coordinates (Angstroms)
 Number     Number       Type             X           Y           Z
 ---------------------------------------------------------------------
      1          6           0        0.000000    0.000000    1.953093
      2          6           0        0.000000    0.000000    0.644582
      3          6           0        0.000000    0.000000   -0.644582
      4          6           0        0.000000    0.000000   -1.953093
 ---------------------------------------------------------------------

 SCF Done:  E(UHF) =  -151.216911133     A.U. after   14 cycles
 E2 =    -0.4267877476D+00 EUMP2 =    -0.15164369888064D+03
 CCSD(T)
 CCSD(T)= -0.15171108100D+03

 The electronic state is 3-SGG.
 Alpha  occ. eigenvalues --  -11.35258 -11.35258 -11.33939 -11.33747  -1.17760
 Alpha  occ. eigenvalues --   -1.10311  -0.92236  -0.56508  -0.56508  -0.53499
 Alpha  occ. eigenvalues --   -0.51918  -0.43751  -0.43751
 Alpha virt. eigenvalues --    0.02490   0.02490   0.07970   0.10022   0.10579
 Alpha virt. eigenvalues --    0.10579   0.10671   0.12485   0.12485   0.16256
 Alpha virt. eigenvalues --    0.18866   0.18866   0.22020   0.23693   0.23693

  Beta  occ. eigenvalues --  -11.33905 -11.33683 -11.33440 -11.33423  -1.14575
  Beta  occ. eigenvalues --   -0.98952  -0.88431  -0.49998  -0.49998  -0.49053
  Beta  occ. eigenvalues --   -0.48003
  Beta virt. eigenvalues --   -0.04790  -0.04790   0.08118   0.08118   0.08265
  Beta virt. eigenvalues --    0.10288   0.10712   0.13343   0.13343   0.14778
  Beta virt. eigenvalues --    0.14778   0.16984   0.20402   0.20402   0.22136

 Mulliken charges and spin densities:
               1          2
     1  C   -0.120175   1.018931
     2  C    0.120175  -0.018931
     3  C    0.120175  -0.018931
     4  C   -0.120175   1.018931
 Sum of Mulliken charges =  -0.00000   2.00000

 Dipole moment (field-independent basis, Debye):
    X=             -0.0000    Y=             -0.0000    Z=             -0.0000  Tot=              0.0000
 Quadrupole moment (field-independent basis, Debye-Ang):
   XX=            -22.6433   YY=            -22.6433   ZZ=            -33.8258
   XY=             -0.0000   XZ=              0.0000   YZ=             -0.0000

 =-151.6827437\CCSD(T)=-151.711081\S2=2.216007\S2-1=2.13801\S2A=2.01984
 Normal termination of Gaussian 09 at Tue Oct 10 01:33:17 2017.
