 Gaussian 09, Revision E.01,
 Gaussian 09:  ES64L-G09RevE.01 30-Nov-2015

 -----------------------------------
 #p ccsd(t,maxcyc=200)/6-311++G(d,p)
 -----------------------------------

 -------------
 ccsd(t) iener
 -------------
 Symbolic Z-matrix:
 Charge =  0 Multiplicity = 3

                         Standard orientation:
 ---------------------------------------------------------------------
 Center     Atomic      Atomic             Coordinates (Angstroms)
 Number     Number       Type             X           Y           Z
 ---------------------------------------------------------------------
      1          6           0        0.000000    0.977843    0.196851
      2          6           0       -0.977843    0.000000   -0.196851
      3          6           0        0.977843   -0.000000   -0.196851
      4          6           0       -0.000000   -0.977843    0.196851
 ---------------------------------------------------------------------

 SCF Done:  E(UHF) =  -151.114157219     A.U. after   14 cycles
 E2 =    -0.5087581420D+00 EUMP2 =    -0.15162291536144D+03
 CCSD(T)
 CCSD(T)= -0.15166984592D+03

 The electronic state is 3-A1.
 Alpha  occ. eigenvalues --  -11.36094 -11.35978 -11.35978 -11.35879  -1.31345
 Alpha  occ. eigenvalues --   -0.89818  -0.89818  -0.64885  -0.60903  -0.58658
 Alpha  occ. eigenvalues --   -0.45495  -0.45495  -0.43064
 Alpha virt. eigenvalues --    0.04167   0.04167   0.08030   0.09497   0.09943
 Alpha virt. eigenvalues --    0.09943   0.10401   0.13779   0.13968   0.15683
 Alpha virt. eigenvalues --    0.15683   0.18318   0.18318   0.18788   0.20365

  Beta  occ. eigenvalues --  -11.34506 -11.34403 -11.34403 -11.34338  -1.26618
  Beta  occ. eigenvalues --   -0.83235  -0.83235  -0.55937  -0.50833  -0.44527
  Beta  occ. eigenvalues --   -0.34910
  Beta virt. eigenvalues --   -0.02212  -0.02212   0.05090   0.05090   0.08040
  Beta virt. eigenvalues --    0.09726   0.10586   0.10586   0.12099   0.13884
  Beta virt. eigenvalues --    0.14118   0.16616   0.16616   0.18444   0.18444

 Mulliken charges and spin densities:
               1          2
     1  C   -0.000000   0.500000
     2  C   -0.000000   0.500000
     3  C   -0.000000   0.500000
     4  C   -0.000000   0.500000
 Sum of Mulliken charges =  -0.00000   2.00000

 Dipole moment (field-independent basis, Debye):
    X=              0.0000    Y=             -0.0000    Z=             -0.0000  Tot=              0.0000
 Quadrupole moment (field-independent basis, Debye-Ang):
   XX=            -25.4829   YY=            -25.4829   ZZ=            -22.5933
   XY=              0.0000   XZ=             -0.0000   YZ=              0.0000

 .6266563\CCSD=-151.6285197\CCSD(T)=-151.6698459\S2=2.095863\S2-1=2.042
 Normal termination of Gaussian 09 at Tue Oct 10 01:34:29 2017.
