 Gaussian 09, Revision E.01,
 Gaussian 09:  ES64L-G09RevE.01 30-Nov-2015

 -----------------------------------
 #p ccsd(t,maxcyc=200)/6-311++G(d,p)
 -----------------------------------

 -------------
 ccsd(t) iener
 -------------
 Symbolic Z-matrix:
 Charge =  1 Multiplicity = 4

                         Standard orientation:
 ---------------------------------------------------------------------
 Center     Atomic      Atomic             Coordinates (Angstroms)
 Number     Number       Type             X           Y           Z
 ---------------------------------------------------------------------
      1          6           0        0.000000    0.761167   -0.000000
      2          6           0        0.000000   -0.000000    1.158476
      3          6           0       -0.000000   -0.761167   -0.000000
      4          6           0        0.000000   -0.000000   -1.158476
 ---------------------------------------------------------------------

 SCF Done:  E(UHF) =  -150.832071487     A.U. after   15 cycles
 E2 =    -0.4167288666D+00 EUMP2 =    -0.15124880035402D+03
 CCSD(T)
 CCSD(T)= -0.15130235807D+03

 The electronic state is 4-B3U.
 Alpha  occ. eigenvalues --  -11.67191 -11.67190 -11.65431 -11.65363  -1.65124
 Alpha  occ. eigenvalues --   -1.33444  -1.06988  -0.98561  -0.91987  -0.89345
 Alpha  occ. eigenvalues --   -0.84690  -0.71291  -0.71106
 Alpha virt. eigenvalues --   -0.19008  -0.17867  -0.10612  -0.07780  -0.06510
 Alpha virt. eigenvalues --   -0.06076  -0.05932  -0.02718  -0.02279  -0.01508
 Alpha virt. eigenvalues --   -0.01092   0.00996   0.03035   0.04300   0.05314

  Beta  occ. eigenvalues --  -11.65333 -11.65246 -11.61491 -11.61488  -1.62151
  Beta  occ. eigenvalues --   -1.20568  -1.04080  -0.85847  -0.81869  -0.73424
  Beta virt. eigenvalues --   -0.26377  -0.22103  -0.20361  -0.18657  -0.11888
  Beta virt. eigenvalues --   -0.06772  -0.06280  -0.05114  -0.03194  -0.02316
  Beta virt. eigenvalues --   -0.02010  -0.01047   0.00649   0.00679   0.02273

 Mulliken charges and spin densities:
               1          2
     1  C    0.391694   0.080319
     2  C    0.108306   1.419681
     3  C    0.391694   0.080319
     4  C    0.108306   1.419681
 Sum of Mulliken charges =   1.00000   3.00000

 Dipole moment (field-independent basis, Debye):
    X=             -0.0000    Y=              0.0000    Z=             -0.0000  Tot=              0.0000
 Quadrupole moment (field-independent basis, Debye-Ang):
   XX=            -19.0012   YY=            -19.0494   ZZ=            -13.7030
   XY=              0.0000   XZ=             -0.0000   YZ=             -0.0000

 CSD=-151.2736538\CCSD(T)=-151.3023581\S2=3.863833\S2-1=3.806147\S2A=3.
 Normal termination of Gaussian 09 at Tue Oct 10 01:38:39 2017.
