 Gaussian 09, Revision E.01,
 Gaussian 09:  ES64L-G09RevE.01 30-Nov-2015

 -----------------------------------
 #p ccsd(t,maxcyc=200)/6-311++G(d,p)
 -----------------------------------

 -------------
 ccsd(t) iener
 -------------
 Symbolic Z-matrix:
 Charge =  0 Multiplicity = 1

                         Standard orientation:
 ---------------------------------------------------------------------
 Center     Atomic      Atomic             Coordinates (Angstroms)
 Number     Number       Type             X           Y           Z
 ---------------------------------------------------------------------
      1          6           0        0.000000    0.000000    1.956044
      2          6           0        0.000000    0.000000    0.646365
      3          6           0        0.000000    0.000000   -0.646365
      4          6           0        0.000000    0.000000   -1.956044
 ---------------------------------------------------------------------

 SCF Done:  E(RHF) =  -151.168247916     A.U. after   12 cycles
 E2 =    -0.4617016674D+00 EUMP2 =    -0.15162994958355D+03
 CCSD(T)
 CCSD(T)= -0.15169677124D+03

 Unable to determine electronic state:  an orbital has unidentified symmetry.
 Alpha  occ. eigenvalues --  -11.35778 -11.35778 -11.32806 -11.32596  -1.15021
 Alpha  occ. eigenvalues --   -1.04599  -0.90267  -0.54366  -0.51999  -0.50669
 Alpha  occ. eigenvalues --   -0.49708  -0.38996
 Alpha virt. eigenvalues --   -0.09294   0.04589   0.06861   0.08190   0.10024
 Alpha virt. eigenvalues --    0.10666   0.11507   0.12776   0.12788   0.12842
 Alpha virt. eigenvalues --    0.16565   0.19253   0.19302   0.22005   0.23915

 Mulliken charges:
               1
     1  C   -0.051786
     2  C    0.051786
     3  C    0.051786
     4  C   -0.051786
 Sum of Mulliken charges =   0.00000

 Dipole moment (field-independent basis, Debye):
    X=             -0.0000    Y=             -0.0000    Z=             -0.0000  Tot=              0.0000
 Quadrupole moment (field-independent basis, Debye-Ang):
   XX=            -20.8716   YY=            -24.8193   ZZ=            -32.5800
   XY=             -0.0000   XZ=              0.0000   YZ=              0.0000

 51.6646962\CCSD(T)=-151.6967712\RMSD=7.153e-09\PG=D*H [C*(C1C1.C1C1)]\
 Normal termination of Gaussian 09 at Tue Oct 10 01:20:08 2017.
