 Gaussian 09, Revision E.01,
 Gaussian 09:  ES64L-G09RevE.01 30-Nov-2015

 -----------------------------------
 #p ccsd(t,maxcyc=200)/6-311++G(d,p)
 -----------------------------------

 -------------
 ccsd(t) iener
 -------------
 Symbolic Z-matrix:
 Charge =  1 Multiplicity = 2

                         Standard orientation:
 ---------------------------------------------------------------------
 Center     Atomic      Atomic             Coordinates (Angstroms)
 Number     Number       Type             X           Y           Z
 ---------------------------------------------------------------------
      1          6           0        0.000000    0.000000    1.995751
      2          6           0        0.000000    0.000000    0.628935
      3          6           0        0.000000    0.000000   -0.628935
      4          6           0        0.000000    0.000000   -1.995751
 ---------------------------------------------------------------------

 SCF Done:  E(UHF) =  -150.828962508     A.U. after   14 cycles
 E2 =    -0.4138880334D+00 EUMP2 =    -0.15124285054104D+03
 CCSD(T)
 CCSD(T)= -0.15131996078D+03

 Unable to determine electronic state:  an orbital has unidentified symmetry.
 Alpha  occ. eigenvalues --  -11.66681 -11.66681 -11.60854 -11.60601  -1.42002
 Alpha  occ. eigenvalues --   -1.32838  -1.18709  -0.80725  -0.79245  -0.77661
 Alpha  occ. eigenvalues --   -0.75738  -0.69002
 Alpha virt. eigenvalues --   -0.34125  -0.24501  -0.17099  -0.09644  -0.05115
 Alpha virt. eigenvalues --   -0.04691  -0.04322  -0.02145  -0.01977  -0.01769
 Alpha virt. eigenvalues --    0.01275   0.03522   0.04218   0.04286   0.06427

  Beta  occ. eigenvalues --  -11.65548 -11.65548 -11.61020 -11.60738  -1.41280
  Beta  occ. eigenvalues --   -1.26892  -1.16390  -0.76716  -0.76212  -0.76095
  Beta  occ. eigenvalues --   -0.75416
  Beta virt. eigenvalues --   -0.32500  -0.29395  -0.16114  -0.13626  -0.09484
  Beta virt. eigenvalues --   -0.04525  -0.03959  -0.03783  -0.01922  -0.01770
  Beta virt. eigenvalues --   -0.01360   0.01540   0.04260   0.04619   0.06783

 Mulliken charges and spin densities:
               1          2
     1  C    0.358596   0.583535
     2  C    0.141404  -0.083535
     3  C    0.141404  -0.083535
     4  C    0.358596   0.583535
 Sum of Mulliken charges =   1.00000   1.00000

 Dipole moment (field-independent basis, Debye):
    X=              0.0000    Y=             -0.0000    Z=             -0.0000  Tot=              0.0000
 Quadrupole moment (field-independent basis, Debye-Ang):
   XX=            -20.2601   YY=            -18.4912   ZZ=            -14.0081
   XY=             -0.0000   XZ=             -0.0000   YZ=             -0.0000

 338\CCSD(T)=-151.3199608\S2=0.89969\S2-1=0.852247\S2A=0.751671\RMSD=3.
 Normal termination of Gaussian 09 at Tue Oct 10 01:33:57 2017.
