 Gaussian 09, Revision E.01,
 Gaussian 09:  ES64L-G09RevE.01 30-Nov-2015

 -----------------------------------
 #p ccsd(t,maxcyc=200)/6-311++G(d,p)
 -----------------------------------

 -------------
 ccsd(t) iener
 -------------
 Symbolic Z-matrix:
 Charge =  1 Multiplicity = 2

                         Standard orientation:
 ---------------------------------------------------------------------
 Center     Atomic      Atomic             Coordinates (Angstroms)
 Number     Number       Type             X           Y           Z
 ---------------------------------------------------------------------
      1          6           0       -0.021990    0.034612    0.807359
      2          6           0       -0.021990    1.149442   -0.000000
      3          6           0       -0.021990    0.034612   -0.807359
      4          6           0        0.065969   -1.218666    0.000000
 ---------------------------------------------------------------------

 SCF Done:  E(UHF) =  -150.803380596     A.U. after   23 cycles
 E2 =    -0.4629547239D+00 EUMP2 =    -0.15126633532011D+03
 CCSD(T)
 CCSD(T)= -0.15132173584D+03

 The electronic state is 2-A'.
 Alpha  occ. eigenvalues --  -11.71859 -11.66996 -11.66031 -11.65977  -1.62417
 Alpha  occ. eigenvalues --   -1.27929  -1.08955  -0.95270  -0.87816  -0.84040
 Alpha  occ. eigenvalues --   -0.74953  -0.70699
 Alpha virt. eigenvalues --   -0.29892  -0.21835  -0.19904  -0.08400  -0.07079
 Alpha virt. eigenvalues --   -0.06703  -0.05410  -0.03977  -0.02744  -0.02019
 Alpha virt. eigenvalues --   -0.01454  -0.00368   0.00354   0.03257   0.04170

  Beta  occ. eigenvalues --  -11.68037 -11.66855 -11.65812 -11.65759  -1.61264
  Beta  occ. eigenvalues --   -1.24048  -1.07088  -0.87150  -0.82497  -0.78244
  Beta  occ. eigenvalues --   -0.69100
  Beta virt. eigenvalues --   -0.28831  -0.26844  -0.22286  -0.17628  -0.07604
  Beta virt. eigenvalues --   -0.06868  -0.06242  -0.04635  -0.02931  -0.01895
  Beta virt. eigenvalues --   -0.01437  -0.01323  -0.00037   0.00276   0.03395

 Mulliken charges and spin densities:
               1          2
     1  C    0.169733   0.087223
     2  C    0.334352   0.849972
     3  C    0.169733   0.087223
     4  C    0.326182  -0.024417
 Sum of Mulliken charges =   1.00000   1.00000

 Dipole moment (field-independent basis, Debye):
    X=             -0.1353    Y=              2.1554    Z=             -0.0000  Tot=              2.1596
 Quadrupole moment (field-independent basis, Debye-Ang):
   XX=            -18.2411   YY=            -17.2616   ZZ=            -19.8801
   XY=              0.1195   XZ=             -0.0000   YZ=             -0.0000

 0=-151.2738768\MP4SDQ=-151.2810239\CCSD=-151.2856364\CCSD(T)=-151.3217
 Normal termination of Gaussian 09 at Tue Oct 10 01:36:19 2017.
