 Gaussian 09, Revision E.01,
 Gaussian 09:  ES64L-G09RevE.01 30-Nov-2015

 -----------------------------------
 #p ccsd(t,maxcyc=200)/6-311++G(d,p)
 -----------------------------------

 -------------
 ccsd(t) iener
 -------------
 Symbolic Z-matrix:
 Charge =  0 Multiplicity = 3

                         Standard orientation:
 ---------------------------------------------------------------------
 Center     Atomic      Atomic             Coordinates (Angstroms)
 Number     Number       Type             X           Y           Z
 ---------------------------------------------------------------------
      1          6           0       -0.000000    0.788327   -0.000006
      2          6           0        0.000000    0.000000   -1.194744
      3          6           0       -0.000000   -0.788327   -0.000006
      4          6           0       -0.000000   -0.000000    1.194756
 ---------------------------------------------------------------------

 SCF Done:  E(UHF) =  -151.096771866     A.U. after   23 cycles
 E2 =    -0.4737525811D+00 EUMP2 =    -0.15157052444725D+03
 CCSD(T)
 CCSD(T)= -0.15163531782D+03

 The electronic state is 3-B1.
 Alpha  occ. eigenvalues --  -11.43560 -11.43496 -11.31475 -11.31465  -1.34005
 Alpha  occ. eigenvalues --   -1.00833  -0.85041  -0.62156  -0.61381  -0.59389
 Alpha  occ. eigenvalues --   -0.51999  -0.43592  -0.36061
 Alpha virt. eigenvalues --    0.00600   0.03730   0.08195   0.08559   0.10013
 Alpha virt. eigenvalues --    0.10103   0.12318   0.13566   0.13991   0.14873
 Alpha virt. eigenvalues --    0.15065   0.15431   0.18198   0.18767   0.21733

  Beta  occ. eigenvalues --  -11.42075 -11.42028 -11.29421 -11.29415  -1.32020
  Beta  occ. eigenvalues --   -0.94774  -0.74743  -0.59128  -0.54264  -0.50343
  Beta  occ. eigenvalues --   -0.35981
  Beta virt. eigenvalues --   -0.09496   0.01689   0.05258   0.06407   0.08945
  Beta virt. eigenvalues --    0.10109   0.10550   0.12887   0.13486   0.14687
  Beta virt. eigenvalues --    0.15389   0.15512   0.17707   0.17801   0.18290

 Mulliken charges and spin densities:
               1          2
     1  C    0.343455   0.335083
     2  C   -0.343469   0.664863
     3  C    0.343455   0.335083
     4  C   -0.343442   0.664971
 Sum of Mulliken charges =  -0.00000   2.00000

 Dipole moment (field-independent basis, Debye):
    X=             -0.0000    Y=             -0.0000    Z=              0.0001  Tot=              0.0001
 Quadrupole moment (field-independent basis, Debye-Ang):
   XX=            -22.7037   YY=            -19.5531   ZZ=            -34.2872
   XY=              0.0000   XZ=              0.0000   YZ=             -0.0000

 5915279\CCSD=-151.5979875\CCSD(T)=-151.6353178\S2=2.10557\S2-1=2.04323
 Normal termination of Gaussian 09 at Tue Oct 10 01:33:14 2017.
