 Gaussian 09, Revision E.01,
 Gaussian 09:  ES64L-G09RevE.01 30-Nov-2015

 -----------------------------------
 #p ccsd(t,maxcyc=200)/6-311++G(d,p)
 -----------------------------------

 -------------
 ccsd(t) iener
 -------------
 Symbolic Z-matrix:
 Charge =  1 Multiplicity = 2

                         Standard orientation:
 ---------------------------------------------------------------------
 Center     Atomic      Atomic             Coordinates (Angstroms)
 Number     Number       Type             X           Y           Z
 ---------------------------------------------------------------------
      1          8           0       -2.339527    0.189798    0.000000
      2          6           0        0.000000    0.601318    0.000000
      3          6           0       -1.204786   -0.234050    0.000000
      4          6           0        1.187711    0.035324    0.000000
      5          6           0        2.379292   -0.480399    0.000000
      6          1           0       -0.160053    1.675623    0.000000
      7          1           0       -1.089140   -1.336459    0.000000
      8          1           0        2.896055   -0.695353    0.933984
      9          1           0        2.896055   -0.695353   -0.933984
 ---------------------------------------------------------------------

 SCF Done:  E(UHF) =  -228.343437445     A.U. after   36 cycles
 E2 =    -0.6706213957D+00 EUMP2 =    -0.22901405884098D+03
 CCSD(T)
 CCSD(T)= -0.22909707174D+03

 The electronic state is 2-A'.
 Alpha  occ. eigenvalues --  -20.96700 -11.62226 -11.50296 -11.48599 -11.46546
 Alpha  occ. eigenvalues --   -1.80397  -1.33159  -1.23356  -1.11755  -1.06011
 Alpha  occ. eigenvalues --   -0.97277  -0.92550  -0.91318  -0.85484  -0.81561
 Alpha  occ. eigenvalues --   -0.79791  -0.62615  -0.60896
 Alpha virt. eigenvalues --   -0.15766  -0.09211  -0.07386  -0.06331  -0.05709
 Alpha virt. eigenvalues --   -0.05164  -0.04019  -0.03065  -0.01233  -0.00949
 Alpha virt. eigenvalues --   -0.00826   0.02364   0.03035   0.03200   0.03910

  Beta  occ. eigenvalues --  -20.92213 -11.62826 -11.51000 -11.48025 -11.46074
  Beta  occ. eigenvalues --   -1.67810  -1.32865  -1.21400  -1.07835  -0.96811
  Beta  occ. eigenvalues --   -0.93962  -0.86922  -0.86413  -0.83156  -0.81767
  Beta  occ. eigenvalues --   -0.61408  -0.61327
  Beta virt. eigenvalues --   -0.19967  -0.16144  -0.09029  -0.07541  -0.06239
  Beta virt. eigenvalues --   -0.05415  -0.05097  -0.04023  -0.02806  -0.01433
  Beta virt. eigenvalues --   -0.00909  -0.00029   0.02385   0.03124   0.03420

 Mulliken charges and spin densities:
               1          2
     1  O    0.225917   1.059902
     2  C   -0.240634   0.128126
     3  C   -0.145884  -0.219081
     4  C    0.562393  -0.317879
     5  C   -0.469999   0.298718
     6  H    0.311630  -0.020016
     7  H    0.321370   0.117467
     8  H    0.217603  -0.023617
     9  H    0.217603  -0.023617
 Sum of Mulliken charges =   1.00000   1.00000

 Dipole moment (field-independent basis, Debye):
    X=              0.6507    Y=             -1.5917    Z=              0.0000  Tot=              1.7196
 Quadrupole moment (field-independent basis, Debye-Ang):
   XX=             -9.3356   YY=            -22.9262   ZZ=            -26.4286
   XY=             -1.4883   XZ=              0.0000   YZ=             -0.0000

 29.0514999\MP4SDQ=-229.0586811\CCSD=-229.0640825\CCSD(T)=-229.0970717\
 Normal termination of Gaussian 09 at Mon Oct  9 20:07:41 2017.
