 Gaussian 09, Revision E.01,
 Gaussian 09:  ES64L-G09RevE.01 30-Nov-2015

 -----------------------------------
 #p ccsd(t,maxcyc=200)/6-311++G(d,p)
 -----------------------------------

 -------------
 ccsd(t) iener
 -------------
 Symbolic Z-matrix:
 Charge =  0 Multiplicity = 1

                         Standard orientation:
 ---------------------------------------------------------------------
 Center     Atomic      Atomic             Coordinates (Angstroms)
 Number     Number       Type             X           Y           Z
 ---------------------------------------------------------------------
      1          6           0        0.000000    1.112638    0.000000
      2          6           0       -0.578345   -1.041076    0.000000
      3          8           0       -1.101436    0.425668    0.000000
      4          6           0        0.871224   -1.006527    0.000000
      5          6           0        1.176180    0.362189    0.000000
      6          1           0       -0.120447    2.191991    0.000000
      7          1           0       -1.022504   -1.484096    0.894095
      8          1           0       -1.022504   -1.484096   -0.894095
      9          1           0        2.162588    0.807513    0.000000
 ---------------------------------------------------------------------

 SCF Done:  E(RHF) =  -228.596875424     A.U. after   17 cycles
 E2 =    -0.7363786729D+00 EUMP2 =    -0.22933325409675D+03
 CCSD(T)
 CCSD(T)= -0.22940017153D+03

 The electronic state is 1-A'.
 Alpha  occ. eigenvalues --  -20.62541 -11.36006 -11.30662 -11.23462 -11.22805
 Alpha  occ. eigenvalues --   -1.45751  -1.09262  -1.01637  -0.82055  -0.77814
 Alpha  occ. eigenvalues --   -0.72026  -0.67630  -0.62467  -0.54676  -0.54301
 Alpha  occ. eigenvalues --   -0.53602  -0.38032  -0.35429
 Alpha virt. eigenvalues --    0.03598   0.05276   0.05517   0.06099   0.07112
 Alpha virt. eigenvalues --    0.10845   0.11441   0.12969   0.13201   0.15175
 Alpha virt. eigenvalues --    0.16009   0.17124   0.17265   0.18421   0.18607

 Mulliken charges:
               1
     1  C    0.297148
     2  C   -0.603286
     3  O   -0.205149
     4  C    0.326278
     5  C   -0.622597
     6  H    0.229418
     7  H    0.205310
     8  H    0.205310
     9  H    0.167568
 Sum of Mulliken charges =  -0.00000

 Dipole moment (field-independent basis, Debye):
    X=             -1.6297    Y=              2.2727    Z=              0.0000  Tot=              2.7966
 Quadrupole moment (field-independent basis, Debye-Ang):
   XX=            -33.8905   YY=            -28.1554   ZZ=            -29.7532
   XY=              6.6640   XZ=             -0.0000   YZ=              0.0000

 229.3520167\MP4SDQ=-229.3646136\CCSD=-229.3636713\CCSD(T)=-229.4001715
 Normal termination of Gaussian 09 at Mon Oct  9 16:13:21 2017.
