 Gaussian 09, Revision E.01,
 Gaussian 09:  ES64L-G09RevE.01 30-Nov-2015

 -----------------------------------
 #p ccsd(t,maxcyc=200)/6-311++G(d,p)
 -----------------------------------

 -------------
 ccsd(t) iener
 -------------
 Symbolic Z-matrix:
 Charge =  1 Multiplicity = 2

                         Standard orientation:
 ---------------------------------------------------------------------
 Center     Atomic      Atomic             Coordinates (Angstroms)
 Number     Number       Type             X           Y           Z
 ---------------------------------------------------------------------
      1          8           0        0.075167   -1.937878    0.000000
      2          6           0       -0.000000    0.647285   -0.000000
      3          6           0       -0.320555   -0.823698    0.000000
      4          6           0       -1.252525    0.242618    0.000000
      5          6           0        1.143922    1.555831   -0.000000
      6          1           0       -2.323228    0.423145    0.000000
      7          1           0        1.760342    1.380326    0.887020
      8          1           0        0.776151    2.587012   -0.000000
      9          1           0        1.760342    1.380326   -0.887020
 ---------------------------------------------------------------------

 SCF Done:  E(UHF) =  -228.348234056     A.U. after   23 cycles
 E2 =    -0.6923625573D+00 EUMP2 =    -0.22904059661291D+03
 CCSD(T)
 CCSD(T)= -0.22911616679D+03

 The electronic state is 2-A'.
 Alpha  occ. eigenvalues --  -20.92814 -11.61414 -11.57848 -11.55309 -11.45638
 Alpha  occ. eigenvalues --   -1.77095  -1.49005  -1.23771  -1.05224  -1.03235
 Alpha  occ. eigenvalues --   -0.97079  -0.92152  -0.90918  -0.85306  -0.80438
 Alpha  occ. eigenvalues --   -0.77768  -0.68880  -0.67351
 Alpha virt. eigenvalues --   -0.10554  -0.09886  -0.07193  -0.06710  -0.06049
 Alpha virt. eigenvalues --   -0.05249  -0.03715  -0.03009  -0.01441  -0.01434
 Alpha virt. eigenvalues --    0.00902   0.01619   0.01893   0.02394   0.04165

  Beta  occ. eigenvalues --  -20.89027 -11.62134 -11.57121 -11.55018 -11.45604
  Beta  occ. eigenvalues --   -1.67482  -1.45870  -1.22920  -1.01591  -0.98991
  Beta  occ. eigenvalues --   -0.91122  -0.87951  -0.83899  -0.79639  -0.78930
  Beta  occ. eigenvalues --   -0.73582  -0.67361
  Beta virt. eigenvalues --   -0.20296  -0.09953  -0.09830  -0.06987  -0.06649
  Beta virt. eigenvalues --   -0.05971  -0.05251  -0.03629  -0.02796  -0.01388
  Beta virt. eigenvalues --   -0.01377   0.00638   0.01833   0.01911   0.02487

 Mulliken charges and spin densities:
               1          2
     1  O   -0.003362   0.884655
     2  C    0.705115   0.244578
     3  C   -0.106682  -0.291332
     4  C    0.057264   0.089047
     5  C   -0.636788   0.017311
     6  H    0.308329   0.036135
     7  H    0.223637  -0.000066
     8  H    0.228849   0.019740
     9  H    0.223637  -0.000066
 Sum of Mulliken charges =   1.00000   1.00000

 Dipole moment (field-independent basis, Debye):
    X=             -1.2862    Y=              2.2687    Z=             -0.0000  Tot=              2.6079
 Quadrupole moment (field-independent basis, Debye-Ang):
   XX=            -16.6276   YY=            -20.9000   ZZ=            -26.1610
   XY=              2.8128   XZ=             -0.0000   YZ=              0.0000

 P4SDQ=-229.0777526\CCSD=-229.0825352\CCSD(T)=-229.1161668\S2=0.790824\
 Normal termination of Gaussian 09 at Mon Oct  9 18:17:37 2017.
