 Gaussian 09, Revision E.01,
 Gaussian 09:  ES64L-G09RevE.01 30-Nov-2015

 -----------------------------------
 #p ccsd(t,maxcyc=200)/6-311++G(d,p)
 -----------------------------------

 -------------
 ccsd(t) iener
 -------------
 Symbolic Z-matrix:
 Charge =  0 Multiplicity = 1

                         Standard orientation:
 ---------------------------------------------------------------------
 Center     Atomic      Atomic             Coordinates (Angstroms)
 Number     Number       Type             X           Y           Z
 ---------------------------------------------------------------------
      1          6           0       -0.245793   -1.021457    0.000000
      2          6           0       -0.245793    1.493099    0.641792
      3          8           0        0.317157   -2.090964    0.000000
      4          6           0       -0.245793    1.493099   -0.641792
      5          6           0        0.443112    0.294580   -0.000000
      6          1           0       -1.358383   -0.957154    0.000000
      7          1           0       -0.471940    1.951026   -1.588419
      8          1           0       -0.471940    1.951026    1.588419
      9          1           0        1.530612    0.226895   -0.000000
 ---------------------------------------------------------------------

 SCF Done:  E(RHF) =  -228.614140631     A.U. after   15 cycles
 E2 =    -0.7471338774D+00 EUMP2 =    -0.22936127450838D+03
 CCSD(T)
 CCSD(T)= -0.22942147471D+03

 The electronic state is 1-A'.
 Alpha  occ. eigenvalues --  -20.55154 -11.32933 -11.28128 -11.27897 -11.27181
 Alpha  occ. eigenvalues --   -1.38984  -1.19697  -0.92670  -0.79924  -0.78500
 Alpha  occ. eigenvalues --   -0.71918  -0.64550  -0.63298  -0.54259  -0.53397
 Alpha  occ. eigenvalues --   -0.44103  -0.43143  -0.38896
 Alpha virt. eigenvalues --    0.03491   0.04386   0.05945   0.06356   0.07759
 Alpha virt. eigenvalues --    0.10654   0.11776   0.12086   0.12996   0.14871
 Alpha virt. eigenvalues --    0.15710   0.15989   0.17778   0.17798   0.18494

 Mulliken charges:
               1
     1  C   -0.147118
     2  C   -0.289273
     3  O   -0.333462
     4  C   -0.289273
     5  C    0.306262
     6  H    0.110346
     7  H    0.218555
     8  H    0.218555
     9  H    0.205408
 Sum of Mulliken charges =  -0.00000

 Dipole moment (field-independent basis, Debye):
    X=             -1.3304    Y=              4.0961    Z=              0.0000  Tot=              4.3067
 Quadrupole moment (field-independent basis, Debye-Ang):
   XX=            -29.3932   YY=            -36.1931   ZZ=            -25.9693
   XY=              1.5934   XZ=             -0.0000   YZ=              0.0000

 CCSD(T)=-229.4214747\RMSD=3.354e-09\PG=CS [SG(C2H2O1),X(C2H2)]\\@
 Normal termination of Gaussian 09 at Mon Oct  9 14:20:51 2017.
