 Gaussian 09, Revision E.01,
 Gaussian 09:  ES64L-G09RevE.01 30-Nov-2015

 -----------------------------------
 #p ccsd(t,maxcyc=200)/6-311++G(d,p)
 -----------------------------------

 -------------
 ccsd(t) iener
 -------------
 Symbolic Z-matrix:
 Charge =  0 Multiplicity = 1

                         Standard orientation:
 ---------------------------------------------------------------------
 Center     Atomic      Atomic             Coordinates (Angstroms)
 Number     Number       Type             X           Y           Z
 ---------------------------------------------------------------------
      1          8           0        0.078543    1.812477    0.000000
      2          6           0        1.050972   -0.546401    0.000000
      3          6           0       -0.000000    0.616386    0.000000
      4          6           0       -0.204807   -1.413506   -0.000000
      5          6           0       -1.093966   -0.400924   -0.000000
      6          1           0        1.679786   -0.599509    0.893060
      7          1           0        1.679786   -0.599509   -0.893060
      8          1           0       -0.326045   -2.489432   -0.000000
      9          1           0       -2.175070   -0.344696   -0.000000
 ---------------------------------------------------------------------

 SCF Done:  E(RHF) =  -228.661706345     A.U. after   15 cycles
 E2 =    -0.7439383832D+00 EUMP2 =    -0.22940564472824D+03
 CCSD(T)
 CCSD(T)= -0.22946716638D+03

 The electronic state is 1-A'.
 Alpha  occ. eigenvalues --  -20.55450 -11.34530 -11.28442 -11.25898 -11.25748
 Alpha  occ. eigenvalues --   -1.39792  -1.17656  -0.93400  -0.84623  -0.72690
 Alpha  occ. eigenvalues --   -0.68723  -0.63193  -0.62919  -0.56788  -0.52747
 Alpha  occ. eigenvalues --   -0.52059  -0.40944  -0.39387
 Alpha virt. eigenvalues --    0.03456   0.05084   0.05711   0.06144   0.08048
 Alpha virt. eigenvalues --    0.10795   0.12777   0.13074   0.13300   0.15702
 Alpha virt. eigenvalues --    0.15851   0.16233   0.16750   0.17853   0.18129

 Mulliken charges:
               1
     1  O   -0.372489
     2  C   -0.242837
     3  C   -0.109118
     4  C   -0.140572
     5  C    0.147952
     6  H    0.147508
     7  H    0.147508
     8  H    0.211258
     9  H    0.210790
 Sum of Mulliken charges =  -0.00000

 Dipole moment (field-independent basis, Debye):
    X=             -0.0914    Y=             -4.1132    Z=             -0.0000  Tot=              4.1142
 Quadrupole moment (field-independent basis, Debye-Ang):
   XX=            -26.5431   YY=            -34.0967   ZZ=            -29.6142
   XY=             -0.5676   XZ=             -0.0000   YZ=              0.0000

 SDQ=-229.4345238\CCSD=-229.4324935\CCSD(T)=-229.4671664\RMSD=8.028e-09
 Normal termination of Gaussian 09 at Mon Oct  9 13:39:49 2017.
