 Gaussian 09, Revision E.01,
 Gaussian 09:  ES64L-G09RevE.01 30-Nov-2015

 -----------------------------------
 #p ccsd(t,maxcyc=200)/6-311++G(d,p)
 -----------------------------------

 -------------
 ccsd(t) iener
 -------------
 Symbolic Z-matrix:
 Charge =  0 Multiplicity = 1

                         Standard orientation:
 ---------------------------------------------------------------------
 Center     Atomic      Atomic             Coordinates (Angstroms)
 Number     Number       Type             X           Y           Z
 ---------------------------------------------------------------------
      1          8           0        1.310927    0.847478    0.000000
      2          6           0        0.000000    0.446139    0.000000
      3          6           0       -1.053402    1.274842    0.000000
      4          6           0       -0.129863   -0.977075    0.000000
      5          6           0       -0.235978   -2.175345    0.000000
      6          1           0       -0.927465    2.351719    0.000000
      7          1           0       -2.058181    0.879621    0.000000
      8          1           0        1.345549    1.811110    0.000000
      9          1           0       -0.331860   -3.233639    0.000000
 ---------------------------------------------------------------------

 SCF Done:  E(RHF) =  -228.627991316     A.U. after   17 cycles
 E2 =    -0.7453826220D+00 EUMP2 =    -0.22937337393771D+03
 CCSD(T)
 CCSD(T)= -0.22943332592D+03

 The electronic state is 1-A'.
 Alpha  occ. eigenvalues --  -20.60059 -11.33614 -11.24857 -11.24365 -11.23740
 Alpha  occ. eigenvalues --   -1.41688  -1.08462  -1.01292  -0.87408  -0.74275
 Alpha  occ. eigenvalues --   -0.70173  -0.68901  -0.59745  -0.58701  -0.55810
 Alpha  occ. eigenvalues --   -0.44108  -0.41178  -0.34095
 Alpha virt. eigenvalues --    0.03719   0.04517   0.06265   0.07389   0.08360
 Alpha virt. eigenvalues --    0.11295   0.12331   0.13156   0.14353   0.14661
 Alpha virt. eigenvalues --    0.15639   0.17091   0.17219   0.18164   0.19707

 Mulliken charges:
               1
     1  O   -0.274427
     2  C    1.155549
     3  C   -0.523570
     4  C    1.554399
     5  C   -2.690560
     6  H    0.126599
     7  H    0.180294
     8  H    0.299048
     9  H    0.172669
 Sum of Mulliken charges =  -0.00000

 Dipole moment (field-independent basis, Debye):
    X=             -0.8579    Y=              1.0850    Z=              0.0000  Tot=              1.3832
 Quadrupole moment (field-independent basis, Debye-Ang):
   XX=            -31.2187   YY=            -18.2123   ZZ=            -32.9179
   XY=              2.2455   XZ=              0.0000   YZ=              0.0000

 4SDQ=-229.3999294\CCSD=-229.3991046\CCSD(T)=-229.4333259\RMSD=9.173e-0
 Normal termination of Gaussian 09 at Mon Oct  9 17:26:54 2017.
