 Gaussian 09, Revision E.01,
 Gaussian 09:  ES64L-G09RevE.01 30-Nov-2015

 -----------------------------------
 #p ccsd(t,maxcyc=200)/6-311++G(d,p)
 -----------------------------------

 -------------
 ccsd(t) iener
 -------------
 Symbolic Z-matrix:
 Charge =  0 Multiplicity = 1

                         Standard orientation:
 ---------------------------------------------------------------------
 Center     Atomic      Atomic             Coordinates (Angstroms)
 Number     Number       Type             X           Y           Z
 ---------------------------------------------------------------------
      1          6           0       -1.271931    0.376491    0.000650
      2          6           0        1.139863    0.240006   -0.000779
      3          8           0       -1.485375   -0.953971   -0.000116
      4          6           0        2.150319   -0.422028   -0.001422
      5          6           0       -0.068416    0.980199    0.000005
      6          1           0       -2.199565    0.934325    0.001521
      7          1           0       -0.632033   -1.413652   -0.001612
      8          1           0        3.042411   -0.999197    0.009730
      9          1           0       -0.026821    2.062286    0.000563
 ---------------------------------------------------------------------

 SCF Done:  E(RHF) =  -228.637101043     A.U. after   16 cycles
 E2 =    -0.7445965963D+00 EUMP2 =    -0.22938169763894D+03
 CCSD(T)
 CCSD(T)= -0.22944107781D+03

 The electronic state is 1-A.
 Alpha  occ. eigenvalues --  -20.60682 -11.32676 -11.25096 -11.24999 -11.23773
 Alpha  occ. eigenvalues --   -1.42599  -1.09098  -1.00908  -0.86974  -0.75327
 Alpha  occ. eigenvalues --   -0.70735  -0.69574  -0.59682  -0.59666  -0.56612
 Alpha  occ. eigenvalues --   -0.45859  -0.40697  -0.33046
 Alpha virt. eigenvalues --    0.03884   0.04583   0.06460   0.07034   0.09447
 Alpha virt. eigenvalues --    0.11537   0.12587   0.13304   0.13622   0.13838
 Alpha virt. eigenvalues --    0.16110   0.17083   0.17235   0.18234   0.19209

 Mulliken charges:
               1
     1  C   -0.343283
     2  C    1.582785
     3  O   -0.268914
     4  C   -2.104574
     5  C    0.304996
     6  H    0.196642
     7  H    0.267772
     8  H    0.162380
     9  H    0.202195
 Sum of Mulliken charges =  -0.00000

 Dipole moment (field-independent basis, Debye):
    X=              0.3482    Y=              0.2044    Z=              0.0138  Tot=              0.4040
 Quadrupole moment (field-independent basis, Debye-Ang):
   XX=            -27.5795   YY=            -26.6905   ZZ=            -32.9680
   XY=             -5.9474   XZ=              0.0445   YZ=             -0.0090

 229.4074123\CCSD=-229.4066801\CCSD(T)=-229.4410778\RMSD=9.552e-09\PG=C
 Normal termination of Gaussian 09 at Mon Oct  9 15:42:04 2017.
