 Gaussian 09, Revision E.01,
 Gaussian 09:  ES64L-G09RevE.01 30-Nov-2015

 -----------------------------------
 #p ccsd(t,maxcyc=200)/6-311++G(d,p)
 -----------------------------------

 -------------
 ccsd(t) iener
 -------------
 Symbolic Z-matrix:
 Charge =  0 Multiplicity = 1

                         Standard orientation:
 ---------------------------------------------------------------------
 Center     Atomic      Atomic             Coordinates (Angstroms)
 Number     Number       Type             X           Y           Z
 ---------------------------------------------------------------------
      1          6           0       -1.489896    0.745174   -0.000000
      2          6           0        0.000000    0.494932   -0.000000
      3          8           0        0.825448    1.383720   -0.000000
      4          6           0        0.407465   -0.905182    0.000000
      5          6           0        0.736666   -2.063144    0.000000
      6          1           0       -1.680755    1.817688   -0.000000
      7          1           0       -1.946029    0.281699    0.879953
      8          1           0       -1.946029    0.281699   -0.879953
      9          1           0        1.043816   -3.081519    0.000000
 ---------------------------------------------------------------------

 SCF Done:  E(RHF) =  -228.649271052     A.U. after   17 cycles
 E2 =    -0.7444407555D+00 EUMP2 =    -0.22939371180697D+03
 CCSD(T)
 CCSD(T)= -0.22945351899D+03

 The electronic state is 1-A'.
 Alpha  occ. eigenvalues --  -20.56900 -11.37006 -11.26757 -11.25852 -11.25005
 Alpha  occ. eigenvalues --   -1.41010  -1.07743  -1.01991  -0.86765  -0.73911
 Alpha  occ. eigenvalues --   -0.69146  -0.64354  -0.61811  -0.57510  -0.52408
 Alpha  occ. eigenvalues --   -0.45200  -0.42526  -0.42212
 Alpha virt. eigenvalues --    0.03461   0.04623   0.06348   0.07440   0.07950
 Alpha virt. eigenvalues --    0.09980   0.10783   0.12415   0.13728   0.14498
 Alpha virt. eigenvalues --    0.15211   0.15412   0.16826   0.17219   0.18791

 Mulliken charges:
               1
     1  C   -0.580625
     2  C    0.560036
     3  O   -0.300742
     4  C    1.960177
     5  C   -2.316202
     6  H    0.184138
     7  H    0.154789
     8  H    0.154789
     9  H    0.183641
 Sum of Mulliken charges =  -0.00000

 Dipole moment (field-independent basis, Debye):
    X=             -2.4024    Y=             -2.5850    Z=             -0.0000  Tot=              3.5290
 Quadrupole moment (field-independent basis, Debye-Ang):
   XX=            -29.9257   YY=            -26.6814   ZZ=            -29.7238
   XY=             -5.7812   XZ=              0.0000   YZ=              0.0000

 .4212591\CCSD=-229.4191777\CCSD(T)=-229.453519\RMSD=2.780e-09\PG=CS [S
 Normal termination of Gaussian 09 at Mon Oct  9 17:42:32 2017.
