 Gaussian 09, Revision E.01,
 Gaussian 09:  ES64L-G09RevE.01 30-Nov-2015

 -----------------------------------
 #p ccsd(t,maxcyc=200)/6-311++G(d,p)
 -----------------------------------

 -------------
 ccsd(t) iener
 -------------
 Symbolic Z-matrix:
 Charge =  1 Multiplicity = 2

                         Standard orientation:
 ---------------------------------------------------------------------
 Center     Atomic      Atomic             Coordinates (Angstroms)
 Number     Number       Type             X           Y           Z
 ---------------------------------------------------------------------
      1          6           0       -1.275812    1.204551    0.000000
      2          6           0        0.000000    0.442066    0.000000
      3          8           0        1.105779    1.000011   -0.000000
      4          6           0        0.145411   -0.966122   -0.000000
      5          6           0        0.366951   -2.157240   -0.000000
      6          1           0       -1.097554    2.279167    0.000000
      7          1           0       -1.843437    0.899825    0.888077
      8          1           0       -1.843437    0.899825   -0.888077
      9          1           0        0.518901   -3.218434   -0.000000
 ---------------------------------------------------------------------

 SCF Done:  E(UHF) =  -228.329811190     A.U. after   38 cycles
 E2 =    -0.6799051840D+00 EUMP2 =    -0.22900971637423D+03
 CCSD(T)
 CCSD(T)= -0.22908772252D+03

 The electronic state is 2-A'.
 Alpha  occ. eigenvalues --  -20.97456 -11.65373 -11.50380 -11.47949 -11.47672
 Alpha  occ. eigenvalues --   -1.80647  -1.32552  -1.25841  -1.14307  -1.04249
 Alpha  occ. eigenvalues --   -0.97734  -0.94027  -0.93175  -0.81965  -0.79880
 Alpha  occ. eigenvalues --   -0.79732  -0.65068  -0.64454
 Alpha virt. eigenvalues --   -0.17785  -0.09193  -0.06732  -0.05803  -0.05462
 Alpha virt. eigenvalues --   -0.04846  -0.04166  -0.02210  -0.01122  -0.00347
 Alpha virt. eigenvalues --    0.00311   0.00801   0.01736   0.04026   0.04447

  Beta  occ. eigenvalues --  -20.92720 -11.65862 -11.51078 -11.47436 -11.47030
  Beta  occ. eigenvalues --   -1.67584  -1.29873  -1.25027  -1.10901  -0.97767
  Beta  occ. eigenvalues --   -0.93175  -0.88270  -0.86971  -0.79290  -0.77941
  Beta  occ. eigenvalues --   -0.64688  -0.64208
  Beta virt. eigenvalues --   -0.19700  -0.17906  -0.09063  -0.06632  -0.05501
  Beta virt. eigenvalues --   -0.04967  -0.04516  -0.04053  -0.01817  -0.01066
  Beta virt. eigenvalues --   -0.00170   0.00201   0.01243   0.01398   0.04021

 Mulliken charges and spin densities:
               1          2
     1  C   -0.641661   0.043217
     2  C    0.309070  -0.256942
     3  O    0.226529   1.079969
     4  C    1.797654   0.390348
     5  C   -1.697825  -0.267398
     6  H    0.251341  -0.005417
     7  H    0.242396  -0.002605
     8  H    0.242396  -0.002605
     9  H    0.270100   0.021433
 Sum of Mulliken charges =   1.00000   1.00000

 Dipole moment (field-independent basis, Debye):
    X=             -1.4894    Y=             -0.7822    Z=             -0.0000  Tot=              1.6823
 Quadrupole moment (field-independent basis, Debye-Ang):
   XX=            -23.1508   YY=             -8.2918   ZZ=            -26.6709
   XY=             -5.5928   XZ=              0.0000   YZ=             -0.0000

 \CCSD=-229.0542827\CCSD(T)=-229.0877225\S2=0.830661\S2-1=0.807742\S2A=
 Normal termination of Gaussian 09 at Mon Oct  9 23:09:10 2017.
