 Gaussian 09, Revision E.01,
 Gaussian 09:  ES64L-G09RevE.01 30-Nov-2015

 -----------------------------------
 #p ccsd(t,maxcyc=200)/6-311++G(d,p)
 -----------------------------------

 -------------
 ccsd(t) iener
 -------------
 Symbolic Z-matrix:
 Charge =  0 Multiplicity = 1

                         Standard orientation:
 ---------------------------------------------------------------------
 Center     Atomic      Atomic             Coordinates (Angstroms)
 Number     Number       Type             X           Y           Z
 ---------------------------------------------------------------------
      1          6           0       -2.091475   -0.639357    0.000000
      2          6           0        1.388448    0.395769    0.000000
      3          8           0        1.699903   -0.772249    0.000000
      4          6           0        0.000000    0.922559    0.000000
      5          6           0       -1.059813    0.146720    0.000000
      6          1           0       -2.535640   -0.983567    0.929014
      7          1           0        2.165598    1.187393    0.000000
      8          1           0       -0.116505    2.003589    0.000000
      9          1           0       -2.535640   -0.983567   -0.929014
 ---------------------------------------------------------------------

 SCF Done:  E(RHF) =  -228.647688378     A.U. after   16 cycles
 E2 =    -0.7373614157D+00 EUMP2 =    -0.22938504979370D+03
 CCSD(T)
 CCSD(T)= -0.22945006225D+03

 The electronic state is 1-A'.
 Alpha  occ. eigenvalues --  -20.55680 -11.34354 -11.29430 -11.26293 -11.25931
 Alpha  occ. eigenvalues --   -1.39534  -1.10881  -1.00787  -0.85271  -0.71789
 Alpha  occ. eigenvalues --   -0.68929  -0.65826  -0.63177  -0.61058  -0.54244
 Alpha  occ. eigenvalues --   -0.44225  -0.40062  -0.39270
 Alpha virt. eigenvalues --    0.03751   0.04979   0.05840   0.06511   0.07079
 Alpha virt. eigenvalues --    0.09821   0.11004   0.12733   0.13108   0.14103
 Alpha virt. eigenvalues --    0.14915   0.16513   0.16735   0.18450   0.19562

 Mulliken charges:
               1
     1  C   -0.669148
     2  C   -0.073445
     3  O   -0.345132
     4  C   -0.044783
     5  C    0.502732
     6  H    0.147503
     7  H    0.137346
     8  H    0.197423
     9  H    0.147503
 Sum of Mulliken charges =   0.00000

 Dipole moment (field-independent basis, Debye):
    X=             -2.2603    Y=              2.2950    Z=              0.0000  Tot=              3.2212
 Quadrupole moment (field-independent basis, Debye-Ang):
   XX=            -28.4477   YY=            -29.3232   ZZ=            -29.2569
   XY=              7.5289   XZ=             -0.0000   YZ=             -0.0000

 -229.406084\MP4SDQ=-229.41702\CCSD=-229.4155049\CCSD(T)=-229.4500622\R
 Normal termination of Gaussian 09 at Mon Oct  9 15:04:33 2017.
