 Gaussian 09, Revision E.01,
 Gaussian 09:  ES64L-G09RevE.01 30-Nov-2015

 -----------------------------------
 #p ccsd(t,maxcyc=200)/6-311++G(d,p)
 -----------------------------------

 -------------
 ccsd(t) iener
 -------------
 Symbolic Z-matrix:
 Charge =  0 Multiplicity = 1

                         Standard orientation:
 ---------------------------------------------------------------------
 Center     Atomic      Atomic             Coordinates (Angstroms)
 Number     Number       Type             X           Y           Z
 ---------------------------------------------------------------------
      1          8           0        0.324901   -1.978384    0.000000
      2          6           0       -0.000000    0.562997   -0.000000
      3          6           0       -0.139204   -0.864909    0.000000
      4          6           0       -1.242404    0.039296    0.000000
      5          6           0        0.812050    1.799515   -0.000000
      6          1           0       -2.298735    0.280794    0.000000
      7          1           0        1.464056    1.814315    0.878042
      8          1           0        0.188762    2.696252   -0.000000
      9          1           0        1.464056    1.814315   -0.878042
 ---------------------------------------------------------------------

 SCF Done:  E(RHF) =  -228.639489639     A.U. after   15 cycles
 E2 =    -0.7419383539D+00 EUMP2 =    -0.22938142799283D+03
 CCSD(T)
 CCSD(T)= -0.22943969847D+03

 The electronic state is 1-A'.
 Alpha  occ. eigenvalues --  -20.52260 -11.34977 -11.29861 -11.28626 -11.26683
 Alpha  occ. eigenvalues --   -1.37108  -1.21408  -1.02275  -0.80022  -0.72533
 Alpha  occ. eigenvalues --   -0.66065  -0.62172  -0.61764  -0.58588  -0.55701
 Alpha  occ. eigenvalues --   -0.52201  -0.40299  -0.38208
 Alpha virt. eigenvalues --    0.02944   0.04628   0.06637   0.06684   0.09437
 Alpha virt. eigenvalues --    0.09956   0.10871   0.13359   0.13367   0.14067
 Alpha virt. eigenvalues --    0.15648   0.15882   0.16794   0.17714   0.17734

 Mulliken charges:
               1
     1  O   -0.515595
     2  C    0.537696
     3  C    0.055829
     4  C   -0.014936
     5  C   -0.774618
     6  H    0.209315
     7  H    0.168027
     8  H    0.166254
     9  H    0.168027
 Sum of Mulliken charges =   0.00000

 Dipole moment (field-independent basis, Debye):
    X=             -1.3447    Y=              5.2929    Z=             -0.0000  Tot=              5.4610
 Quadrupole moment (field-independent basis, Debye-Ang):
   XX=            -25.5227   YY=            -36.3727   ZZ=            -29.0228
   XY=              2.8363   XZ=             -0.0000   YZ=             -0.0000

 P4SDQ=-229.4075866\CCSD=-229.4052721\CCSD(T)=-229.4396985\RMSD=2.952e-
 Normal termination of Gaussian 09 at Mon Oct  9 13:47:17 2017.
