 Gaussian 09, Revision E.01,
 Gaussian 09:  ES64L-G09RevE.01 30-Nov-2015

 -----------------------------------
 #p ccsd(t,maxcyc=200)/6-311++G(d,p)
 -----------------------------------

 -------------
 ccsd(t) iener
 -------------
 Symbolic Z-matrix:
 Charge =  0 Multiplicity = 1

                         Standard orientation:
 ---------------------------------------------------------------------
 Center     Atomic      Atomic             Coordinates (Angstroms)
 Number     Number       Type             X           Y           Z
 ---------------------------------------------------------------------
      1          6           0        0.448964    1.248350    0.640672
      2          6           0       -0.579871   -1.056097    0.000000
      3          8           0        0.448964   -1.692167    0.000000
      4          6           0       -0.664892    0.434080    0.000000
      5          6           0        0.448964    1.248350   -0.640672
      6          1           0        0.867562    1.520635    1.592794
      7          1           0       -1.683133    0.824989    0.000000
      8          1           0       -1.562694   -1.577015    0.000000
      9          1           0        0.867562    1.520635   -1.592794
 ---------------------------------------------------------------------

 SCF Done:  E(RHF) =  -228.611514125     A.U. after   15 cycles
 E2 =    -0.7478420207D+00 EUMP2 =    -0.22935935614549D+03
 CCSD(T)
 CCSD(T)= -0.22941947057D+03

 The electronic state is 1-A'.
 Alpha  occ. eigenvalues --  -20.55048 -11.32924 -11.27317 -11.27081 -11.26722
 Alpha  occ. eigenvalues --   -1.38913  -1.18742  -0.93171  -0.79138  -0.76761
 Alpha  occ. eigenvalues --   -0.69801  -0.68363  -0.61731  -0.54047  -0.52922
 Alpha  occ. eigenvalues --   -0.43446  -0.42580  -0.38379
 Alpha virt. eigenvalues --    0.03782   0.04868   0.05195   0.06701   0.09730
 Alpha virt. eigenvalues --    0.10164   0.10862   0.12706   0.13444   0.13852
 Alpha virt. eigenvalues --    0.15733   0.16148   0.17446   0.18165   0.18460

 Mulliken charges:
               1
     1  C   -0.226928
     2  C   -0.090357
     3  O   -0.368777
     4  C    0.176594
     5  C   -0.226928
     6  H    0.230105
     7  H    0.162904
     8  H    0.113282
     9  H    0.230105
 Sum of Mulliken charges =  -0.00000

 Dipole moment (field-independent basis, Debye):
    X=             -1.6409    Y=              2.7503    Z=              0.0000  Tot=              3.2026
 Quadrupole moment (field-independent basis, Debye-Ang):
   XX=            -28.5725   YY=            -33.5086   ZZ=            -25.8826
   XY=              4.8584   XZ=              0.0000   YZ=             -0.0000

 Normal termination of Gaussian 09 at Mon Oct  9 13:51:29 2017.
