 Gaussian 09, Revision E.01,
 Gaussian 09:  ES64L-G09RevE.01 30-Nov-2015

 -----------------------------------
 #p ccsd(t,maxcyc=200)/6-311++G(d,p)
 -----------------------------------

 -------------
 ccsd(t) iener
 -------------
 Symbolic Z-matrix:
 Charge =  0 Multiplicity = 1

                         Standard orientation:
 ---------------------------------------------------------------------
 Center     Atomic      Atomic             Coordinates (Angstroms)
 Number     Number       Type             X           Y           Z
 ---------------------------------------------------------------------
      1          6           0        0.967479   -0.393954    0.000281
      2          6           0       -2.564255   -0.178350   -0.000931
      3          8           0        2.291742   -0.112272   -0.000349
      4          6           0       -1.399367    0.135351    0.000819
      5          6           0       -0.031454    0.504041    0.000277
      6          1           0        0.790660   -1.462189    0.000846
      7          1           0        2.431114    0.842853   -0.000997
      8          1           0       -3.590347   -0.452855    0.000242
      9          1           0        0.200218    1.567843    0.000024
 ---------------------------------------------------------------------

 SCF Done:  E(RHF) =  -228.632871195     A.U. after   16 cycles
 E2 =    -0.7433257896D+00 EUMP2 =    -0.22937619698466D+03
 CCSD(T)
 CCSD(T)= -0.22943613288D+03

 The electronic state is 1-A.
 Alpha  occ. eigenvalues --  -20.61235 -11.32732 -11.25338 -11.24186 -11.22623
 Alpha  occ. eigenvalues --   -1.42839  -1.09057  -1.00051  -0.86916  -0.75691
 Alpha  occ. eigenvalues --   -0.70566  -0.69033  -0.59978  -0.59666  -0.56837
 Alpha  occ. eigenvalues --   -0.45664  -0.39540  -0.32704
 Alpha virt. eigenvalues --    0.03689   0.04705   0.06091   0.07233   0.09770
 Alpha virt. eigenvalues --    0.11769   0.12048   0.13648   0.13717   0.14131
 Alpha virt. eigenvalues --    0.15035   0.18031   0.18348   0.18992   0.19762

 Mulliken charges:
               1
     1  C   -0.334195
     2  C   -0.386493
     3  O   -0.240917
     4  C    0.556867
     5  C   -0.420032
     6  H    0.184678
     7  H    0.269213
     8  H    0.200166
     9  H    0.170714
 Sum of Mulliken charges =  -0.00000

 Dipole moment (field-independent basis, Debye):
    X=              0.4740    Y=              0.9492    Z=              0.0009  Tot=              1.0610
 Quadrupole moment (field-independent basis, Debye-Ang):
   XX=            -27.4861   YY=            -26.4338   ZZ=            -32.8808
   XY=              5.2392   XZ=             -0.0060   YZ=             -0.0037

 26518\CCSD=-229.401975\CCSD(T)=-229.4361329\RMSD=4.355e-09\PG=C01 [X(C
 Normal termination of Gaussian 09 at Mon Oct  9 15:00:14 2017.
