 Gaussian 09, Revision E.01,
 Gaussian 09:  ES64L-G09RevE.01 30-Nov-2015

 -----------------------------------
 #p ccsd(t,maxcyc=200)/6-311++G(d,p)
 -----------------------------------

 -------------
 ccsd(t) iener
 -------------
 Symbolic Z-matrix:
 Charge =  1 Multiplicity = 2

                         Standard orientation:
 ---------------------------------------------------------------------
 Center     Atomic      Atomic             Coordinates (Angstroms)
 Number     Number       Type             X           Y           Z
 ---------------------------------------------------------------------
      1          8           0        2.291765    0.000135    0.000163
      2          6           0       -1.457803   -0.750111    0.000207
      3          6           0       -1.456175    0.751142    0.000195
      4          6           0       -0.174943   -0.001086   -0.000687
      5          6           0        1.154419   -0.000634   -0.000124
      6          1           0       -1.683906   -1.285884   -0.919514
      7          1           0       -1.682594   -1.286161    0.920075
      8          1           0       -1.679545    1.287690    0.920113
      9          1           0       -1.681061    1.287407   -0.919520
 ---------------------------------------------------------------------

 SCF Done:  E(UHF) =  -228.357775556     A.U. after   22 cycles
 E2 =    -0.7083504810D+00 EUMP2 =    -0.22906612603676D+03
 CCSD(T)
 CCSD(T)= -0.22912991423D+03

 The electronic state is 2-A.
 Alpha  occ. eigenvalues --  -20.93634 -11.65999 -11.55856 -11.49243 -11.49173
 Alpha  occ. eigenvalues --   -1.78486  -1.43628  -1.25693  -1.07205  -1.02356
 Alpha  occ. eigenvalues --   -0.95701  -0.92925  -0.90862  -0.89791  -0.75777
 Alpha  occ. eigenvalues --   -0.71620  -0.71436  -0.66079
 Alpha virt. eigenvalues --   -0.13146  -0.09663  -0.08140  -0.06828  -0.06671
 Alpha virt. eigenvalues --   -0.03980  -0.02636  -0.02539  -0.02383  -0.01579
 Alpha virt. eigenvalues --   -0.01445   0.01781   0.02301   0.04049   0.04303

  Beta  occ. eigenvalues --  -20.91542 -11.66696 -11.53966 -11.49439 -11.49369
  Beta  occ. eigenvalues --   -1.74415  -1.40374  -1.21997  -1.07185  -0.99518
  Beta  occ. eigenvalues --   -0.91977  -0.88355  -0.88086  -0.83396  -0.74893
  Beta  occ. eigenvalues --   -0.71592  -0.69049
  Beta virt. eigenvalues --   -0.21911  -0.13128  -0.09549  -0.06949  -0.06760
  Beta virt. eigenvalues --   -0.06623  -0.02635  -0.02464  -0.02301  -0.01630
  Beta virt. eigenvalues --   -0.01263   0.01939   0.02329   0.02628   0.04057

 Mulliken charges and spin densities:
               1          2
     1  O   -0.019353   0.460918
     2  C   -0.149392  -0.132850
     3  C   -0.150060  -0.133021
     4  C    0.970899   0.917073
     5  C   -0.637913  -0.207425
     6  H    0.246494   0.023842
     7  H    0.246398   0.023791
     8  H    0.246418   0.023813
     9  H    0.246509   0.023859
 Sum of Mulliken charges =   1.00000   1.00000

 Dipole moment (field-independent basis, Debye):
    X=             -1.9213    Y=             -0.0007    Z=             -0.0001  Tot=              1.9213
 Quadrupole moment (field-independent basis, Debye-Ang):
   XX=            -18.5402   YY=            -22.7734   ZZ=            -23.9315
   XY=              0.0007   XZ=              0.0011   YZ=              0.0001

 D=-229.0971858\CCSD(T)=-229.1299142\S2=0.8072\S2-1=0.780647\S2A=0.7518
 Normal termination of Gaussian 09 at Mon Oct  9 22:23:24 2017.
