 Gaussian 09, Revision E.01,
 Gaussian 09:  ES64L-G09RevE.01 30-Nov-2015

 -----------------------------------
 #p ccsd(t,maxcyc=200)/6-311++G(d,p)
 -----------------------------------

 -------------
 ccsd(t) iener
 -------------
 Symbolic Z-matrix:
 Charge =  1 Multiplicity = 2

                         Standard orientation:
 ---------------------------------------------------------------------
 Center     Atomic      Atomic             Coordinates (Angstroms)
 Number     Number       Type             X           Y           Z
 ---------------------------------------------------------------------
      1          6           0        1.174058    0.078354   -0.066689
      2          6           0       -2.011066   -0.576054   -0.309286
      3          8           0        2.042822   -0.616141    0.045316
      4          6           0       -1.188595    0.104259    0.437599
      5          6           0       -0.005199    0.888382   -0.177349
      6          1           0        0.192754    1.838653    0.336802
      7          1           0       -2.918857   -1.158303   -0.279774
      8          1           0       -1.283962    0.183660    1.521196
      9          1           0       -0.147702    1.095473   -1.246403
 ---------------------------------------------------------------------

 SCF Done:  E(UHF) =  -228.355431920     A.U. after   26 cycles
 E2 =    -0.6919040767D+00 EUMP2 =    -0.22904733599633D+03
 CCSD(T)
 CCSD(T)= -0.22911782110D+03

 The electronic state is 2-A.
 Alpha  occ. eigenvalues --  -20.95105 -11.69203 -11.53493 -11.45819 -11.45109
 Alpha  occ. eigenvalues --   -1.80395  -1.35710  -1.23614  -1.05312  -0.98959
 Alpha  occ. eigenvalues --   -0.94452  -0.93824  -0.90525  -0.86780  -0.80127
 Alpha  occ. eigenvalues --   -0.79100  -0.60779  -0.59758
 Alpha virt. eigenvalues --   -0.13309  -0.12323  -0.10392  -0.07279  -0.06429
 Alpha virt. eigenvalues --   -0.05623  -0.04521  -0.03391  -0.01938  -0.01528
 Alpha virt. eigenvalues --   -0.00359   0.00399   0.00956   0.02775   0.03117

  Beta  occ. eigenvalues --  -20.95085 -11.69305 -11.53163 -11.46462 -11.42320
  Beta  occ. eigenvalues --   -1.80374  -1.35621  -1.19768  -1.04976  -0.95656
  Beta  occ. eigenvalues --   -0.94689  -0.93330  -0.89577  -0.85668  -0.78567
  Beta  occ. eigenvalues --   -0.77304  -0.60309
  Beta virt. eigenvalues --   -0.13132  -0.12576  -0.11298  -0.07780  -0.06957
  Beta virt. eigenvalues --   -0.06055  -0.05209  -0.03462  -0.03375  -0.01936
  Beta virt. eigenvalues --   -0.00279  -0.00024   0.00557   0.01374   0.03306

 Mulliken charges and spin densities:
               1          2
     1  C    0.466161  -0.005974
     2  C   -0.355227   1.628008
     3  O   -0.080628   0.004821
     4  C    0.167135  -0.779747
     5  C   -0.277800   0.108847
     6  H    0.281598  -0.011340
     7  H    0.238379  -0.044200
     8  H    0.271249   0.103719
     9  H    0.289131  -0.004134
 Sum of Mulliken charges =   1.00000   1.00000

 Dipole moment (field-independent basis, Debye):
    X=              0.4376    Y=              1.8679    Z=             -0.2301  Tot=              1.9322
 Quadrupole moment (field-independent basis, Debye-Ang):
   XX=            -17.0955   YY=            -23.1098   ZZ=            -24.2645
   XY=              4.0827   XZ=             -0.5930   YZ=              0.0206

 52\CCSD=-229.0857541\CCSD(T)=-229.1178211\S2=0.930421\S2-1=0.888516\S2
 Normal termination of Gaussian 09 at Mon Oct  9 19:15:22 2017.
