 Gaussian 09, Revision E.01,
 Gaussian 09:  ES64L-G09RevE.01 30-Nov-2015

 -----------------------------------
 #p ccsd(t,maxcyc=200)/6-311++G(d,p)
 -----------------------------------

 -------------
 ccsd(t) iener
 -------------
 Symbolic Z-matrix:
 Charge =  0 Multiplicity = 1

                         Standard orientation:
 ---------------------------------------------------------------------
 Center     Atomic      Atomic             Coordinates (Angstroms)
 Number     Number       Type             X           Y           Z
 ---------------------------------------------------------------------
      1          8           0        0.000000    0.563306   -0.000000
      2          6           0       -0.967198   -0.444139    0.000000
      3          6           0       -2.252455   -0.131692    0.000000
      4          6           0        1.250949    0.204091   -0.000000
      5          6           0        2.416725   -0.079792   -0.000000
      6          1           0       -0.559020   -1.447493    0.000000
      7          1           0       -2.989777   -0.922037    0.000000
      8          1           0       -2.588182    0.897282    0.000000
      9          1           0        3.448851   -0.325003   -0.000000
 ---------------------------------------------------------------------

 SCF Done:  E(RHF) =  -228.597424344     A.U. after   16 cycles
 E2 =    -0.7379392328D+00 EUMP2 =    -0.22933536357661D+03
 CCSD(T)
 CCSD(T)= -0.22939821872D+03

 The electronic state is 1-A'.
 Alpha  occ. eigenvalues --  -20.64501 -11.32399 -11.30364 -11.24320 -11.22939
 Alpha  occ. eigenvalues --   -1.47479  -1.07825  -1.01873  -0.85718  -0.78656
 Alpha  occ. eigenvalues --   -0.70756  -0.66969  -0.65532  -0.61013  -0.56070
 Alpha  occ. eigenvalues --   -0.41806  -0.40012  -0.35599
 Alpha virt. eigenvalues --    0.04103   0.04895   0.06082   0.07231   0.10222
 Alpha virt. eigenvalues --    0.10381   0.11411   0.12581   0.13676   0.14013
 Alpha virt. eigenvalues --    0.15190   0.17674   0.18501   0.18813   0.19670

 Mulliken charges:
               1
     1  O   -0.254912
     2  C    0.132356
     3  C   -0.464063
     4  C    0.183923
     5  C   -0.288381
     6  H    0.177917
     7  H    0.130734
     8  H    0.164914
     9  H    0.217511
 Sum of Mulliken charges =  -0.00000

 Dipole moment (field-independent basis, Debye):
    X=             -0.8385    Y=             -1.3601    Z=              0.0000  Tot=              1.5978
 Quadrupole moment (field-independent basis, Debye-Ang):
   XX=            -22.8930   YY=            -29.2268   ZZ=            -32.8571
   XY=             -0.7648   XZ=              0.0000   YZ=              0.0000

 CSD=-229.3646329\CCSD(T)=-229.3982187\RMSD=3.987e-09\PG=CS [SG(C4H4O1)
 Normal termination of Gaussian 09 at Mon Oct  9 18:09:58 2017.
