 Gaussian 09, Revision E.01,
 Gaussian 09:  ES64L-G09RevE.01 30-Nov-2015

 -----------------------------------
 #p ccsd(t,maxcyc=200)/6-311++G(d,p)
 -----------------------------------

 -------------
 ccsd(t) iener
 -------------
 Symbolic Z-matrix:
 Charge =  1 Multiplicity = 2

                         Standard orientation:
 ---------------------------------------------------------------------
 Center     Atomic      Atomic             Coordinates (Angstroms)
 Number     Number       Type             X           Y           Z
 ---------------------------------------------------------------------
      1          6           0        0.000000    1.081711    0.369387
      2          6           0       -0.000000   -1.081711    0.369387
      3          8           0        0.000000    0.000000    1.172921
      4          6           0        0.000000   -0.690493   -0.988744
      5          6           0        0.000000    0.690493   -0.988744
      6          1           0        0.000000    2.046796    0.858225
      7          1           0       -0.000000   -2.046796    0.858225
      8          1           0        0.000000   -1.363219   -1.833771
      9          1           0        0.000000    1.363219   -1.833771
 ---------------------------------------------------------------------

 SCF Done:  E(UHF) =  -228.411051108     A.U. after   17 cycles
 E2 =    -0.6982413009D+00 EUMP2 =    -0.22910929240883D+03
 CCSD(T)
 CCSD(T)= -0.22917477055D+03

 The electronic state is 2-A2.
 Alpha  occ. eigenvalues --  -20.88132 -11.58615 -11.58609 -11.50012 -11.49884
 Alpha  occ. eigenvalues --   -1.73427  -1.35406  -1.28314  -1.06465  -1.04977
 Alpha  occ. eigenvalues --   -0.99393  -0.90581  -0.86868  -0.82854  -0.81875
 Alpha  occ. eigenvalues --   -0.79567  -0.64568  -0.61863
 Alpha virt. eigenvalues --   -0.13878  -0.08937  -0.07286  -0.06568  -0.04534
 Alpha virt. eigenvalues --   -0.04072  -0.04067  -0.03988  -0.01893  -0.00166
 Alpha virt. eigenvalues --    0.01084   0.01210   0.02270   0.04261   0.04515

  Beta  occ. eigenvalues --  -20.88635 -11.57270 -11.57269 -11.50090 -11.49952
  Beta  occ. eigenvalues --   -1.73211  -1.34667  -1.23225  -1.05660  -1.02853
  Beta  occ. eigenvalues --   -0.98918  -0.86787  -0.86361  -0.83177  -0.80989
  Beta  occ. eigenvalues --   -0.79410  -0.63539
  Beta virt. eigenvalues --   -0.22509  -0.08847  -0.07205  -0.06737  -0.06525
  Beta virt. eigenvalues --   -0.04485  -0.03591  -0.02402  -0.01665  -0.00741
  Beta virt. eigenvalues --    0.00907   0.01242   0.02300   0.02973   0.04467

 Mulliken charges and spin densities:
               1          2
     1  C   -0.023127   0.659651
     2  C   -0.023127   0.659651
     3  O   -0.052183  -0.153573
     4  C   -0.071816  -0.029040
     5  C   -0.071816  -0.029040
     6  H    0.322086  -0.054560
     7  H    0.322086  -0.054560
     8  H    0.298948   0.000735
     9  H    0.298948   0.000735
 Sum of Mulliken charges =   1.00000   1.00000

 Dipole moment (field-independent basis, Debye):
    X=             -0.0000    Y=              0.0000    Z=             -1.4218  Tot=              1.4218
 Quadrupole moment (field-independent basis, Debye-Ang):
   XX=            -28.1231   YY=            -13.2888   ZZ=            -21.3276
   XY=              0.0000   XZ=             -0.0000   YZ=             -0.0000

 229.1422116\CCSD=-229.1421414\CCSD(T)=-229.1747705\S2=0.812848\S2-1=0.
 Normal termination of Gaussian 09 at Mon Oct  9 22:40:38 2017.
