 Gaussian 09, Revision E.01,
 Gaussian 09:  ES64L-G09RevE.01 30-Nov-2015

 -----------------------------------
 #p ccsd(t,maxcyc=200)/6-311++G(d,p)
 -----------------------------------

 -------------
 ccsd(t) iener
 -------------
 Symbolic Z-matrix:
 Charge =  0 Multiplicity = 1

                         Standard orientation:
 ---------------------------------------------------------------------
 Center     Atomic      Atomic             Coordinates (Angstroms)
 Number     Number       Type             X           Y           Z
 ---------------------------------------------------------------------
      1          8           0        2.356035   -0.495503    0.000020
      2          6           0       -2.534841   -0.126166   -0.000127
      3          6           0       -1.093879    0.058140   -0.000351
      4          6           0        0.107442    0.184306   -0.000082
      5          6           0        1.532117    0.393300    0.000059
      6          1           0       -2.851828   -0.650353    0.906169
      7          1           0       -2.843302   -0.730109   -0.858329
      8          1           0       -3.059890    0.831326   -0.045194
      9          1           0        1.841716    1.455674    0.000196
 ---------------------------------------------------------------------

 SCF Done:  E(RHF) =  -228.648353953     A.U. after   16 cycles
 E2 =    -0.7435361177D+00 EUMP2 =    -0.22939189007052D+03
 CCSD(T)
 CCSD(T)= -0.22945117346D+03

 The electronic state is 1-A.
 Alpha  occ. eigenvalues --  -20.57083 -11.36194 -11.27345 -11.27131 -11.24490
 Alpha  occ. eigenvalues --   -1.40540  -1.09252  -1.00418  -0.89335  -0.72639
 Alpha  occ. eigenvalues --   -0.66401  -0.65035  -0.61260  -0.61205  -0.55114
 Alpha  occ. eigenvalues --   -0.45406  -0.40796  -0.40361
 Alpha virt. eigenvalues --    0.03326   0.05296   0.06566   0.06737   0.07739
 Alpha virt. eigenvalues --    0.09892   0.11249   0.11977   0.14127   0.14656
 Alpha virt. eigenvalues --    0.14692   0.16425   0.17640   0.18023   0.18303

 Mulliken charges:
               1
     1  O   -0.289553
     2  C   -0.529839
     3  C    0.189070
     4  C    0.213688
     5  C   -0.191860
     6  H    0.168774
     7  H    0.169098
     8  H    0.161140
     9  H    0.109481
 Sum of Mulliken charges =  -0.00000

 Dipole moment (field-independent basis, Debye):
    X=             -3.8862    Y=              1.9052    Z=              0.0028  Tot=              4.3281
 Quadrupole moment (field-independent basis, Debye-Ang):
   XX=            -29.3873   YY=            -29.4344   ZZ=            -29.4500
   XY=              5.4040   XZ=             -0.0070   YZ=              0.0003

 1294\CCSD=-229.4170085\CCSD(T)=-229.4511735\RMSD=6.425e-09\PG=C01 [X(C
 Normal termination of Gaussian 09 at Mon Oct  9 17:58:14 2017.
