 Gaussian 09, Revision E.01,
 Gaussian 09:  ES64L-G09RevE.01 30-Nov-2015

 -----------------------------------
 #p ccsd(t,maxcyc=200)/6-311++G(d,p)
 -----------------------------------

 -------------
 ccsd(t) iener
 -------------
 Symbolic Z-matrix:
 Charge =  1 Multiplicity = 2

                         Standard orientation:
 ---------------------------------------------------------------------
 Center     Atomic      Atomic             Coordinates (Angstroms)
 Number     Number       Type             X           Y           Z
 ---------------------------------------------------------------------
      1          8           0        2.067730   -0.473173   -0.000000
      2          6           0       -1.656273   -0.917337    0.000000
      3          6           0        1.126483    0.151994   -0.000000
      4          6           0       -1.307233    0.421537    0.000000
      5          6           0       -0.000000    0.933605   -0.000000
      6          1           0       -2.700170   -1.206645    0.000000
      7          1           0       -0.922498   -1.717738    0.000000
      8          1           0       -2.095415    1.167468    0.000000
      9          1           0        0.198379    2.003499   -0.000000
 ---------------------------------------------------------------------

 SCF Done:  E(UHF) =  -228.406742103     A.U. after   27 cycles
 E2 =    -0.6969477637D+00 EUMP2 =    -0.22910368986634D+03
 CCSD(T)
 CCSD(T)= -0.22917013473D+03

 The electronic state is 2-A".
 Alpha  occ. eigenvalues --  -20.93155 -11.66700 -11.53153 -11.50009 -11.47773
 Alpha  occ. eigenvalues --   -1.78258  -1.37664  -1.25206  -1.08022  -1.01546
 Alpha  occ. eigenvalues --   -0.94314  -0.93365  -0.90418  -0.86587  -0.80185
 Alpha  occ. eigenvalues --   -0.75917  -0.71331  -0.59476
 Alpha virt. eigenvalues --   -0.12489  -0.12241  -0.09380  -0.06991  -0.06583
 Alpha virt. eigenvalues --   -0.04022  -0.03655  -0.03035  -0.00825  -0.00075
 Alpha virt. eigenvalues --    0.00736   0.01117   0.01712   0.02109   0.02606

  Beta  occ. eigenvalues --  -20.92060 -11.66984 -11.52026 -11.50822 -11.46121
  Beta  occ. eigenvalues --   -1.76239  -1.35272  -1.20740  -1.06459  -1.00124
  Beta  occ. eigenvalues --   -0.93455  -0.89512  -0.87270  -0.85395  -0.79322
  Beta  occ. eigenvalues --   -0.75384  -0.63986
  Beta virt. eigenvalues --   -0.21816  -0.12077  -0.09276  -0.07880  -0.06844
  Beta virt. eigenvalues --   -0.06548  -0.03613  -0.03226  -0.02994  -0.00685
  Beta virt. eigenvalues --    0.00106   0.01777   0.02252   0.02726   0.03133

 Mulliken charges and spin densities:
               1          2
     1  O   -0.047147   0.239528
     2  C   -0.318119   0.922404
     3  C   -0.045014  -0.132923
     4  C    0.054919  -0.453572
     5  C    0.307968   0.587579
     6  H    0.212904  -0.070650
     7  H    0.194950  -0.075347
     8  H    0.300780   0.028292
     9  H    0.338758  -0.045310
 Sum of Mulliken charges =   1.00000   1.00000

 Dipole moment (field-independent basis, Debye):
    X=             -1.4951    Y=              1.2990    Z=              0.0000  Tot=              1.9806
 Quadrupole moment (field-independent basis, Debye-Ang):
   XX=            -16.2047   YY=            -19.4440   ZZ=            -28.4362
   XY=              2.6308   XZ=             -0.0000   YZ=              0.0000

 SD=-229.1375454\CCSD(T)=-229.1701347\S2=0.887797\S2-1=0.840925\S2A=0.7
 Normal termination of Gaussian 09 at Tue Oct 10 01:02:43 2017.
