 Gaussian 09, Revision E.01,
 Gaussian 09:  ES64L-G09RevE.01 30-Nov-2015

 -----------------------------------
 #p ccsd(t,maxcyc=200)/6-311++G(d,p)
 -----------------------------------

 -------------
 ccsd(t) iener
 -------------
 Symbolic Z-matrix:
 Charge =  1 Multiplicity = 2

                         Standard orientation:
 ---------------------------------------------------------------------
 Center     Atomic      Atomic             Coordinates (Angstroms)
 Number     Number       Type             X           Y           Z
 ---------------------------------------------------------------------
      1          6           0        1.293931    0.364216    0.000003
      2          6           0       -1.143012    0.213467   -0.000017
      3          8           0        1.539253   -0.899299    0.000000
      4          6           0       -2.181833   -0.429480    0.000003
      5          6           0        0.013370    0.955226    0.000001
      6          1           0        2.191077    0.976556    0.000004
      7          1           0        0.740816   -1.462579   -0.000003
      8          1           0       -3.099678   -0.980346    0.000036
      9          1           0       -0.040969    2.040191    0.000023
 ---------------------------------------------------------------------

 SCF Done:  E(UHF) =  -228.362313888     A.U. after   29 cycles
 E2 =    -0.6875574131D+00 EUMP2 =    -0.22904987130089D+03
 CCSD(T)
 CCSD(T)= -0.22912496851D+03

 The electronic state is 2-A.
 Alpha  occ. eigenvalues --  -20.87970 -11.61577 -11.52355 -11.48759 -11.46216
 Alpha  occ. eigenvalues --   -1.71327  -1.34372  -1.25852  -1.13838  -1.00849
 Alpha  occ. eigenvalues --   -0.95819  -0.92713  -0.87460  -0.85094  -0.80511
 Alpha  occ. eigenvalues --   -0.71253  -0.63464  -0.60164
 Alpha virt. eigenvalues --   -0.13617  -0.09549  -0.08062  -0.06114  -0.04832
 Alpha virt. eigenvalues --   -0.04220  -0.03754  -0.01843  -0.00986  -0.00391
 Alpha virt. eigenvalues --    0.00876   0.01635   0.02741   0.03961   0.04137

  Beta  occ. eigenvalues --  -20.87271 -11.61458 -11.51091 -11.47762 -11.46618
  Beta  occ. eigenvalues --   -1.69729  -1.32161  -1.21656  -1.11964  -1.00036
  Beta  occ. eigenvalues --   -0.95335  -0.91304  -0.85087  -0.81241  -0.79833
  Beta  occ. eigenvalues --   -0.64496  -0.62494
  Beta virt. eigenvalues --   -0.22592  -0.09323  -0.08155  -0.07015  -0.06074
  Beta virt. eigenvalues --   -0.04746  -0.04074  -0.02845  -0.01474  -0.00755
  Beta virt. eigenvalues --   -0.00105   0.01166   0.02863   0.03213   0.04077

 Mulliken charges and spin densities:
               1          2
     1  C   -0.218912   0.109399
     2  C    1.423759  -0.812353
     3  O   -0.095006   0.125566
     4  C   -2.130646   0.897993
     5  C    0.855239   0.821574
     6  H    0.301614  -0.015194
     7  H    0.312585  -0.009133
     8  H    0.244533  -0.064511
     9  H    0.306834  -0.053341
 Sum of Mulliken charges =   1.00000   1.00000

 Dipole moment (field-independent basis, Debye):
    X=             -0.3709    Y=              0.5004    Z=              0.0001  Tot=              0.6228
 Quadrupole moment (field-independent basis, Debye-Ang):
   XX=            -11.5915   YY=            -19.0659   ZZ=            -28.3821
   XY=              7.0527   XZ=             -0.0001   YZ=              0.0000

 9918\CCSD=-229.0926457\CCSD(T)=-229.1249685\S2=0.93432\S2-1=0.874992\S
 Normal termination of Gaussian 09 at Mon Oct  9 19:40:28 2017.
