 Gaussian 09, Revision E.01,
 Gaussian 09:  ES64L-G09RevE.01 30-Nov-2015

 -----------------------------------
 #p ccsd(t,maxcyc=200)/6-311++G(d,p)
 -----------------------------------

 -------------
 ccsd(t) iener
 -------------
 Symbolic Z-matrix:
 Charge =  1 Multiplicity = 2

                         Standard orientation:
 ---------------------------------------------------------------------
 Center     Atomic      Atomic             Coordinates (Angstroms)
 Number     Number       Type             X           Y           Z
 ---------------------------------------------------------------------
      1          6           0       -0.985378   -0.402329   -0.000041
      2          6           0        2.538747   -0.195919   -0.000025
      3          8           0       -2.244541   -0.123111    0.000066
      4          6           0        1.362593    0.140125   -0.000160
      5          6           0        0.051642    0.543105   -0.000018
      6          1           0       -0.783721   -1.469978   -0.000163
      7          1           0       -2.456839    0.828335    0.000174
      8          1           0        3.567233   -0.491373    0.000829
      9          1           0       -0.175971    1.608008    0.000096
 ---------------------------------------------------------------------

 SCF Done:  E(UHF) =  -228.362442284     A.U. after   27 cycles
 E2 =    -0.6873080326D+00 EUMP2 =    -0.22904975031631D+03
 CCSD(T)
 CCSD(T)= -0.22912460926D+03

 The electronic state is 2-A.
 Alpha  occ. eigenvalues --  -20.87545 -11.61061 -11.51754 -11.48278 -11.46264
 Alpha  occ. eigenvalues --   -1.70827  -1.34285  -1.25332  -1.13309  -1.00263
 Alpha  occ. eigenvalues --   -0.96116  -0.92078  -0.87054  -0.84943  -0.80001
 Alpha  occ. eigenvalues --   -0.71062  -0.62887  -0.59635
 Alpha virt. eigenvalues --   -0.12901  -0.09794  -0.07712  -0.06340  -0.04779
 Alpha virt. eigenvalues --   -0.03638  -0.03599  -0.01311  -0.01310  -0.00517
 Alpha virt. eigenvalues --    0.00046   0.01249   0.03640   0.03860   0.04567

  Beta  occ. eigenvalues --  -20.86853 -11.60918 -11.50636 -11.47739 -11.46050
  Beta  occ. eigenvalues --   -1.69235  -1.32334  -1.20616  -1.11713  -0.99446
  Beta  occ. eigenvalues --   -0.95599  -0.90625  -0.84872  -0.80965  -0.79506
  Beta  occ. eigenvalues --   -0.63756  -0.61774
  Beta virt. eigenvalues --   -0.22087  -0.09699  -0.07711  -0.06986  -0.06365
  Beta virt. eigenvalues --   -0.04668  -0.03444  -0.03280  -0.01005  -0.00717
  Beta virt. eigenvalues --   -0.00193   0.00121   0.03720   0.04147   0.04671

 Mulliken charges and spin densities:
               1          2
     1  C   -0.170548   0.127092
     2  C   -0.214833   1.062327
     3  O   -0.087013   0.111441
     4  C    0.564667  -0.786049
     5  C   -0.262820   0.616736
     6  H    0.278998  -0.008991
     7  H    0.327873  -0.008543
     8  H    0.285824  -0.066022
     9  H    0.277852  -0.047992
 Sum of Mulliken charges =   1.00000   1.00000

 Dipole moment (field-independent basis, Debye):
    X=              0.2859    Y=              0.7803    Z=              0.0009  Tot=              0.8310
 Quadrupole moment (field-independent basis, Debye-Ang):
   XX=             -5.5808   YY=            -21.7882   ZZ=            -28.3939
   XY=             -6.0136   XZ=              0.0029   YZ=              0.0002

 43\CCSD=-229.092417\CCSD(T)=-229.1246093\S2=0.930036\S2-1=0.871374\S2A
 Normal termination of Gaussian 09 at Mon Oct  9 19:42:23 2017.
