 Gaussian 09, Revision E.01,
 Gaussian 09:  ES64L-G09RevE.01 30-Nov-2015

 -----------------------------------
 #p ccsd(t,maxcyc=200)/6-311++G(d,p)
 -----------------------------------

 -------------
 ccsd(t) iener
 -------------
 Symbolic Z-matrix:
 Charge =  0 Multiplicity = 1

                         Standard orientation:
 ---------------------------------------------------------------------
 Center     Atomic      Atomic             Coordinates (Angstroms)
 Number     Number       Type             X           Y           Z
 ---------------------------------------------------------------------
      1          6           0       -2.120500   -0.625426    0.000000
      2          6           0        1.356868    0.274608    0.000000
      3          8           0        1.540597   -0.911038    0.000000
      4          6           0        0.000000    0.970345    0.000000
      5          6           0       -1.160635    0.095945    0.000000
      6          1           0       -0.011934    1.639171    0.871878
      7          1           0        2.208946    0.988501    0.000000
      8          1           0       -0.011934    1.639171   -0.871878
      9          1           0       -2.964256   -1.271358    0.000000
 ---------------------------------------------------------------------

 SCF Done:  E(RHF) =  -228.643365384     A.U. after   16 cycles
 E2 =    -0.7414227060D+00 EUMP2 =    -0.22938478808977D+03
 CCSD(T)
 CCSD(T)= -0.22944516399D+03

 The electronic state is 1-A'.
 Alpha  occ. eigenvalues --  -20.57303 -11.35293 -11.28458 -11.24525 -11.23391
 Alpha  occ. eigenvalues --   -1.41412  -1.09207  -0.99991  -0.83206  -0.72777
 Alpha  occ. eigenvalues --   -0.69360  -0.65894  -0.63792  -0.61565  -0.52432
 Alpha  occ. eigenvalues --   -0.44562  -0.39789  -0.39604
 Alpha virt. eigenvalues --    0.03518   0.04618   0.06080   0.06242   0.10113
 Alpha virt. eigenvalues --    0.10718   0.11893   0.12306   0.13769   0.14231
 Alpha virt. eigenvalues --    0.14393   0.15446   0.17569   0.17629   0.18001

 Mulliken charges:
               1
     1  C   -2.117459
     2  C    0.032452
     3  O   -0.280746
     4  C   -0.101518
     5  C    1.814001
     6  H    0.177963
     7  H    0.139794
     8  H    0.177963
     9  H    0.157549
 Sum of Mulliken charges =  -0.00000

 Dipole moment (field-independent basis, Debye):
    X=             -0.4776    Y=              3.1517    Z=             -0.0000  Tot=              3.1876
 Quadrupole moment (field-independent basis, Debye-Ang):
   XX=            -28.0107   YY=            -28.9257   ZZ=            -29.7196
   XY=              7.5021   XZ=             -0.0000   YZ=             -0.0000

 4DQ=-229.4027829\MP4SDQ=-229.4136203\CCSD=-229.4117917\CCSD(T)=-229.44
 Normal termination of Gaussian 09 at Mon Oct  9 16:54:36 2017.
