 Gaussian 09, Revision E.01,
 Gaussian 09:  ES64L-G09RevE.01 30-Nov-2015

 -----------------------------------
 #p ccsd(t,maxcyc=200)/6-311++G(d,p)
 -----------------------------------

 -------------
 ccsd(t) iener
 -------------
 Symbolic Z-matrix:
 Charge =  0 Multiplicity = 3

                         Standard orientation:
 ---------------------------------------------------------------------
 Center     Atomic      Atomic             Coordinates (Angstroms)
 Number     Number       Type             X           Y           Z
 ---------------------------------------------------------------------
      1          6           0       -0.000000    0.000000    0.126132
      2          6           0       -0.000000    0.000000    1.410124
      3          6           0        0.000000   -0.000000   -1.157878
      4          6           0       -0.000000    0.000000    2.717804
      5          8           0        0.000000   -0.000000   -2.322137
 ---------------------------------------------------------------------

 SCF Done:  E(UHF) =  -226.189158905     A.U. after   20 cycles
 E2 =    -0.6506167789D+00 EUMP2 =    -0.22683977568395D+03
 CCSD(T)
 CCSD(T)= -0.22689872060D+03

 The electronic state is 3-SG.
 Alpha  occ. eigenvalues --  -20.70777 -11.44622 -11.33739 -11.31489 -11.30581
 Alpha  occ. eigenvalues --   -1.55528  -1.17534  -1.08523  -0.90555  -0.80393
 Alpha  occ. eigenvalues --   -0.72962  -0.72962  -0.54305  -0.54305  -0.49277
 Alpha  occ. eigenvalues --   -0.40006  -0.40006
 Alpha virt. eigenvalues --    0.05162   0.07219   0.07219   0.09200   0.09200
 Alpha virt. eigenvalues --    0.09210   0.11015   0.13036   0.13036   0.14773
 Alpha virt. eigenvalues --    0.18487   0.18487   0.20857   0.24266   0.24266

  Beta  occ. eigenvalues --  -20.68407 -11.44633 -11.32641 -11.31805 -11.28543
  Beta  occ. eigenvalues --   -1.50788  -1.13145  -0.99978  -0.87016  -0.77402
  Beta  occ. eigenvalues --   -0.64204  -0.64204  -0.46604  -0.46604  -0.44491
  Beta virt. eigenvalues --   -0.02498  -0.02498   0.05283   0.09066   0.09066
  Beta virt. eigenvalues --    0.09308   0.11225   0.11615   0.11615   0.14964
  Beta virt. eigenvalues --    0.17112   0.17112   0.20342   0.20342   0.21236

 Mulliken charges and spin densities:
               1          2
     1  C    1.841018   0.533459
     2  C    0.016897  -0.125624
     3  C   -1.288166   0.009075
     4  C   -0.361688   1.121042
     5  O   -0.208062   0.462049
 Sum of Mulliken charges =  -0.00000   2.00000

 Dipole moment (field-independent basis, Debye):
    X=              0.0000    Y=             -0.0000    Z=             -2.6915  Tot=              2.6915
 Quadrupole moment (field-independent basis, Debye-Ang):
   XX=            -27.3743   YY=            -27.3743   ZZ=            -42.4354
   XY=              0.0000   XZ=              0.0000   YZ=             -0.0000

 6.8620699\CCSD=-226.8609288\CCSD(T)=-226.8987206\S2=2.190395\S2-1=2.11
 Normal termination of Gaussian 09 at Tue Oct 10 01:19:42 2017.
