 Gaussian 09, Revision E.01,
 Gaussian 09:  ES64L-G09RevE.01 30-Nov-2015

 -----------------------------------
 #p ccsd(t,maxcyc=200)/6-311++G(d,p)
 -----------------------------------

 -------------
 ccsd(t) iener
 -------------
 Symbolic Z-matrix:
 Charge =  0 Multiplicity = 1

                         Standard orientation:
 ---------------------------------------------------------------------
 Center     Atomic      Atomic             Coordinates (Angstroms)
 Number     Number       Type             X           Y           Z
 ---------------------------------------------------------------------
      1          6           0        1.686414    2.128630   -0.000000
      2          6           0        0.839881    1.134408   -0.000000
      3          6           0       -0.695379   -0.924796    0.000000
      4          6           0       -0.000000    0.158640    0.000000
      5          8           0       -1.373187   -1.872661    0.000000
 ---------------------------------------------------------------------

 SCF Done:  E(RHF) =  -226.144408964     A.U. after   16 cycles
 E2 =    -0.6849568175D+00 EUMP2 =    -0.22682936578150D+03
 CCSD(T)
 CCSD(T)= -0.22688542550D+03

 The electronic state is 1-A'.
 Alpha  occ. eigenvalues --  -20.68264 -11.44126 -11.32958 -11.32450 -11.31116
 Alpha  occ. eigenvalues --   -1.51968  -1.14742  -1.04265  -0.89247  -0.77795
 Alpha  occ. eigenvalues --   -0.69236  -0.65804  -0.52116  -0.48736  -0.47462
 Alpha  occ. eigenvalues --   -0.35798
 Alpha virt. eigenvalues --   -0.06605   0.05536   0.08402   0.08864   0.09303
 Alpha virt. eigenvalues --    0.09788   0.10917   0.10965   0.13539   0.14979
 Alpha virt. eigenvalues --    0.15332   0.18372   0.18794   0.21345   0.23312

 Mulliken charges:
               1
     1  C   -0.332755
     2  C    0.261272
     3  C   -1.353660
     4  C    1.650164
     5  O   -0.225021
 Sum of Mulliken charges =  -0.00000

 Dipole moment (field-independent basis, Debye):
    X=             -1.0579    Y=             -1.3842    Z=              0.0000  Tot=              1.7422
 Quadrupole moment (field-independent basis, Debye-Ang):
   XX=            -33.7077   YY=            -36.5249   ZZ=            -25.7384
   XY=             -5.6794   XZ=              0.0000   YZ=              0.0000

 \CCSD(T)=-226.8854255\RMSD=5.231e-09\PG=CS [SG(C4O1)]\\@
 Normal termination of Gaussian 09 at Tue Oct 10 01:03:56 2017.
