 Gaussian 09, Revision E.01,
 Gaussian 09:  ES64L-G09RevE.01 30-Nov-2015

 -----------------------------------
 #p ccsd(t,maxcyc=200)/6-311++G(d,p)
 -----------------------------------

 -------------
 ccsd(t) iener
 -------------
 Symbolic Z-matrix:
 Charge =  0 Multiplicity = 1

                         Standard orientation:
 ---------------------------------------------------------------------
 Center     Atomic      Atomic             Coordinates (Angstroms)
 Number     Number       Type             X           Y           Z
 ---------------------------------------------------------------------
      1          6           0       -0.003733   -0.175282    0.833196
      2          6           0       -0.003733   -0.175282   -0.833196
      3          6           0       -0.003733   -1.385088    0.000000
      4          6           0       -0.970721    0.691804    0.000000
      5          8           0        0.736441    0.782886   -0.000000
 ---------------------------------------------------------------------

 SCF Done:  E(RHF) =  -225.925860641     A.U. after   16 cycles
 E2 =    -0.7426095943D+00 EUMP2 =    -0.22666847023546D+03
 CCSD(T)
 CCSD(T)= -0.22672086122D+03

 The electronic state is 1-A'.
 Alpha  occ. eigenvalues --  -20.72555 -11.39032 -11.38966 -11.38934 -11.38174
 Alpha  occ. eigenvalues --   -1.57584  -1.18595  -0.96146  -0.89071  -0.73366
 Alpha  occ. eigenvalues --   -0.64681  -0.59192  -0.52170  -0.51920  -0.45552
 Alpha  occ. eigenvalues --   -0.43928
 Alpha virt. eigenvalues --   -0.00936   0.01299   0.07444   0.08171   0.08440
 Alpha virt. eigenvalues --    0.09336   0.11485   0.12935   0.12951   0.13848
 Alpha virt. eigenvalues --    0.14166   0.16285   0.17464   0.18240   0.18262

 Mulliken charges:
               1
     1  C    0.170528
     2  C    0.170528
     3  C   -0.145006
     4  C   -0.198157
     5  O    0.002108
 Sum of Mulliken charges =   0.00000

 Dipole moment (field-independent basis, Debye):
    X=              0.7418    Y=             -0.5137    Z=             -0.0000  Tot=              0.9023
 Quadrupole moment (field-independent basis, Debye-Ang):
   XX=            -28.7513   YY=            -33.0484   ZZ=            -28.9779
   XY=              0.4201   XZ=             -0.0000   YZ=              0.0000

 =-226.6697726\CCSD(T)=-226.7208612\RMSD=2.456e-09\PG=CS [SG(C2O1),X(C2
 Normal termination of Gaussian 09 at Tue Oct 10 00:45:41 2017.
