 Gaussian 09, Revision E.01,
 Gaussian 09:  ES64L-G09RevE.01 30-Nov-2015

 -----------------------------------
 #p ccsd(t,maxcyc=200)/6-311++G(d,p)
 -----------------------------------

 -------------
 ccsd(t) iener
 -------------
 Symbolic Z-matrix:
 Charge =  1 Multiplicity = 2

                         Standard orientation:
 ---------------------------------------------------------------------
 Center     Atomic      Atomic             Coordinates (Angstroms)
 Number     Number       Type             X           Y           Z
 ---------------------------------------------------------------------
      1          6           0        0.000000    0.431293    0.000000
      2          6           0        1.102832    1.457522    0.000000
      3          6           0       -0.267126    1.730146    0.000000
      4          6           0       -0.253603   -0.918286   -0.000000
      5          8           0       -0.436577   -2.025506   -0.000000
 ---------------------------------------------------------------------

 SCF Done:  E(UHF) =  -225.829281364     A.U. after   27 cycles
 E2 =    -0.6556698014D+00 EUMP2 =    -0.22648495116549D+03
 CCSD(T)
 CCSD(T)= -0.22653745069D+03

 The electronic state is 2-A'.
 Alpha  occ. eigenvalues --  -20.99425 -11.74265 -11.62175 -11.60364 -11.57325
 Alpha  occ. eigenvalues --   -1.83746  -1.52078  -1.29214  -1.07000  -1.01810
 Alpha  occ. eigenvalues --   -0.95123  -0.94671  -0.90700  -0.77151  -0.72300
 Alpha  occ. eigenvalues --   -0.65337
 Alpha virt. eigenvalues --   -0.25942  -0.18035  -0.11170  -0.10619  -0.06341
 Alpha virt. eigenvalues --   -0.06308  -0.04954  -0.02816  -0.02084  -0.01843
 Alpha virt. eigenvalues --    0.00138   0.02000   0.02104   0.03290   0.03727

  Beta  occ. eigenvalues --  -20.99259 -11.74248 -11.60437 -11.58865 -11.57115
  Beta  occ. eigenvalues --   -1.83453  -1.50188  -1.27907  -1.06728  -0.97331
  Beta  occ. eigenvalues --   -0.95806  -0.91876  -0.80569  -0.76243  -0.65794
  Beta virt. eigenvalues --   -0.25083  -0.24614  -0.14099  -0.10095  -0.08269
  Beta virt. eigenvalues --   -0.06391  -0.05628  -0.03857  -0.02741  -0.02166
  Beta virt. eigenvalues --   -0.01377   0.00184   0.02388   0.02402   0.04227

 Mulliken charges and spin densities:
               1          2
     1  C    0.860728   0.096382
     2  C    0.146222   0.087205
     3  C    0.276861   0.746290
     4  C   -0.328802   0.037166
     5  O    0.044992   0.032957
 Sum of Mulliken charges =   1.00000   1.00000

 Dipole moment (field-independent basis, Debye):
    X=             -1.8545    Y=              0.0986    Z=              0.0000  Tot=              1.8571
 Quadrupole moment (field-independent basis, Debye-Ang):
   XX=            -26.4625   YY=            -16.5659   ZZ=            -23.2625
   XY=             -1.2160   XZ=              0.0000   YZ=             -0.0000

 MP3-0=-226.4844568\MP4SDQ=-226.4998574\CCSD=-226.4986573\CCSD(T)=-226.
 Normal termination of Gaussian 09 at Tue Oct 10 01:31:19 2017.
