 Gaussian 09, Revision E.01,
 Gaussian 09:  ES64L-G09RevE.01 30-Nov-2015

 -----------------------------------
 #p ccsd(t,maxcyc=200)/6-311++G(d,p)
 -----------------------------------

 -------------
 ccsd(t) iener
 -------------
 Symbolic Z-matrix:
 Charge =  0 Multiplicity = 1

                         Standard orientation:
 ---------------------------------------------------------------------
 Center     Atomic      Atomic             Coordinates (Angstroms)
 Number     Number       Type             X           Y           Z
 ---------------------------------------------------------------------
      1          6           0       -0.000000    0.716399   -0.065168
      2          6           0       -0.000000   -0.716399   -0.065168
      3          6           0        0.000000   -1.873570   -0.689817
      4          6           0        0.000000    1.873570   -0.689817
      5          8           0       -0.000000    0.000000    1.132477
 ---------------------------------------------------------------------

 SCF Done:  E(RHF) =  -225.997134108     A.U. after   15 cycles
 E2 =    -0.6587217415D+00 EUMP2 =    -0.22665585584989D+03
 CCSD(T)
 CCSD(T)= -0.22672913755D+03

 The electronic state is 1-A1.
 Alpha  occ. eigenvalues --  -20.70793 -11.37631 -11.37540 -11.35463 -11.35463
 Alpha  occ. eigenvalues --   -1.54509  -1.08879  -1.06653  -0.88375  -0.73551
 Alpha  occ. eigenvalues --   -0.71034  -0.58126  -0.50814  -0.50783  -0.44828
 Alpha  occ. eigenvalues --   -0.42278
 Alpha virt. eigenvalues --   -0.03279   0.00884   0.07699   0.07750   0.09859
 Alpha virt. eigenvalues --    0.10630   0.11398   0.12083   0.12839   0.13693
 Alpha virt. eigenvalues --    0.15594   0.15949   0.17502   0.19034   0.20986

 Mulliken charges:
               1
     1  C    0.202241
     2  C    0.202241
     3  C   -0.184649
     4  C   -0.184649
     5  O   -0.035184
 Sum of Mulliken charges =  -0.00000

 Dipole moment (field-independent basis, Debye):
    X=             -0.0000    Y=              0.0000    Z=              0.7591  Tot=              0.7591
 Quadrupole moment (field-independent basis, Debye-Ang):
   XX=            -29.8175   YY=            -34.7101   ZZ=            -29.7334
   XY=              0.0000   XZ=              0.0000   YZ=              0.0000

 226.6926049\CCSD(T)=-226.7291376\RMSD=2.601e-09\PG=C02V [C2(O1),SGV(C4
 Normal termination of Gaussian 09 at Tue Oct 10 01:03:33 2017.
