 Gaussian 09, Revision E.01,
 Gaussian 09:  ES64L-G09RevE.01 30-Nov-2015

 -----------------------------------
 #p ccsd(t,maxcyc=200)/6-311++G(d,p)
 -----------------------------------

 -------------
 ccsd(t) iener
 -------------
 Symbolic Z-matrix:
 Charge =  0 Multiplicity = 1

                         Standard orientation:
 ---------------------------------------------------------------------
 Center     Atomic      Atomic             Coordinates (Angstroms)
 Number     Number       Type             X           Y           Z
 ---------------------------------------------------------------------
      1          6           0       -0.000000    0.785894   -0.612757
      2          6           0       -0.000000    0.000000   -1.798972
      3          6           0        0.000000   -0.000000    0.625687
      4          6           0        0.000000   -0.785894   -0.612757
      5          8           0        0.000000   -0.000000    1.799100
 ---------------------------------------------------------------------

 SCF Done:  E(RHF) =  -226.135411883     A.U. after   14 cycles
 E2 =    -0.7149660725D+00 EUMP2 =    -0.22685037795571D+03
 CCSD(T)
 CCSD(T)= -0.22689035547D+03

 The electronic state is 1-A1.
 Alpha  occ. eigenvalues --  -20.64748 -11.46124 -11.37384 -11.37316 -11.34732
 Alpha  occ. eigenvalues --   -1.50050  -1.33224  -0.97985  -0.81673  -0.75550
 Alpha  occ. eigenvalues --   -0.67415  -0.66424  -0.52220  -0.50575  -0.49862
 Alpha  occ. eigenvalues --   -0.42851
 Alpha virt. eigenvalues --    0.01901   0.02838   0.05691   0.07315   0.09550
 Alpha virt. eigenvalues --    0.09567   0.11763   0.11876   0.13075   0.13490
 Alpha virt. eigenvalues --    0.14202   0.16113   0.17877   0.17932   0.18395

 Mulliken charges:
               1
     1  C    0.317964
     2  C   -0.229232
     3  C   -0.137621
     4  C    0.317964
     5  O   -0.269073
 Sum of Mulliken charges =  -0.00000

 Dipole moment (field-independent basis, Debye):
    X=              0.0000    Y=             -0.0000    Z=              0.2624  Tot=              0.2624
 Quadrupole moment (field-independent basis, Debye-Ang):
   XX=            -25.9282   YY=            -29.7400   ZZ=            -38.1380
   XY=              0.0000   XZ=             -0.0000   YZ=              0.0000

 846726\CCSD(T)=-226.8903555\RMSD=2.936e-09\PG=C02V [C2(C1C1O1),SGV(C2)
 Normal termination of Gaussian 09 at Tue Oct 10 01:11:29 2017.
