 Gaussian 09, Revision E.01,
 Gaussian 09:  ES64L-G09RevE.01 30-Nov-2015

 -----------------------------------
 #p ccsd(t,maxcyc=200)/6-311++G(d,p)
 -----------------------------------

 -------------
 ccsd(t) iener
 -------------
 Symbolic Z-matrix:
 Charge =  1 Multiplicity = 2

                         Standard orientation:
 ---------------------------------------------------------------------
 Center     Atomic      Atomic             Coordinates (Angstroms)
 Number     Number       Type             X           Y           Z
 ---------------------------------------------------------------------
      1          6           0        0.000000    0.000000   -0.634566
      2          8           0        0.000000    0.000000    0.475924
 ---------------------------------------------------------------------

 SCF Done:  E(UHF) =  -112.291277750     A.U. after   15 cycles
 E2 =    -0.2699881043D+00 EUMP2 =    -0.11256126585471D+03
 CCSD(T)
 CCSD(T)= -0.11259081956D+03

 The electronic state is 2-SG.
 Alpha  occ. eigenvalues --  -21.07455 -11.86295  -1.90893  -1.20491  -1.08160
 Alpha  occ. eigenvalues --   -1.00024  -1.00024
 Alpha virt. eigenvalues --   -0.24122  -0.24122  -0.11774  -0.08263  -0.07318
 Alpha virt. eigenvalues --   -0.07318   0.05077   0.09334   0.09334   0.13637
 Alpha virt. eigenvalues --    0.21493   0.35660   0.35660   0.46383   0.73994

  Beta  occ. eigenvalues --  -21.10173 -11.80210  -1.94202  -1.16884  -1.06274
  Beta  occ. eigenvalues --   -1.06274
  Beta virt. eigenvalues --   -0.40615  -0.17521  -0.17521  -0.09511  -0.07486
  Beta virt. eigenvalues --   -0.05441  -0.05441   0.05890   0.08342   0.08342
  Beta virt. eigenvalues --    0.14342   0.25857   0.40662   0.40662   0.57281

 Mulliken charges and spin densities:
               1          2
     1  C    0.720428   1.678133
     2  O    0.279572  -0.678133
 Sum of Mulliken charges =   1.00000   1.00000

 Dipole moment (field-independent basis, Debye):
    X=              0.0000    Y=              0.0000    Z=             -3.0838  Tot=              3.0838
 Quadrupole moment (field-independent basis, Debye-Ang):
   XX=             -7.9682   YY=             -7.9682   ZZ=             -5.4923
   XY=              0.0000   XZ=              0.0000   YZ=              0.0000

 12.5684682\MP4SDQ=-112.569783\CCSD=-112.5776887\CCSD(T)=-112.5908196\S
 Normal termination of Gaussian 09 at Tue Oct 10 01:41:41 2017.
