 Gaussian 09, Revision E.01,
 Gaussian 09:  ES64L-G09RevE.01 30-Nov-2015

 -----------------------------------
 #p ccsd(t,maxcyc=200)/6-311++G(d,p)
 -----------------------------------

 -------------
 ccsd(t) iener
 -------------
 Symbolic Z-matrix:
 Charge =  0 Multiplicity = 3

                         Standard orientation:
 ---------------------------------------------------------------------
 Center     Atomic      Atomic             Coordinates (Angstroms)
 Number     Number       Type             X           Y           Z
 ---------------------------------------------------------------------
      1          6           0        0.000000    0.000000   -0.687790
      2          8           0        0.000000    0.000000    0.515843
 ---------------------------------------------------------------------

 SCF Done:  E(UHF) =  -112.579765794     A.U. after   18 cycles
 E2 =    -0.2612779880D+00 EUMP2 =    -0.11284104378240D+03
 CCSD(T)
 CCSD(T)= -0.11287518628D+03

 Unable to determine electronic state:  an orbital has unidentified symmetry.
 Alpha  occ. eigenvalues --  -20.62820 -11.39503  -1.43869  -0.85606  -0.68477
 Alpha  occ. eigenvalues --   -0.66305  -0.54846  -0.35634
 Alpha virt. eigenvalues --    0.07683   0.07791   0.09864   0.10821   0.12725
 Alpha virt. eigenvalues --    0.26948   0.30306   0.32309   0.37349   0.46885
 Alpha virt. eigenvalues --    0.63910   0.65936   0.74954   1.02349   1.23637

  Beta  occ. eigenvalues --  -20.63405 -11.32588  -1.43481  -0.72299  -0.62400
  Beta  occ. eigenvalues --   -0.56300
  Beta virt. eigenvalues --   -0.04039   0.08522   0.09386   0.10082   0.12350
  Beta virt. eigenvalues --    0.21476   0.23874   0.27697   0.30319   0.31688
  Beta virt. eigenvalues --    0.38741   0.53712   0.74164   0.76406   0.88700

 Mulliken charges and spin densities:
               1          2
     1  C    0.135620   2.373907
     2  O   -0.135620  -0.373907
 Sum of Mulliken charges =   0.00000   2.00000

 Dipole moment (field-independent basis, Debye):
    X=              0.0000    Y=              0.0000    Z=             -2.0570  Tot=              2.0570
 Quadrupole moment (field-independent basis, Debye-Ang):
   XX=            -10.0817   YY=            -11.5089   ZZ=            -10.1591
   XY=              0.0000   XZ=              0.0000   YZ=              0.0000

 SDQ=-112.8543243\CCSD=-112.8635133\CCSD(T)=-112.8751863\S2=2.222192\S2
 Normal termination of Gaussian 09 at Tue Oct 10 01:41:27 2017.
