 Gaussian 09, Revision E.01,
 Gaussian 09:  ES64L-G09RevE.01 30-Nov-2015

 -----------------------------------
 #p ccsd(t,maxcyc=200)/6-311++G(d,p)
 -----------------------------------

 -------------
 ccsd(t) iener
 -------------
 Symbolic Z-matrix:
 Charge =  0 Multiplicity = 1

                         Standard orientation:
 ---------------------------------------------------------------------
 Center     Atomic      Atomic             Coordinates (Angstroms)
 Number     Number       Type             X           Y           Z
 ---------------------------------------------------------------------
      1          6           0        0.000000    0.000000   -0.644392
      2          8           0        0.000000    0.000000    0.483294
 ---------------------------------------------------------------------

 SCF Done:  E(RHF) =  -112.769704623     A.U. after   10 cycles
 E2 =    -0.3081406189D+00 EUMP2 =    -0.11307784524161D+03
 CCSD(T)
 CCSD(T)= -0.11309626995D+03

 The electronic state is 1-SG.
 Alpha  occ. eigenvalues --  -20.67020 -11.36610  -1.52822  -0.80688  -0.64212
 Alpha  occ. eigenvalues --   -0.64212  -0.55583
 Alpha virt. eigenvalues --    0.08395   0.08432   0.08432   0.11142   0.17358
 Alpha virt. eigenvalues --    0.17358   0.26303   0.30028   0.30028   0.36217
 Alpha virt. eigenvalues --    0.53201   0.70834   0.70834   0.85807   1.06101

 Mulliken charges:
               1
     1  C    0.098051
     2  O   -0.098051
 Sum of Mulliken charges =  -0.00000

 Dipole moment (field-independent basis, Debye):
    X=              0.0000    Y=              0.0000    Z=             -0.3007  Tot=              0.3007
 Quadrupole moment (field-independent basis, Debye-Ang):
   XX=            -10.2195   YY=            -10.2195   ZZ=            -12.4666
   XY=              0.0000   XZ=              0.0000   YZ=              0.0000

 DQ=-113.0783975\MP4SDQ=-113.0853348\CCSD=-113.0827059\CCSD(T)=-113.096
 Normal termination of Gaussian 09 at Tue Oct 10 01:41:27 2017.
