 Gaussian 09, Revision E.01,
 Gaussian 09:  ES64L-G09RevE.01 30-Nov-2015

 -----------------------------------
 #p ccsd(t,maxcyc=200)/6-311++G(d,p)
 -----------------------------------

 -------------
 ccsd(t) iener
 -------------
 Symbolic Z-matrix:
 Charge =  1 Multiplicity = 4

                         Standard orientation:
 ---------------------------------------------------------------------
 Center     Atomic      Atomic             Coordinates (Angstroms)
 Number     Number       Type             X           Y           Z
 ---------------------------------------------------------------------
      1          6           0        0.000000    0.000000   -1.076234
      2          8           0        0.000000    0.000000    0.807175
 ---------------------------------------------------------------------

 SCF Done:  E(UHF) =  -112.128408335     A.U. after   15 cycles
 E2 =    -0.1701483797D+00 EUMP2 =    -0.11229855671510D+03
 CCSD(T)
 CCSD(T)= -0.11234681885D+03

 Unable to determine electronic state:  an orbital has unidentified symmetry.
 Alpha  occ. eigenvalues --  -21.10864 -11.80096  -1.81368  -1.18883  -1.09066
 Alpha  occ. eigenvalues --   -1.08460  -0.95492  -0.82711
 Alpha virt. eigenvalues --   -0.29975  -0.22629  -0.10142  -0.06152  -0.05055
 Alpha virt. eigenvalues --   -0.03979   0.04748   0.05038   0.05230   0.14598
 Alpha virt. eigenvalues --    0.37595   0.42461   0.45076   0.56570   0.84518

  Beta  occ. eigenvalues --  -21.01528 -11.77369  -1.44500  -1.05280  -0.82401
  Beta virt. eigenvalues --   -0.30942  -0.27402  -0.19711  -0.19451  -0.16730
  Beta virt. eigenvalues --   -0.09431  -0.04373  -0.03970  -0.03050   0.05548
  Beta virt. eigenvalues --    0.09984   0.10330   0.16304   0.43883   0.44127

 Mulliken charges and spin densities:
               1          2
     1  C    0.608381   0.847685
     2  O    0.391619   2.152315
 Sum of Mulliken charges =   1.00000   3.00000

 Dipole moment (field-independent basis, Debye):
    X=              0.0000    Y=              0.0000    Z=             -2.0859  Tot=              2.0859
 Quadrupole moment (field-independent basis, Debye-Ang):
   XX=             -9.1683   YY=             -7.6151   ZZ=             -5.0754
   XY=              0.0000   XZ=              0.0000   YZ=              0.0000

 P4SDQ=-112.3342038\CCSD=-112.3409327\CCSD(T)=-112.3468188\S2=3.862309\
 Normal termination of Gaussian 09 at Tue Oct 10 01:41:45 2017.
