 Gaussian 09, Revision E.01,
 Gaussian 09:  ES64L-G09RevE.01 30-Nov-2015

 -----------------------------------
 #p ccsd(t,maxcyc=200)/6-311++G(d,p)
 -----------------------------------

 -------------
 ccsd(t) iener
 -------------
 Symbolic Z-matrix:
 Charge =  0 Multiplicity = 2

                         Standard orientation:
 ---------------------------------------------------------------------
 Center     Atomic      Atomic             Coordinates (Angstroms)
 Number     Number       Type             X           Y           Z
 ---------------------------------------------------------------------
      1          1           0        0.000000    0.000000    0.000000
 ---------------------------------------------------------------------

 SCF Done:  E(UHF) = -0.499817915630     A.U. after    6 cycles
 E2 =     0.0000000000D+00 EUMP2 =    -0.49981791563042D+00
 CCSD(T)
 CCSD(T)= -0.49981791563D+00

 The electronic state is 2-A1G.
 Alpha  occ. eigenvalues --   -0.49982
 Alpha virt. eigenvalues --    0.07918   0.49585   1.49058   1.49058   1.49058
 Alpha virt. eigenvalues --    2.61805
  Beta virt. eigenvalues --    0.02078   0.14916   0.61470   1.62179   1.62179

 Mulliken charges and spin densities:
               1          2
     1  H   -0.000000   1.000000
 Sum of Mulliken charges =  -0.00000   1.00000

 Dipole moment (field-independent basis, Debye):
    X=              0.0000    Y=              0.0000    Z=              0.0000  Tot=              0.0000
 Quadrupole moment (field-independent basis, Debye-Ang):
   XX=             -1.3479   YY=             -1.3479   ZZ=             -1.3479
   XY=              0.0000   XZ=              0.0000   YZ=              0.0000

 \CCSD=-0.4998179\CCSD(T)=-0.4998179\S2=0.75\S2-1=0.\S2A=0.75\RMSD=1.60
 Normal termination of Gaussian 09 at Tue Oct 10 17:25:11 2017.
