 Gaussian 09, Revision E.01,
 Gaussian 09:  ES64L-G09RevE.01 30-Nov-2015

 -----------------------------------
 #p ccsd(t,maxcyc=200)/6-311++G(d,p)
 -----------------------------------

 -------------
 ccsd(t) iener
 -------------
 Symbolic Z-matrix:
 Charge =  1 Multiplicity = 2

                         Standard orientation:
 ---------------------------------------------------------------------
 Center     Atomic      Atomic             Coordinates (Angstroms)
 Number     Number       Type             X           Y           Z
 ---------------------------------------------------------------------
      1          1           0        0.000000    0.000000    0.554306
      2          1           0        0.000000    0.000000   -0.554306
 ---------------------------------------------------------------------

 SCF Done:  E(UHF) = -0.600557199343     A.U. after    6 cycles
 E2 =     0.0000000000D+00 EUMP2 =    -0.60055719934280D+00
 CCSD(T)
 CCSD(T)= -0.60055719934D+00

 The electronic state is 2-SGG.
 Alpha  occ. eigenvalues --   -1.07789
 Alpha virt. eigenvalues --   -0.29515  -0.12439  -0.06143   0.16252   0.25855
 Alpha virt. eigenvalues --    0.81006   0.81006   1.02318   1.33846   1.33846
 Alpha virt. eigenvalues --    2.00498   2.28094   2.37147

 Mulliken charges and spin densities:
               1          2
     1  H    0.500000   0.500000
     2  H    0.500000   0.500000
 Sum of Mulliken charges =   1.00000   1.00000

 Dipole moment (field-independent basis, Debye):
    X=              0.0000    Y=             -0.0000    Z=             -0.0000  Tot=              0.0000
 Quadrupole moment (field-independent basis, Debye-Ang):
   XX=             -0.8699   YY=             -0.8699   ZZ=              1.2542
   XY=             -0.0000   XZ=             -0.0000   YZ=              0.0000

 =-0.6005572\MP4SDQ=-0.6005572\CCSD=-0.6005572\CCSD(T)=-0.6005572\S2=0.
 Normal termination of Gaussian 09 at Tue Oct 10 06:41:18 2017.
