 Gaussian 09, Revision E.01,
 Gaussian 09:  ES64L-G09RevE.01 30-Nov-2015

 -----------------------------------
 #p ccsd(t,maxcyc=200)/6-311++G(d,p)
 -----------------------------------

 -------------
 ccsd(t) iener
 -------------
 Symbolic Z-matrix:
 Charge =  0 Multiplicity = 1

                         Standard orientation:
 ---------------------------------------------------------------------
 Center     Atomic      Atomic             Coordinates (Angstroms)
 Number     Number       Type             X           Y           Z
 ---------------------------------------------------------------------
      1          1           0        0.000000    0.000000    0.372033
      2          1           0        0.000000    0.000000   -0.372033
 ---------------------------------------------------------------------

 SCF Done:  E(RHF) =  -1.13245435931     A.U. after    6 cycles
 E2 =    -0.2782370905D-01 EUMP2 =    -0.11602780683646D+01
 CCSD(T)
 CCSD(T)= -0.11683758157D+01

 The electronic state is 1-SGG.
 Alpha  occ. eigenvalues --   -0.59340
 Alpha virt. eigenvalues --    0.07125   0.07328   0.24086   0.45582   0.73074
 Alpha virt. eigenvalues --    1.33217   1.33217   1.87577   2.09587   2.09587
 Alpha virt. eigenvalues --    2.31223   2.82075   3.66325

 Mulliken charges:
               1
     1  H   -0.000000
     2  H   -0.000000
 Sum of Mulliken charges =  -0.00000

 Dipole moment (field-independent basis, Debye):
    X=             -0.0000    Y=              0.0000    Z=              0.0000  Tot=              0.0000
 Quadrupole moment (field-independent basis, Debye-Ang):
   XX=             -2.0804   YY=             -2.0804   ZZ=             -1.4872
   XY=             -0.0000   XZ=             -0.0000   YZ=              0.0000

 76849\MP4SDQ=-1.1677702\CCSD=-1.1683758\CCSD(T)=-1.1683758\RMSD=2.487e
 Normal termination of Gaussian 09 at Tue Oct 10 06:40:54 2017.
