 Gaussian 09, Revision E.01,
 Gaussian 09:  ES64L-G09RevE.01 30-Nov-2015

 -----------------------------------
 #p ccsd(t,maxcyc=200)/6-311++G(d,p)
 -----------------------------------

 -------------
 ccsd(t) iener
 -------------
 Symbolic Z-matrix:
 Charge =  1 Multiplicity = 4

                         Standard orientation:
 ---------------------------------------------------------------------
 Center     Atomic      Atomic             Coordinates (Angstroms)
 Number     Number       Type             X           Y           Z
 ---------------------------------------------------------------------
      1          6           0        0.000000    0.000000    0.230261
      2          1           0        0.000000    0.775616   -0.690782
      3          1           0       -0.000000   -0.775616   -0.690782
 ---------------------------------------------------------------------

 SCF Done:  E(UHF) =  -38.4553843858     A.U. after   12 cycles
 E2 =    -0.7062378440D-01 EUMP2 =    -0.38526008170203D+02
 CCSD(T)
 CCSD(T)= -0.38544927766D+02

 The electronic state is 4-A2.
 Alpha  occ. eigenvalues --  -11.71427  -1.36900  -0.94910  -0.92499  -0.81607
 Alpha virt. eigenvalues --   -0.15165  -0.12449  -0.07111  -0.06492  -0.06405
 Alpha virt. eigenvalues --   -0.01117   0.00236   0.00721   0.22538   0.33387
 Alpha virt. eigenvalues --    0.37867   0.41102   0.47030   0.58542   0.73755

  Beta  occ. eigenvalues --  -11.64386  -1.08622
  Beta virt. eigenvalues --   -0.37724  -0.26044  -0.18620  -0.13396  -0.07253
  Beta virt. eigenvalues --   -0.03656  -0.03306  -0.01681   0.00613   0.04677
  Beta virt. eigenvalues --    0.07689   0.28358   0.40230   0.50791   0.51138

 Mulliken charges and spin densities:
               1          2
     1  C    0.251509   2.457327
     2  H    0.374245   0.271336
     3  H    0.374245   0.271336
 Sum of Mulliken charges =   1.00000   3.00000

 Dipole moment (field-independent basis, Debye):
    X=             -0.0000    Y=              0.0000    Z=             -1.7890  Tot=              1.7890
 Quadrupole moment (field-independent basis, Debye-Ang):
   XX=             -6.2202   YY=             -2.7958   ZZ=             -3.2472
   XY=              0.0000   XZ=              0.0000   YZ=             -0.0000

 7\CCSD=-38.5432278\CCSD(T)=-38.5449278\S2=3.752704\S2-1=3.749971\S2A=3
 Normal termination of Gaussian 09 at Tue Oct 10 06:39:46 2017.
