 Gaussian 09, Revision E.01,
 Gaussian 09:  ES64L-G09RevE.01 30-Nov-2015

 -----------------------------------
 #p ccsd(t,maxcyc=200)/6-311++G(d,p)
 -----------------------------------

 -------------
 ccsd(t) iener
 -------------
 Symbolic Z-matrix:
 Charge =  0 Multiplicity = 1

                         Standard orientation:
 ---------------------------------------------------------------------
 Center     Atomic      Atomic             Coordinates (Angstroms)
 Number     Number       Type             X           Y           Z
 ---------------------------------------------------------------------
      1          6           0        0.000000   -0.000000    0.176197
      2          1           0       -0.000000    0.862374   -0.528591
      3          1           0       -0.000000   -0.862374   -0.528591
 ---------------------------------------------------------------------

 SCF Done:  E(RHF) =  -38.8886877709     A.U. after   10 cycles
 E2 =    -0.1179071209D+00 EUMP2 =    -0.39006594891730D+02
 CCSD(T)
 CCSD(T)= -0.39036717699D+02

 The electronic state is 1-A1.
 Alpha  occ. eigenvalues --  -11.29523  -0.89346  -0.56400  -0.39594
 Alpha virt. eigenvalues --    0.02757   0.04264   0.07275   0.13299   0.16073
 Alpha virt. eigenvalues --    0.16321   0.18361   0.27480   0.29111   0.54601
 Alpha virt. eigenvalues --    0.63802   0.74756   0.79024   0.84419   0.93576

 Mulliken charges:
               1
     1  C   -0.137880
     2  H    0.068940
     3  H    0.068940
 Sum of Mulliken charges =   0.00000

 Dipole moment (field-independent basis, Debye):
    X=             -0.0000    Y=             -0.0000    Z=             -2.1130  Tot=              2.1130
 Quadrupole moment (field-independent basis, Debye-Ang):
   XX=             -6.3493   YY=             -7.2622   ZZ=             -9.8045
   XY=              0.0000   XZ=              0.0000   YZ=              0.0000

 Q=-39.0305787\CCSD=-39.0332133\CCSD(T)=-39.0367177\RMSD=3.254e-09\PG=C
 Normal termination of Gaussian 09 at Tue Oct 10 06:39:18 2017.
