 Gaussian 09, Revision E.01,
 Gaussian 09:  ES64L-G09RevE.01 30-Nov-2015

 -----------------------------------
 #p ccsd(t,maxcyc=200)/6-311++G(d,p)
 -----------------------------------

 -------------
 ccsd(t) iener
 -------------
 Symbolic Z-matrix:
 Charge =  0 Multiplicity = 3

                         Standard orientation:
 ---------------------------------------------------------------------
 Center     Atomic      Atomic             Coordinates (Angstroms)
 Number     Number       Type             X           Y           Z
 ---------------------------------------------------------------------
      1          6           0       -0.000000    0.000000    0.308905
      2          1           0        0.000000    0.453692   -0.926715
      3          1           0       -0.000000   -0.453692   -0.926715
 ---------------------------------------------------------------------

 SCF Done:  E(UHF) =  -38.8001545001     A.U. after   14 cycles
 E2 =    -0.1082066658D+00 EUMP2 =    -0.38908361165853D+02
 CCSD(T)
 CCSD(T)= -0.38935964058D+02

 The electronic state is 3-A2.
 Alpha  occ. eigenvalues --  -11.30500  -0.98717  -0.53125  -0.44174  -0.41741
 Alpha virt. eigenvalues --    0.03450   0.07351   0.12478   0.12781   0.14888
 Alpha virt. eigenvalues --    0.17213   0.19303   0.22583   0.47449   0.56033
 Alpha virt. eigenvalues --    0.68892   0.73566   0.76555   0.89135   1.12729

  Beta  occ. eigenvalues --  -11.26661  -0.82905  -0.44031
  Beta virt. eigenvalues --    0.02391   0.03966   0.07179   0.10356   0.13452
  Beta virt. eigenvalues --    0.16433   0.18276   0.21646   0.21869   0.31057
  Beta virt. eigenvalues --    0.50277   0.60092   0.75497   0.81611   0.86309

 Mulliken charges and spin densities:
               1          2
     1  C   -0.247473   1.795843
     2  H    0.123737   0.102079
     3  H    0.123737   0.102079
 Sum of Mulliken charges =  -0.00000   2.00000

 Dipole moment (field-independent basis, Debye):
    X=             -0.0000    Y=             -0.0000    Z=             -2.6650  Tot=              2.6650
 Quadrupole moment (field-independent basis, Debye-Ang):
   XX=             -8.9037   YY=             -7.8856   ZZ=             -7.4664
   XY=              0.0000   XZ=              0.0000   YZ=             -0.0000

 SD=-38.9322589\CCSD(T)=-38.9359641\S2=2.021962\S2-1=2.011007\S2A=2.000
 Normal termination of Gaussian 09 at Tue Oct 10 06:39:39 2017.
