 Gaussian 09, Revision E.01,
 Gaussian 09:  ES64L-G09RevE.01 30-Nov-2015

 -----------------------------------
 #p ccsd(t,maxcyc=200)/6-311++G(d,p)
 -----------------------------------

 -------------
 ccsd(t) iener
 -------------
 Symbolic Z-matrix:
 Charge =  0 Multiplicity = 3

                         Standard orientation:
 ---------------------------------------------------------------------
 Center     Atomic      Atomic             Coordinates (Angstroms)
 Number     Number       Type             X           Y           Z
 ---------------------------------------------------------------------
      1          6           0        0.000000    0.000000    0.102509
      2          1           0       -0.000000    0.998946   -0.307526
      3          1           0       -0.000000   -0.998946   -0.307526
 ---------------------------------------------------------------------

 SCF Done:  E(UHF) =  -38.9344822539     A.U. after   12 cycles
 E2 =    -0.9977912314D-01 EUMP2 =    -0.39034261377030D+02
 CCSD(T)
 CCSD(T)= -0.39055939392D+02

 The electronic state is 3-B1.
 Alpha  occ. eigenvalues --  -11.26653  -0.94913  -0.62051  -0.44857  -0.40900
 Alpha virt. eigenvalues --    0.04714   0.06918   0.12105   0.12482   0.16698
 Alpha virt. eigenvalues --    0.17592   0.24930   0.29884   0.56473   0.62023
 Alpha virt. eigenvalues --    0.69226   0.70877   0.86370   0.94018   1.23876

  Beta  occ. eigenvalues --  -11.21859  -0.77656  -0.58945
  Beta virt. eigenvalues --    0.05081   0.06833   0.07040   0.07668   0.17088
  Beta virt. eigenvalues --    0.17850   0.21540   0.22677   0.27421   0.31791
  Beta virt. eigenvalues --    0.59491   0.65472   0.82479   0.82955   0.90137

 Mulliken charges and spin densities:
               1          2
     1  C   -0.226220   2.221648
     2  H    0.113110  -0.110824
     3  H    0.113110  -0.110824
 Sum of Mulliken charges =  -0.00000   2.00000

 Dipole moment (field-independent basis, Debye):
    X=             -0.0000    Y=             -0.0000    Z=             -0.6008  Tot=              0.6008
 Quadrupole moment (field-independent basis, Debye-Ang):
   XX=             -8.2190   YY=             -5.8606   ZZ=             -7.7321
   XY=              0.0000   XZ=              0.0000   YZ=             -0.0000

 \CCSD=-39.0537171\CCSD(T)=-39.0559394\S2=2.01669\S2-1=2.005656\S2A=2.0
 Normal termination of Gaussian 09 at Tue Oct 10 06:39:40 2017.
