 Gaussian 09, Revision E.01,
 Gaussian 09:  ES64L-G09RevE.01 30-Nov-2015

 -----------------------------------
 #p ccsd(t,maxcyc=200)/6-311++G(d,p)
 -----------------------------------

 -------------
 ccsd(t) iener
 -------------
 Symbolic Z-matrix:
 Charge =  1 Multiplicity = 2

                         Standard orientation:
 ---------------------------------------------------------------------
 Center     Atomic      Atomic             Coordinates (Angstroms)
 Number     Number       Type             X           Y           Z
 ---------------------------------------------------------------------
      1          6           0       -0.000000    0.000000    0.090571
      2          1           0       -0.000000    1.037620   -0.271713
      3          1           0       -0.000000   -1.037620   -0.271713
 ---------------------------------------------------------------------

 SCF Done:  E(UHF) =  -38.5776490256     A.U. after   11 cycles
 E2 =    -0.8134124495D-01 EUMP2 =    -0.38658990270586D+02
 CCSD(T)
 CCSD(T)= -0.38681007146D+02

 The electronic state is 2-A1.
 Alpha  occ. eigenvalues --  -11.74025  -1.29274  -1.00867  -0.84289
 Alpha virt. eigenvalues --   -0.31042  -0.13281  -0.09140  -0.06748  -0.05227
 Alpha virt. eigenvalues --   -0.04419  -0.01057   0.00954   0.05773   0.27200
 Alpha virt. eigenvalues --    0.36205   0.38178   0.42111   0.52653   0.61436

  Beta  occ. eigenvalues --  -11.71004  -1.19735  -0.98818
  Beta virt. eigenvalues --   -0.27888  -0.24317  -0.12753  -0.08927  -0.04797
  Beta virt. eigenvalues --   -0.04718  -0.02661  -0.00629   0.01719   0.07134
  Beta virt. eigenvalues --    0.27989   0.38587   0.43633   0.48027   0.54532

 Mulliken charges and spin densities:
               1          2
     1  C    0.452601   1.067123
     2  H    0.273700  -0.033561
     3  H    0.273700  -0.033561
 Sum of Mulliken charges =   1.00000   1.00000

 Dipole moment (field-independent basis, Debye):
    X=             -0.0000    Y=             -0.0000    Z=             -0.4990  Tot=              0.4990
 Quadrupole moment (field-independent basis, Debye-Ang):
   XX=             -4.3304   YY=             -2.2580   ZZ=             -5.5726
   XY=              0.0000   XZ=              0.0000   YZ=              0.0000

 CCSD=-38.6794583\CCSD(T)=-38.6810071\S2=0.755446\S2-1=0.750972\S2A=0.7
 Normal termination of Gaussian 09 at Tue Oct 10 06:39:45 2017.
