 Gaussian 09, Revision E.01,
 Gaussian 09:  ES64L-G09RevE.01 30-Nov-2015

 -----------------------------------
 #p ccsd(t,maxcyc=200)/6-311++G(d,p)
 -----------------------------------

 -------------
 ccsd(t) iener
 -------------
 Symbolic Z-matrix:
 Charge =  1 Multiplicity = 4

                         Standard orientation:
 ---------------------------------------------------------------------
 Center     Atomic      Atomic             Coordinates (Angstroms)
 Number     Number       Type             X           Y           Z
 ---------------------------------------------------------------------
      1          6           0       -0.000000    0.713736   -0.000000
      2          6           0        0.000000   -0.713736   -0.000000
      3          1           0        0.811840    1.445197   -0.000000
      4          1           0       -0.811840   -1.445197   -0.000000
 ---------------------------------------------------------------------

 SCF Done:  E(UHF) =  -76.4049163573     A.U. after   11 cycles
 E2 =    -0.1666074812D+00 EUMP2 =    -0.76571523838501D+02
 CCSD(T)
 CCSD(T)= -0.76606795863D+02

 The electronic state is 4-BG.
 Alpha  occ. eigenvalues --  -11.65624 -11.65498  -1.40775  -1.12592  -0.94327
 Alpha  occ. eigenvalues --   -0.91030  -0.76929  -0.70268
 Alpha virt. eigenvalues --   -0.22777  -0.10930  -0.09118  -0.06235  -0.05798
 Alpha virt. eigenvalues --   -0.03100  -0.01380   0.00063   0.01190   0.02432
 Alpha virt. eigenvalues --    0.04093   0.05317   0.09194   0.17365   0.34467

  Beta  occ. eigenvalues --  -11.61641 -11.61565  -1.22798  -1.03119  -0.90325
  Beta virt. eigenvalues --   -0.27664  -0.26159  -0.12236  -0.09384  -0.08511
  Beta virt. eigenvalues --   -0.08478  -0.03777  -0.03766  -0.02401   0.01380
  Beta virt. eigenvalues --    0.03655   0.03739   0.03753   0.05450   0.06683

 Mulliken charges and spin densities:
               1          2
     1  C    0.250189   1.541173
     2  C    0.250189   1.541173
     3  H    0.249811  -0.041173
     4  H    0.249811  -0.041173
 Sum of Mulliken charges =   1.00000   3.00000

 Dipole moment (field-independent basis, Debye):
    X=              0.0000    Y=             -0.0000    Z=             -0.0000  Tot=              0.0000
 Quadrupole moment (field-independent basis, Debye-Ang):
   XX=             -9.1455   YY=             -4.7511   ZZ=            -10.0048
   XY=              3.0217   XZ=              0.0000   YZ=              0.0000

 76.6015411\CCSD(T)=-76.6067959\S2=3.76001\S2-1=3.752598\S2A=3.750028\R
 Normal termination of Gaussian 09 at Tue Oct 10 01:54:53 2017.
