 Gaussian 09, Revision E.01,
 Gaussian 09:  ES64L-G09RevE.01 30-Nov-2015

 -----------------------------------
 #p ccsd(t,maxcyc=200)/6-311++G(d,p)
 -----------------------------------

 -------------
 ccsd(t) iener
 -------------
 Symbolic Z-matrix:
 Charge =  1 Multiplicity = 2

                         Standard orientation:
 ---------------------------------------------------------------------
 Center     Atomic      Atomic             Coordinates (Angstroms)
 Number     Number       Type             X           Y           Z
 ---------------------------------------------------------------------
      1          6           0        0.000000    0.000000    0.622853
      2          6           0        0.000000    0.000000   -0.622853
      3          1           0        0.000000    0.000000    1.703249
      4          1           0        0.000000    0.000000   -1.703249
 ---------------------------------------------------------------------

 SCF Done:  E(UHF) =  -76.4804941638     A.U. after   11 cycles
 E2 =    -0.2172123708D+00 EUMP2 =    -0.76697706534633D+02
 CCSD(T)
 CCSD(T)= -0.76732079494D+02

 Unable to determine electronic state:  an orbital has unidentified symmetry.
 Alpha  occ. eigenvalues --  -11.63721 -11.63404  -1.41878  -1.09447  -1.00719
 Alpha  occ. eigenvalues --   -0.80515  -0.75758
 Alpha virt. eigenvalues --   -0.16943  -0.14167  -0.10775  -0.09484  -0.05978
 Alpha virt. eigenvalues --   -0.05214  -0.05118  -0.00735   0.00584   0.01447
 Alpha virt. eigenvalues --    0.02780   0.04227   0.12776   0.16891   0.33290

  Beta  occ. eigenvalues --  -11.62647 -11.62384  -1.33117  -1.07191  -1.00025
  Beta  occ. eigenvalues --   -0.73659
  Beta virt. eigenvalues --   -0.31225  -0.13178  -0.10578  -0.09189  -0.08468
  Beta virt. eigenvalues --   -0.05117  -0.04624  -0.04331   0.00056   0.01772
  Beta virt. eigenvalues --    0.02976   0.04107   0.04332   0.13766   0.17268

 Mulliken charges and spin densities:
               1          2
     1  C    0.122828   0.534475
     2  C    0.122828   0.534475
     3  H    0.377172  -0.034475
     4  H    0.377172  -0.034475
 Sum of Mulliken charges =   1.00000   1.00000

 Dipole moment (field-independent basis, Debye):
    X=              0.0000    Y=              0.0000    Z=             -0.0000  Tot=              0.0000
 Quadrupole moment (field-independent basis, Debye-Ang):
   XX=             -9.7228   YY=            -11.6172   ZZ=             -0.4570
   XY=             -0.0000   XZ=             -0.0000   YZ=             -0.0000

 Normal termination of Gaussian 09 at Tue Oct 10 01:53:27 2017.
