 Gaussian 09, Revision E.01,
 Gaussian 09:  ES64L-G09RevE.01 30-Nov-2015

 -----------------------------------
 #p ccsd(t,maxcyc=200)/6-311++G(d,p)
 -----------------------------------

 -------------
 ccsd(t) iener
 -------------
 Symbolic Z-matrix:
 Charge =  1 Multiplicity = 4

                         Standard orientation:
 ---------------------------------------------------------------------
 Center     Atomic      Atomic             Coordinates (Angstroms)
 Number     Number       Type             X           Y           Z
 ---------------------------------------------------------------------
      1          6           0        1.342503    0.026945    0.000000
      2          6           0        0.000000    0.480681   -0.000000
      3          1           0        1.792536   -0.969020    0.000000
      4          1           0       -1.155378   -1.107967    0.000000
      5          8           0       -1.086522   -0.121096   -0.000000
 ---------------------------------------------------------------------

 SCF Done:  E(UHF) =  -151.341947436     A.U. after   16 cycles
 E2 =    -0.3761910598D+00 EUMP2 =    -0.15171813849610D+03
 CCSD(T)
 CCSD(T)= -0.15175962813D+03

 The electronic state is 4-A".
 Alpha  occ. eigenvalues --  -20.94320 -11.69987 -11.60074  -1.79143  -1.37113
 Alpha  occ. eigenvalues --   -1.18835  -1.00628  -0.98448  -0.94031  -0.78589
 Alpha  occ. eigenvalues --   -0.72475  -0.71972
 Alpha virt. eigenvalues --   -0.15702  -0.12329  -0.08164  -0.06523  -0.05282
 Alpha virt. eigenvalues --   -0.02667  -0.01993  -0.00790   0.00228   0.03258
 Alpha virt. eigenvalues --    0.04480   0.05901   0.08753   0.10956   0.13146

  Beta  occ. eigenvalues --  -20.93294 -11.66823 -11.55213  -1.75853  -1.21775
  Beta  occ. eigenvalues --   -1.12322  -0.93701  -0.89503  -0.87519
  Beta virt. eigenvalues --   -0.23206  -0.21465  -0.15200  -0.09231  -0.07293
  Beta virt. eigenvalues --   -0.05136  -0.05038  -0.02985  -0.01713  -0.00431
  Beta virt. eigenvalues --    0.00699   0.04489   0.04794   0.05423   0.07412

 Mulliken charges and spin densities:
               1          2
     1  C    0.071292   1.952114
     2  C    0.390617   0.954040
     3  H    0.221915  -0.036893
     4  H    0.379712   0.048005
     5  O   -0.063536   0.082733
 Sum of Mulliken charges =   1.00000   3.00000

 Dipole moment (field-independent basis, Debye):
    X=              1.3637    Y=             -2.2707    Z=              0.0000  Tot=              2.6487
 Quadrupole moment (field-independent basis, Debye-Ang):
   XX=            -10.1928   YY=            -10.9656   ZZ=            -15.3479
   XY=              1.0389   XZ=             -0.0000   YZ=             -0.0000

 \PMP3-0=-151.734819\MP4SDQ=-151.7438211\CCSD=-151.7447297\CCSD(T)=-151
 Normal termination of Gaussian 09 at Tue Oct 10 01:49:30 2017.
