 Gaussian 09, Revision E.01,
 Gaussian 09:  ES64L-G09RevE.01 30-Nov-2015

 -----------------------------------
 #p ccsd(t,maxcyc=200)/6-311++G(d,p)
 -----------------------------------

 -------------
 ccsd(t) iener
 -------------
 Symbolic Z-matrix:
 Charge =  0 Multiplicity = 1

                         Standard orientation:
 ---------------------------------------------------------------------
 Center     Atomic      Atomic             Coordinates (Angstroms)
 Number     Number       Type             X           Y           Z
 ---------------------------------------------------------------------
      1          6           0        1.321745    0.014236   -0.000029
      2          6           0        0.122432   -0.005332    0.000025
      3          1           0        2.382173    0.039718    0.000067
      4          1           0       -1.590762    0.767538   -0.000005
      5          8           0       -1.182059   -0.107585   -0.000005
 ---------------------------------------------------------------------

 SCF Done:  E(RHF) =  -151.712939634     A.U. after   13 cycles
 E2 =    -0.4671817158D+00 EUMP2 =    -0.15218012134994D+03
 CCSD(T)
 CCSD(T)= -0.15221220217D+03

 The electronic state is 1-A.
 Alpha  occ. eigenvalues --  -20.64014 -11.30152 -11.22560  -1.45538  -1.02754
 Alpha  occ. eigenvalues --   -0.82770  -0.70962  -0.66651  -0.62444  -0.39809
 Alpha  occ. eigenvalues --   -0.38042
 Alpha virt. eigenvalues --    0.03566   0.04917   0.10577   0.12508   0.12791
 Alpha virt. eigenvalues --    0.13590   0.13704   0.17225   0.19078   0.21738
 Alpha virt. eigenvalues --    0.22775   0.26583   0.28295   0.32008   0.34077

 Mulliken charges:
               1
     1  C   -0.057400
     2  C   -0.049814
     3  H    0.209110
     4  H    0.307552
     5  O   -0.409447
 Sum of Mulliken charges =  -0.00000

 Dipole moment (field-independent basis, Debye):
    X=             -0.4871    Y=              1.7265    Z=              0.0002  Tot=              1.7939
 Quadrupole moment (field-independent basis, Debye-Ang):
   XX=            -12.4165   YY=            -17.3619   ZZ=            -19.1480
   XY=             -3.1427   XZ=              0.0003   YZ=             -0.0000

 P4SDQ=-152.1927997\CCSD=-152.1923932\CCSD(T)=-152.2122022\RMSD=8.763e-
 Normal termination of Gaussian 09 at Tue Oct 10 01:43:27 2017.
