 Gaussian 09, Revision E.01,
 Gaussian 09:  ES64L-G09RevE.01 30-Nov-2015

 -----------------------------------
 #p ccsd(t,maxcyc=200)/6-311++G(d,p)
 -----------------------------------

 -------------
 ccsd(t) iener
 -------------
 Symbolic Z-matrix:
 Charge =  1 Multiplicity = 4

                         Standard orientation:
 ---------------------------------------------------------------------
 Center     Atomic      Atomic             Coordinates (Angstroms)
 Number     Number       Type             X           Y           Z
 ---------------------------------------------------------------------
      1          6           0        0.000000    0.000000   -0.525021
      2          6           0       -0.000000   -0.000000    0.880416
      3          1           0       -0.000000    0.952959   -1.066184
      4          1           0       -0.000000   -0.952959   -1.066184
 ---------------------------------------------------------------------

 SCF Done:  E(UHF) =  -76.4118806583     A.U. after   14 cycles
 E2 =    -0.1678895085D+00 EUMP2 =    -0.76579770166849D+02
 CCSD(T)
 CCSD(T)= -0.76615144690D+02

 The electronic state is 4-A2.
 Alpha  occ. eigenvalues --  -11.66247 -11.65151  -1.41463  -1.11552  -0.96822
 Alpha  occ. eigenvalues --   -0.89586  -0.77840  -0.73044
 Alpha virt. eigenvalues --   -0.22471  -0.11205  -0.08059  -0.07031  -0.05826
 Alpha virt. eigenvalues --   -0.02774  -0.01530  -0.00371   0.00111   0.04022
 Alpha virt. eigenvalues --    0.04430   0.05180   0.10684   0.17259   0.33992

  Beta  occ. eigenvalues --  -11.64209 -11.58867  -1.27417  -0.97590  -0.91881
  Beta virt. eigenvalues --   -0.28633  -0.23983  -0.13187  -0.10215  -0.07715
  Beta virt. eigenvalues --   -0.07234  -0.05243  -0.04018  -0.01843   0.00756
  Beta virt. eigenvalues --    0.01599   0.04286   0.04566   0.05315   0.06880

 Mulliken charges and spin densities:
               1          2
     1  C    0.025997   0.523898
     2  C    0.489340   2.438084
     3  H    0.242332   0.019009
     4  H    0.242332   0.019009
 Sum of Mulliken charges =   1.00000   3.00000

 Dipole moment (field-independent basis, Debye):
    X=             -0.0000    Y=              0.0000    Z=             -0.8068  Tot=              0.8068
 Quadrupole moment (field-independent basis, Debye-Ang):
   XX=             -9.8686   YY=             -8.8041   ZZ=             -5.7298
   XY=              0.0000   XZ=              0.0000   YZ=             -0.0000

 606967\CCSD=-76.6092726\CCSD(T)=-76.6151447\S2=3.753035\S2-1=3.750287\
 Normal termination of Gaussian 09 at Tue Oct 10 01:55:15 2017.
