 Gaussian 09, Revision E.01,
 Gaussian 09:  ES64L-G09RevE.01 30-Nov-2015

 -----------------------------------
 #p ccsd(t,maxcyc=200)/6-311++G(d,p)
 -----------------------------------

 -------------
 ccsd(t) iener
 -------------
 Symbolic Z-matrix:
 Charge =  0 Multiplicity = 1

                         Standard orientation:
 ---------------------------------------------------------------------
 Center     Atomic      Atomic             Coordinates (Angstroms)
 Number     Number       Type             X           Y           Z
 ---------------------------------------------------------------------
      1          6           0       -0.000000   -0.000000    0.599734
      2          6           0        0.000000    0.000000   -0.599734
      3          1           0        0.000000    0.000000   -1.662782
      4          1           0       -0.000000   -0.000000    1.662782
 ---------------------------------------------------------------------

 SCF Done:  E(RHF) =  -76.8421354084     A.U. after    9 cycles
 E2 =    -0.2706478767D+00 EUMP2 =    -0.77112783285133D+02
 CCSD(T)
 CCSD(T)= -0.77140741933D+02

 The electronic state is 1-SG.
 Alpha  occ. eigenvalues --  -11.24387 -11.23998  -1.03410  -0.76763  -0.68288
 Alpha  occ. eigenvalues --   -0.41245  -0.41245
 Alpha virt. eigenvalues --    0.04214   0.04748   0.11380   0.11380   0.12682
 Alpha virt. eigenvalues --    0.12682   0.15040   0.16832   0.18800   0.21734
 Alpha virt. eigenvalues --    0.24895   0.24895   0.35601   0.38352   0.57589

 Mulliken charges:
               1
     1  C   -0.221695
     2  C   -0.221695
     3  H    0.221695
     4  H    0.221695
 Sum of Mulliken charges =   0.00000

 Dipole moment (field-independent basis, Debye):
    X=              0.0000    Y=              0.0000    Z=             -0.0000  Tot=              0.0000
 Quadrupole moment (field-independent basis, Debye-Ang):
   XX=            -14.0522   YY=            -14.0522   ZZ=             -6.7108
   XY=              0.0000   XZ=              0.0000   YZ=              0.0000

 Q=-77.127157\CCSD=-77.1276176\CCSD(T)=-77.1407419\RMSD=5.436e-09\PG=C*
 Normal termination of Gaussian 09 at Tue Oct 10 01:51:51 2017.
