 Gaussian 09, Revision E.01,
 Gaussian 09:  ES64L-G09RevE.01 30-Nov-2015

 -----------------------------------
 #p ccsd(t,maxcyc=200)/6-311++G(d,p)
 -----------------------------------

 -------------
 ccsd(t) iener
 -------------
 Symbolic Z-matrix:
 Charge =  1 Multiplicity = 4

                         Standard orientation:
 ---------------------------------------------------------------------
 Center     Atomic      Atomic             Coordinates (Angstroms)
 Number     Number       Type             X           Y           Z
 ---------------------------------------------------------------------
      1          6           0        1.089024   -0.325968    0.000000
      2          6           0       -0.000000    0.518147    0.000000
      3          1           0        2.103321    0.096019    0.000000
      4          1           0        0.989376   -1.422229    0.000000
      5          8           0       -1.203355    0.021642    0.000000
 ---------------------------------------------------------------------

 SCF Done:  E(UHF) =  -151.325404171     A.U. after   19 cycles
 E2 =    -0.3571189545D+00 EUMP2 =    -0.15168252312558D+03
 CCSD(T)
 CCSD(T)= -0.15173617503D+03

 The electronic state is 4-A".
 Alpha  occ. eigenvalues --  -21.00559 -11.69908 -11.59393  -1.81196  -1.38553
 Alpha  occ. eigenvalues --   -1.11749  -1.06632  -0.98759  -0.97440  -0.89454
 Alpha  occ. eigenvalues --   -0.78245  -0.72681
 Alpha virt. eigenvalues --   -0.17623  -0.10491  -0.07777  -0.07004  -0.05655
 Alpha virt. eigenvalues --   -0.03338  -0.02611  -0.00106  -0.00044   0.04115
 Alpha virt. eigenvalues --    0.04752   0.05909   0.07336   0.10900   0.11641

  Beta  occ. eigenvalues --  -20.95083 -11.66610 -11.57796  -1.63130  -1.26703
  Beta  occ. eigenvalues --   -1.02122  -0.93044  -0.87979  -0.83103
  Beta virt. eigenvalues --   -0.29618  -0.26239  -0.14114  -0.08156  -0.07363
  Beta virt. eigenvalues --   -0.06590  -0.05924  -0.04073  -0.01993  -0.01698
  Beta virt. eigenvalues --    0.01309   0.03199   0.04466   0.05284   0.08099

 Mulliken charges and spin densities:
               1          2
     1  C   -0.133498   0.814259
     2  C    0.388972   1.035264
     3  H    0.260505  -0.028695
     4  H    0.267758  -0.005510
     5  O    0.216263   1.184682
 Sum of Mulliken charges =   1.00000   3.00000

 Dipole moment (field-independent basis, Debye):
    X=              2.8314    Y=             -0.0375    Z=              0.0000  Tot=              2.8317
 Quadrupole moment (field-independent basis, Debye-Ang):
   XX=             -9.0406   YY=            -12.0736   ZZ=            -15.3913
   XY=             -1.9972   XZ=              0.0000   YZ=             -0.0000

 PMP3-0=-151.7115176\MP4SDQ=-151.7180001\CCSD=-151.7213448\CCSD(T)=-151
 Normal termination of Gaussian 09 at Tue Oct 10 01:48:34 2017.
