 Gaussian 09, Revision E.01,
 Gaussian 09:  ES64L-G09RevE.01 30-Nov-2015

 -----------------------------------
 #p ccsd(t,maxcyc=200)/6-311++G(d,p)
 -----------------------------------

 -------------
 ccsd(t) iener
 -------------
 Symbolic Z-matrix:
 Charge =  0 Multiplicity = 3

                         Standard orientation:
 ---------------------------------------------------------------------
 Center     Atomic      Atomic             Coordinates (Angstroms)
 Number     Number       Type             X           Y           Z
 ---------------------------------------------------------------------
      1          6           0        1.075392   -0.496651   -0.000000
      2          6           0        0.000000    0.454422   -0.000000
      3          1           0        2.101620   -0.155554   -0.000000
      4          1           0        0.866861   -1.566145    0.000000
      5          8           0       -1.177604    0.246884    0.000000
 ---------------------------------------------------------------------

 SCF Done:  E(UHF) =  -151.716851506     A.U. after   18 cycles
 E2 =    -0.4276295371D+00 EUMP2 =    -0.15214448104300D+03
 CCSD(T)
 CCSD(T)= -0.15218595189D+03

 The electronic state is 3-A".
 Alpha  occ. eigenvalues --  -20.61594 -11.34133 -11.30176  -1.46040  -1.06554
 Alpha  occ. eigenvalues --   -0.78979  -0.69642  -0.68169  -0.62573  -0.59510
 Alpha  occ. eigenvalues --   -0.44133  -0.38257
 Alpha virt. eigenvalues --    0.04243   0.05978   0.09527   0.10939   0.11825
 Alpha virt. eigenvalues --    0.13102   0.13774   0.16767   0.19290   0.19667
 Alpha virt. eigenvalues --    0.20730   0.24762   0.29041   0.32417   0.32808

  Beta  occ. eigenvalues --  -20.58789 -11.32768 -11.27620  -1.39605  -0.95931
  Beta  occ. eigenvalues --   -0.73345  -0.64042  -0.62694  -0.52010  -0.49507
  Beta virt. eigenvalues --    0.02287   0.03743   0.06074   0.08227   0.11771
  Beta virt. eigenvalues --    0.13197   0.13669   0.13746   0.14476   0.18843
  Beta virt. eigenvalues --    0.19999   0.22097   0.25881   0.26720   0.29755

 Mulliken charges and spin densities:
               1          2
     1  C   -0.196207   1.179643
     2  C    0.152624   0.413345
     3  H    0.137185  -0.102120
     4  H    0.145783  -0.036131
     5  O   -0.239385   0.545264
 Sum of Mulliken charges =  -0.00000   2.00000

 Dipole moment (field-independent basis, Debye):
    X=              2.9334    Y=             -1.1614    Z=             -0.0000  Tot=              3.1550
 Quadrupole moment (field-independent basis, Debye-Ang):
   XX=            -18.2722   YY=            -17.2679   ZZ=            -17.6742
   XY=             -0.1451   XZ=              0.0000   YZ=              0.0000

 152.1584823\MP4SDQ=-152.1679797\CCSD=-152.1679104\CCSD(T)=-152.1859519
 Normal termination of Gaussian 09 at Tue Oct 10 01:45:05 2017.
