 Gaussian 09, Revision E.01,
 Gaussian 09:  ES64L-G09RevE.01 30-Nov-2015

 -----------------------------------
 #p ccsd(t,maxcyc=200)/6-311++G(d,p)
 -----------------------------------

 -------------
 ccsd(t) iener
 -------------
 Symbolic Z-matrix:
 Charge =  0 Multiplicity = 1

                         Standard orientation:
 ---------------------------------------------------------------------
 Center     Atomic      Atomic             Coordinates (Angstroms)
 Number     Number       Type             X           Y           Z
 ---------------------------------------------------------------------
      1          6           0        0.000000   -0.000000    0.818856
      2          6           0       -0.000000    0.000000   -0.476183
      3          1           0       -0.000000    0.938618   -1.028017
      4          1           0       -0.000000   -0.938618   -1.028017
 ---------------------------------------------------------------------

 SCF Done:  E(RHF) =  -76.7864821925     A.U. after   11 cycles
 E2 =    -0.2451351541D+00 EUMP2 =    -0.77031617346576D+02
 CCSD(T)
 CCSD(T)= -0.77071853157D+02

 The electronic state is 1-A1.
 Alpha  occ. eigenvalues --  -11.30251 -11.24222  -1.06287  -0.73084  -0.62679
 Alpha  occ. eigenvalues --   -0.46216  -0.41524
 Alpha virt. eigenvalues --    0.04436   0.05379   0.06047   0.10463   0.10707
 Alpha virt. eigenvalues --    0.12760   0.14384   0.17356   0.18528   0.20341
 Alpha virt. eigenvalues --    0.22622   0.22641   0.25663   0.34404   0.48791

 Mulliken charges:
               1
     1  C    0.105106
     2  C   -0.438094
     3  H    0.166494
     4  H    0.166494
 Sum of Mulliken charges =  -0.00000

 Dipole moment (field-independent basis, Debye):
    X=             -0.0000    Y=              0.0000    Z=             -2.3838  Tot=              2.3838
 Quadrupole moment (field-independent basis, Debye-Ang):
   XX=            -14.7576   YY=            -10.4992   ZZ=            -14.6120
   XY=             -0.0000   XZ=             -0.0000   YZ=             -0.0000

 SDQ=-77.0593436\CCSD=-77.0605963\CCSD(T)=-77.0718532\RMSD=9.915e-09\PG
 Normal termination of Gaussian 09 at Tue Oct 10 01:50:56 2017.
