 Gaussian 09, Revision E.01,
 Gaussian 09:  ES64L-G09RevE.01 30-Nov-2015

 -----------------------------------
 #p ccsd(t,maxcyc=200)/6-311++G(d,p)
 -----------------------------------

 -------------
 ccsd(t) iener
 -------------
 Symbolic Z-matrix:
 Charge =  1 Multiplicity = 2

                         Standard orientation:
 ---------------------------------------------------------------------
 Center     Atomic      Atomic             Coordinates (Angstroms)
 Number     Number       Type             X           Y           Z
 ---------------------------------------------------------------------
      1          6           0        1.323995    0.007505    0.000556
      2          6           0        0.084853    0.017126   -0.001139
      3          1           0        2.398270    0.040079    0.000132
      4          1           0       -1.675707    0.718545    0.000562
      5          8           0       -1.146956   -0.113301    0.000350
 ---------------------------------------------------------------------

 SCF Done:  E(UHF) =  -151.390719978     A.U. after   20 cycles
 E2 =    -0.4218990000D+00 EUMP2 =    -0.15181261897755D+03
 CCSD(T)
 CCSD(T)= -0.15185333046D+03

 The electronic state is 2-A.
 Alpha  occ. eigenvalues --  -20.95459 -11.65856 -11.58988  -1.78748  -1.38542
 Alpha  occ. eigenvalues --   -1.15365  -1.01369  -0.96797  -0.95691  -0.73841
 Alpha  occ. eigenvalues --   -0.71427
 Alpha virt. eigenvalues --   -0.12778  -0.09509  -0.08746  -0.08287  -0.05095
 Alpha virt. eigenvalues --   -0.05027  -0.04146  -0.00468  -0.00064   0.00509
 Alpha virt. eigenvalues --    0.03071   0.06026   0.08121   0.11930   0.14580

  Beta  occ. eigenvalues --  -20.94562 -11.66123 -11.56940  -1.76919  -1.30704
  Beta  occ. eigenvalues --   -1.14198  -0.99487  -0.96865  -0.87177  -0.69092
  Beta virt. eigenvalues --   -0.26867  -0.12607  -0.09328  -0.08124  -0.04757
  Beta virt. eigenvalues --   -0.04626  -0.03786  -0.02735   0.00054   0.00685
  Beta virt. eigenvalues --    0.03449   0.05513   0.06139   0.08058   0.12797

 Mulliken charges and spin densities:
               1          2
     1  C    0.332941   0.953734
     2  C    0.110017  -0.043819
     3  H    0.353731  -0.067891
     4  H    0.392780  -0.019901
     5  O   -0.189470   0.177876
 Sum of Mulliken charges =   1.00000   1.00000

 Dipole moment (field-independent basis, Debye):
    X=              1.2506    Y=              1.8631    Z=             -0.0014  Tot=              2.2439
 Quadrupole moment (field-independent basis, Debye-Ang):
   XX=             -1.3703   YY=            -14.9687   ZZ=            -14.9760
   XY=             -3.2955   XZ=              0.0004   YZ=              0.0019

 342549\CCSD=-151.8352962\CCSD(T)=-151.8533305\S2=0.790527\S2-1=0.77560
 Normal termination of Gaussian 09 at Tue Oct 10 01:47:12 2017.
