 Gaussian 09, Revision E.01,
 Gaussian 09:  ES64L-G09RevE.01 30-Nov-2015

 -----------------------------------
 #p ccsd(t,maxcyc=200)/6-311++G(d,p)
 -----------------------------------

 -------------
 ccsd(t) iener
 -------------
 Symbolic Z-matrix:
 Charge =  1 Multiplicity = 2

                         Standard orientation:
 ---------------------------------------------------------------------
 Center     Atomic      Atomic             Coordinates (Angstroms)
 Number     Number       Type             X           Y           Z
 ---------------------------------------------------------------------
      1          6           0        0.024797    0.840152   -0.000000
      2          6           0        0.024797   -0.497359    0.000000
      3          1           0       -0.148781   -1.028379    0.953046
      4          1           0       -0.148781   -1.028379   -0.953046
 ---------------------------------------------------------------------

 SCF Done:  E(UHF) =  -76.4079108272     A.U. after   21 cycles
 E2 =    -0.2095588668D+00 EUMP2 =    -0.76617469694025D+02
 CCSD(T)
 CCSD(T)= -0.76664187604D+02

 The electronic state is 2-A'.
 Alpha  occ. eigenvalues --  -11.71585 -11.60854  -1.39942  -1.06749  -0.92214
 Alpha  occ. eigenvalues --   -0.90123  -0.76258
 Alpha virt. eigenvalues --   -0.26592  -0.17483  -0.11095  -0.08154  -0.07006
 Alpha virt. eigenvalues --   -0.05090  -0.02953  -0.00788   0.00637   0.01025
 Alpha virt. eigenvalues --    0.03086   0.04970   0.05388   0.10512   0.21384

  Beta  occ. eigenvalues --  -11.68010 -11.60830  -1.35058  -1.00880  -0.92350
  Beta  occ. eigenvalues --   -0.72281
  Beta virt. eigenvalues --   -0.31403  -0.22311  -0.12837  -0.10447  -0.08119
  Beta virt. eigenvalues --   -0.06048  -0.05041  -0.02453  -0.00434   0.00906
  Beta virt. eigenvalues --    0.01805   0.03132   0.05041   0.06232   0.10956

 Mulliken charges and spin densities:
               1          2
     1  C    0.651273   0.994396
     2  C   -0.213616  -0.005658
     3  H    0.281171   0.005631
     4  H    0.281171   0.005631
 Sum of Mulliken charges =   1.00000   1.00000

 Dipole moment (field-independent basis, Debye):
    X=              0.3810    Y=             -0.5267    Z=              0.0000  Tot=              0.6500
 Quadrupole moment (field-independent basis, Debye-Ang):
   XX=            -11.4641   YY=             -5.6739   ZZ=             -7.3252
   XY=              1.2005   XZ=             -0.0000   YZ=             -0.0000

 6476733\CCSD=-76.6527872\CCSD(T)=-76.6641876\S2=0.80285\S2-1=0.786782\
 Normal termination of Gaussian 09 at Tue Oct 10 01:54:17 2017.
