 Gaussian 09, Revision E.01,
 Gaussian 09:  ES64L-G09RevE.01 30-Nov-2015

 -----------------------------------
 #p ccsd(t,maxcyc=200)/6-311++G(d,p)
 -----------------------------------

 -------------
 ccsd(t) iener
 -------------
 Symbolic Z-matrix:
 Charge =  0 Multiplicity = 3

                         Standard orientation:
 ---------------------------------------------------------------------
 Center     Atomic      Atomic             Coordinates (Angstroms)
 Number     Number       Type             X           Y           Z
 ---------------------------------------------------------------------
      1          6           0        0.000000    0.664093   -0.121775
      2          6           0       -0.000000   -0.664093   -0.121775
      3          1           0       -0.000000    1.350324    0.730647
      4          1           0       -0.000000   -1.350324    0.730647
 ---------------------------------------------------------------------

 SCF Done:  E(UHF) =  -76.7414178855     A.U. after   13 cycles
 E2 =    -0.2215297132D+00 EUMP2 =    -0.76962947598713D+02
 CCSD(T)
 CCSD(T)= -0.77003598963D+02

 The electronic state is 3-B2.
 Alpha  occ. eigenvalues --  -11.28632 -11.28449  -1.07051  -0.78991  -0.65809
 Alpha  occ. eigenvalues --   -0.53721  -0.41414  -0.37747
 Alpha virt. eigenvalues --    0.04612   0.05997   0.09701   0.11372   0.12523
 Alpha virt. eigenvalues --    0.13481   0.15150   0.18822   0.19342   0.20789
 Alpha virt. eigenvalues --    0.22388   0.25861   0.34533   0.49834   0.57614

  Beta  occ. eigenvalues --  -11.26023 -11.25870  -0.97260  -0.70553  -0.61736
  Beta  occ. eigenvalues --   -0.37809
  Beta virt. eigenvalues --    0.01950   0.04972   0.06125   0.10281   0.11348
  Beta virt. eigenvalues --    0.12759   0.15170   0.15986   0.17962   0.19091
  Beta virt. eigenvalues --    0.20760   0.23758   0.24491   0.28174   0.37780

 Mulliken charges and spin densities:
               1          2
     1  C   -0.125040   0.931539
     2  C   -0.125040   0.931539
     3  H    0.125040   0.068461
     4  H    0.125040   0.068461
 Sum of Mulliken charges =  -0.00000   2.00000

 Dipole moment (field-independent basis, Debye):
    X=             -0.0000    Y=             -0.0000    Z=              1.2544  Tot=              1.2544
 Quadrupole moment (field-independent basis, Debye-Ang):
   XX=            -14.5666   YY=            -11.2761   ZZ=            -12.4368
   XY=              0.0000   XZ=              0.0000   YZ=              0.0000

 939\CCSD=-76.993154\CCSD(T)=-77.003599\S2=2.005472\S2-1=1.999855\S2A=2
 Normal termination of Gaussian 09 at Tue Oct 10 01:53:46 2017.
