 Gaussian 09, Revision E.01,
 Gaussian 09:  ES64L-G09RevE.01 30-Nov-2015

 -----------------------------------
 #p ccsd(t,maxcyc=200)/6-311++G(d,p)
 -----------------------------------

 -------------
 ccsd(t) iener
 -------------
 Symbolic Z-matrix:
 Charge =  0 Multiplicity = 3

                         Standard orientation:
 ---------------------------------------------------------------------
 Center     Atomic      Atomic             Coordinates (Angstroms)
 Number     Number       Type             X           Y           Z
 ---------------------------------------------------------------------
      1          6           0       -0.000000   -0.000000    0.831648
      2          6           0        0.000000    0.000000   -0.481845
      3          1           0        0.000000    0.933783   -1.049407
      4          1           0       -0.000000   -0.933783   -1.049407
 ---------------------------------------------------------------------

 SCF Done:  E(UHF) =  -76.7530915040     A.U. after   16 cycles
 E2 =    -0.2015218476D+00 EUMP2 =    -0.76954613351632D+02
 CCSD(T)
 CCSD(T)= -0.77001399356D+02

 The electronic state is 3-B2.
 Alpha  occ. eigenvalues --  -11.29448 -11.24221  -1.06406  -0.76877  -0.63124
 Alpha  occ. eigenvalues --   -0.57708  -0.44180  -0.39006
 Alpha virt. eigenvalues --    0.05115   0.06643   0.09205   0.10135   0.12992
 Alpha virt. eigenvalues --    0.14323   0.14360   0.19000   0.21049   0.21964
 Alpha virt. eigenvalues --    0.22613   0.27585   0.33817   0.47584   0.59171

  Beta  occ. eigenvalues --  -11.25585 -11.22603  -1.00563  -0.66355  -0.59148
  Beta  occ. eigenvalues --   -0.40863
  Beta virt. eigenvalues --    0.02052   0.06089   0.06685   0.10750   0.11884
  Beta virt. eigenvalues --    0.12447   0.13101   0.14951   0.19453   0.20444
  Beta virt. eigenvalues --    0.22762   0.24304   0.27108   0.27743   0.36719

 Mulliken charges and spin densities:
               1          2
     1  C    0.121442   2.594506
     2  C   -0.345889  -0.881640
     3  H    0.112224   0.143567
     4  H    0.112224   0.143567
 Sum of Mulliken charges =  -0.00000   2.00000

 Dipole moment (field-independent basis, Debye):
    X=             -0.0000    Y=             -0.0000    Z=             -0.4825  Tot=              0.4825
 Quadrupole moment (field-independent basis, Debye-Ang):
   XX=            -14.0482   YY=            -12.0898   ZZ=            -11.4876
   XY=             -0.0000   XZ=              0.0000   YZ=              0.0000

 18099\CCSD=-76.9919658\CCSD(T)=-77.0013994\S2=2.346798\S2-1=2.284281\S
 Normal termination of Gaussian 09 at Tue Oct 10 01:53:15 2017.
