 Gaussian 09, Revision E.01,
 Gaussian 09:  ES64L-G09RevE.01 30-Nov-2015

 -----------------------------------
 #p ccsd(t,maxcyc=200)/6-311++G(d,p)
 -----------------------------------

 -------------
 ccsd(t) iener
 -------------
 Symbolic Z-matrix:
 Charge =  1 Multiplicity = 4

                         Standard orientation:
 ---------------------------------------------------------------------
 Center     Atomic      Atomic             Coordinates (Angstroms)
 Number     Number       Type             X           Y           Z
 ---------------------------------------------------------------------
      1          6           0        0.000000   -0.712084   -0.120515
      2          6           0       -0.000000    0.712084   -0.120515
      3          1           0       -0.000000    1.415781    0.723089
      4          1           0        0.000000   -1.415781    0.723089
 ---------------------------------------------------------------------

 SCF Done:  E(UHF) =  -76.4154278525     A.U. after   12 cycles
 E2 =    -0.1679826646D+00 EUMP2 =    -0.76583410517179D+02
 CCSD(T)
 CCSD(T)= -0.76619601751D+02

 The electronic state is 4-A2.
 Alpha  occ. eigenvalues --  -11.65944 -11.65818  -1.41111  -1.12525  -0.97532
 Alpha  occ. eigenvalues --   -0.86133  -0.77097  -0.72666
 Alpha virt. eigenvalues --   -0.22853  -0.11298  -0.08533  -0.06165  -0.05803
 Alpha virt. eigenvalues --   -0.03165  -0.01925   0.00047   0.01226   0.03185
 Alpha virt. eigenvalues --    0.04066   0.05347   0.12087   0.18484   0.32428

  Beta  occ. eigenvalues --  -11.61991 -11.61917  -1.23430  -1.01247  -0.91975
  Beta virt. eigenvalues --   -0.27803  -0.24568  -0.13429  -0.10628  -0.08541
  Beta virt. eigenvalues --   -0.08045  -0.03785  -0.03461  -0.02217   0.00526
  Beta virt. eigenvalues --    0.01879   0.03711   0.04317   0.06297   0.06860

 Mulliken charges and spin densities:
               1          2
     1  C    0.254513   1.506595
     2  C    0.254513   1.506595
     3  H    0.245487  -0.006595
     4  H    0.245487  -0.006595
 Sum of Mulliken charges =   1.00000   3.00000

 Dipole moment (field-independent basis, Debye):
    X=              0.0000    Y=              0.0000    Z=              1.1903  Tot=              1.1903
 Quadrupole moment (field-independent basis, Debye-Ang):
   XX=            -10.0189   YY=             -4.7497   ZZ=             -9.4772
   XY=             -0.0000   XZ=              0.0000   YZ=              0.0000

 6.6127443\CCSD=-76.6140237\CCSD(T)=-76.6196018\S2=3.756278\S2-1=3.7507
 Normal termination of Gaussian 09 at Tue Oct 10 01:57:14 2017.
