 Gaussian 09, Revision D.01,
 Gaussian 09:  ES64L-G09RevD.01 24-Apr-2013

 -----------------------------------
 #p ccsd(t,maxcyc=200)/6-311++G(d,p)
 -----------------------------------

 -------------
 ccsd(t) iener
 -------------
 Symbolic Z-matrix:
 Charge =  1 Multiplicity = 2

                         Standard orientation:
 ---------------------------------------------------------------------
 Center     Atomic      Atomic             Coordinates (Angstroms)
 Number     Number       Type             X           Y           Z
 ---------------------------------------------------------------------
      1          6           0        0.139796   -0.000408    0.000032
      2          8           0        1.264242    0.000154    0.000001
      3          6           0       -1.237986    0.000112   -0.000129
      4          1           0       -1.762699   -0.954185    0.000284
      5          1           0       -1.762092    0.954731    0.000284
 ---------------------------------------------------------------------

 SCF Done:  E(UHF) =  -151.464750503     A.U. after   18 cycles
 E2 =    -0.4261128662D+00 EUMP2 =    -0.15189086336930D+03
 CCSD(T)
 CCSD(T)= -0.15192721253D+03

 The electronic state is 2-A.
 Alpha  occ. eigenvalues --  -20.98829 -11.70659 -11.59715  -1.83897  -1.38487
 Alpha  occ. eigenvalues --   -1.08347  -0.99328  -0.98964  -0.97443  -0.88896
 Alpha  occ. eigenvalues --   -0.73474
 Alpha virt. eigenvalues --   -0.15514  -0.12274  -0.10186  -0.08022  -0.07027
 Alpha virt. eigenvalues --   -0.05872  -0.02225  -0.01663  -0.00375  -0.00304
 Alpha virt. eigenvalues --    0.02617   0.04008   0.04951   0.11803   0.15076

  Beta  occ. eigenvalues --  -20.96970 -11.71460 -11.57674  -1.80406  -1.31199
  Beta  occ. eigenvalues --   -1.05843  -0.97494  -0.95811  -0.89508  -0.86518
  Beta virt. eigenvalues --   -0.25871  -0.15522  -0.11902  -0.07915  -0.06920
  Beta virt. eigenvalues --   -0.06195  -0.02875  -0.02182  -0.01812   0.00026
  Beta virt. eigenvalues --    0.03074   0.03679   0.04202   0.05815   0.12260

 Mulliken charges and spin densities:
               1          2
     1  C    0.499680  -0.321297
     2  O   -0.011958   0.416541
     3  C   -0.023526   1.073135
     4  H    0.267835  -0.084202
     5  H    0.267969  -0.084177
 Sum of Mulliken charges =   1.00000   1.00000

 Dipole moment (field-independent basis, Debye):
    X=             -3.4095    Y=             -0.0009    Z=              0.0006  Tot=              3.4095
 Quadrupole moment (field-independent basis, Debye-Ang):
   XX=             -8.6107   YY=            -12.4749   ZZ=            -15.1251
   XY=             -0.0010   XZ=             -0.0012   YZ=              0.0000

 1.9099275\CCSD=-151.90886\CCSD(T)=-151.9272125\S2=0.801893\S2-1=0.7785
 Normal termination of Gaussian 09 at Fri Jan 25 13:00:22 2019.
