 Gaussian 09, Revision E.01,
 Gaussian 09:  ES64L-G09RevE.01 30-Nov-2015

 -----------------------------------
 #p ccsd(t,maxcyc=200)/6-311++G(d,p)
 -----------------------------------

 -------------
 ccsd(t) iener
 -------------
 Symbolic Z-matrix:
 Charge =  0 Multiplicity = 1

                         Standard orientation:
 ---------------------------------------------------------------------
 Center     Atomic      Atomic             Coordinates (Angstroms)
 Number     Number       Type             X           Y           Z
 ---------------------------------------------------------------------
      1          6           0        1.291129    0.593771    0.000000
      2          6           0       -0.000000    0.354322    0.000000
      3          1           0       -0.466772    1.354176   -0.000000
      4          1           0       -0.369539   -1.518785   -0.000000
      5          8           0       -0.863808   -0.690493   -0.000000
 ---------------------------------------------------------------------

 SCF Done:  E(RHF) =  -151.648764068     A.U. after   14 cycles
 E2 =    -0.4428426661D+00 EUMP2 =    -0.15209160673359D+03
 CCSD(T)
 CCSD(T)= -0.15213718708D+03

 The electronic state is 1-A'.
 Alpha  occ. eigenvalues --  -20.63250 -11.31568 -11.29668  -1.44001  -1.05323
 Alpha  occ. eigenvalues --   -0.82567  -0.67632  -0.61485  -0.60997  -0.45891
 Alpha  occ. eigenvalues --   -0.38717
 Alpha virt. eigenvalues --    0.02116   0.05509   0.06483   0.10524   0.11981
 Alpha virt. eigenvalues --    0.13074   0.13843   0.15444   0.16877   0.19368
 Alpha virt. eigenvalues --    0.22262   0.22296   0.24723   0.29409   0.30367

 Mulliken charges:
               1
     1  C    0.079354
     2  C   -0.253779
     3  H    0.166526
     4  H    0.269789
     5  O   -0.261890
 Sum of Mulliken charges =  -0.00000

 Dipole moment (field-independent basis, Debye):
    X=             -1.1254    Y=             -1.3508    Z=             -0.0000  Tot=              1.7581
 Quadrupole moment (field-independent basis, Debye-Ang):
   XX=            -24.4989   YY=            -13.1766   ZZ=            -19.9446
   XY=             -3.7419   XZ=             -0.0000   YZ=              0.0000

 05\MP4DQ=-152.1125506\MP4SDQ=-152.1184001\CCSD=-152.1190097\CCSD(T)=-1
 Normal termination of Gaussian 09 at Tue Oct 10 01:42:55 2017.
