 Gaussian 09, Revision E.01,
 Gaussian 09:  ES64L-G09RevE.01 30-Nov-2015

 -----------------------------------
 #p ccsd(t,maxcyc=200)/6-311++G(d,p)
 -----------------------------------

 -------------
 ccsd(t) iener
 -------------
 Symbolic Z-matrix:
 Charge =  0 Multiplicity = 1

                         Standard orientation:
 ---------------------------------------------------------------------
 Center     Atomic      Atomic             Coordinates (Angstroms)
 Number     Number       Type             X           Y           Z
 ---------------------------------------------------------------------
      1          6           0        0.000000   -0.000000   -1.207380
      2          6           0        0.000000    0.000000    0.102674
      3          1           0       -0.000000    0.938431   -1.742458
      4          1           0        0.000000   -0.938431   -1.742458
      5          8           0        0.000000    0.000000    1.264144
 ---------------------------------------------------------------------

 SCF Done:  E(RHF) =  -151.769072788     A.U. after   12 cycles
 E2 =    -0.4661258633D+00 EUMP2 =    -0.15223519865172D+03
 CCSD(T)
 CCSD(T)= -0.15226753647D+03

 The electronic state is 1-A1.
 Alpha  occ. eigenvalues --  -20.63267 -11.38764 -11.24369  -1.47972  -1.05793
 Alpha  occ. eigenvalues --   -0.76174  -0.68448  -0.65890  -0.64596  -0.56362
 Alpha  occ. eigenvalues --   -0.36821
 Alpha virt. eigenvalues --    0.04269   0.05903   0.08528   0.11021   0.11561
 Alpha virt. eigenvalues --    0.13456   0.13900   0.14708   0.16796   0.20098
 Alpha virt. eigenvalues --    0.20207   0.23217   0.25802   0.34560   0.35087

 Mulliken charges:
               1
     1  C   -0.424504
     2  C    0.433751
     3  H    0.163925
     4  H    0.163925
     5  O   -0.337097
 Sum of Mulliken charges =  -0.00000

 Dipole moment (field-independent basis, Debye):
    X=              0.0000    Y=              0.0000    Z=             -1.8466  Tot=              1.8466
 Quadrupole moment (field-independent basis, Debye-Ang):
   XX=            -19.3500   YY=            -15.4182   ZZ=            -18.8526
   XY=              0.0000   XZ=             -0.0000   YZ=             -0.0000

 -152.2466286\CCSD(T)=-152.2675365\RMSD=9.581e-09\PG=C02V [C2(C1C1O1),S
 Normal termination of Gaussian 09 at Tue Oct 10 01:42:28 2017.
