 Gaussian 09, Revision E.01,
 Gaussian 09:  ES64L-G09RevE.01 30-Nov-2015

 -----------------------------------
 #p ccsd(t,maxcyc=200)/6-311++G(d,p)
 -----------------------------------

 -------------
 ccsd(t) iener
 -------------
 Symbolic Z-matrix:
 Charge =  1 Multiplicity = 4

                         Standard orientation:
 ---------------------------------------------------------------------
 Center     Atomic      Atomic             Coordinates (Angstroms)
 Number     Number       Type             X           Y           Z
 ---------------------------------------------------------------------
      1          6           0        1.278924   -0.147431    0.000000
      2          6           0       -0.000000    0.455018   -0.000000
      3          1           0        2.310843    0.187036    0.000000
      4          1           0       -1.174696   -1.106624    0.000000
      5          8           0       -1.101211   -0.115742   -0.000000
 ---------------------------------------------------------------------

 SCF Done:  E(UHF) =  -151.331462930     A.U. after   17 cycles
 E2 =    -0.3761554408D+00 EUMP2 =    -0.15170761837054D+03
 CCSD(T)
 CCSD(T)= -0.15174896957D+03

 The electronic state is 4-A".
 Alpha  occ. eigenvalues --  -20.94025 -11.69985 -11.59609  -1.78905  -1.36964
 Alpha  occ. eigenvalues --   -1.18322  -1.01385  -0.96328  -0.94030  -0.83377
 Alpha  occ. eigenvalues --   -0.71783  -0.69042
 Alpha virt. eigenvalues --   -0.15795  -0.11464  -0.08650  -0.05978  -0.05373
 Alpha virt. eigenvalues --   -0.02722  -0.02158  -0.01228   0.00258   0.01693
 Alpha virt. eigenvalues --    0.04811   0.05704   0.08311   0.10682   0.14049

  Beta  occ. eigenvalues --  -20.93066 -11.66789 -11.54804  -1.75845  -1.21602
  Beta  occ. eigenvalues --   -1.11894  -0.95508  -0.87248  -0.87162
  Beta virt. eigenvalues --   -0.23884  -0.23213  -0.15077  -0.08033  -0.07094
  Beta virt. eigenvalues --   -0.05224  -0.04718  -0.03092  -0.01456  -0.00800
  Beta virt. eigenvalues --    0.01212   0.03329   0.04922   0.06419   0.07241

 Mulliken charges and spin densities:
               1          2
     1  C    0.059471   1.993350
     2  C    0.354431   0.962980
     3  H    0.252683  -0.083045
     4  H    0.376904   0.051380
     5  O   -0.043489   0.075335
 Sum of Mulliken charges =   1.00000   3.00000

 Dipole moment (field-independent basis, Debye):
    X=              1.8159    Y=             -1.1595    Z=              0.0000  Tot=              2.1545
 Quadrupole moment (field-independent basis, Debye-Ang):
   XX=             -7.8260   YY=            -12.1975   ZZ=            -15.3563
   XY=              3.5743   XZ=             -0.0000   YZ=              0.0000

 P3-0=-151.7243329\MP4SDQ=-151.7330456\CCSD=-151.73413\CCSD(T)=-151.748
 Normal termination of Gaussian 09 at Tue Oct 10 01:48:37 2017.
