 Gaussian 09, Revision E.01,
 Gaussian 09:  ES64L-G09RevE.01 30-Nov-2015

 -----------------------------------
 #p ccsd(t,maxcyc=200)/6-311++G(d,p)
 -----------------------------------

 -------------
 ccsd(t) iener
 -------------
 Symbolic Z-matrix:
 Charge =  1 Multiplicity = 4

                         Standard orientation:
 ---------------------------------------------------------------------
 Center     Atomic      Atomic             Coordinates (Angstroms)
 Number     Number       Type             X           Y           Z
 ---------------------------------------------------------------------
      1          6           0        0.000000    0.380351    0.000000
      2          6           0        1.240992   -0.251062    0.000000
      3          1           0        1.649857   -1.257574   -0.000000
      4          1           0       -0.044493    1.502262    0.000000
      5          8           0       -1.131415   -0.127553   -0.000000
 ---------------------------------------------------------------------

 SCF Done:  E(UHF) =  -151.363866553     A.U. after   18 cycles
 E2 =    -0.3583100511D+00 EUMP2 =    -0.15172217660364D+03
 CCSD(T)
 CCSD(T)= -0.15177467569D+03

 The electronic state is 4-A".
 Alpha  occ. eigenvalues --  -21.03010 -11.66434 -11.59502  -1.84991  -1.37153
 Alpha  occ. eigenvalues --   -1.14987  -1.07730  -1.00869  -0.99868  -0.87216
 Alpha  occ. eigenvalues --   -0.75278  -0.73029
 Alpha virt. eigenvalues --   -0.14691  -0.10686  -0.08772  -0.06226  -0.05601
 Alpha virt. eigenvalues --   -0.03071  -0.02046   0.00077   0.00600   0.02745
 Alpha virt. eigenvalues --    0.04903   0.05559   0.08025   0.11093   0.15151

  Beta  occ. eigenvalues --  -20.97274 -11.67131 -11.54716  -1.69266  -1.22999
  Beta  occ. eigenvalues --   -1.04153  -0.96986  -0.90505  -0.85546
  Beta virt. eigenvalues --   -0.24651  -0.23561  -0.16180  -0.10223  -0.08230
  Beta virt. eigenvalues --   -0.06551  -0.04582  -0.04376  -0.01655  -0.00056
  Beta virt. eigenvalues --    0.00931   0.03603   0.03918   0.05388   0.08014

 Mulliken charges and spin densities:
               1          2
     1  C   -0.017385  -0.192797
     2  C    0.183105   1.894155
     3  H    0.256499  -0.076213
     4  H    0.305725   0.129812
     5  O    0.272056   1.245042
 Sum of Mulliken charges =   1.00000   3.00000

 Dipole moment (field-independent basis, Debye):
    X=              1.6799    Y=              0.6735    Z=              0.0000  Tot=              1.8099
 Quadrupole moment (field-independent basis, Debye-Ang):
   XX=            -11.3766   YY=            -10.0946   ZZ=            -15.3831
   XY=             -2.8438   XZ=              0.0000   YZ=             -0.0000

 MP3-0=-151.7515721\MP4SDQ=-151.7565897\CCSD=-151.7604825\CCSD(T)=-151.
 Normal termination of Gaussian 09 at Tue Oct 10 01:50:41 2017.
