 Gaussian 09, Revision E.01,
 Gaussian 09:  ES64L-G09RevE.01 30-Nov-2015

 -----------------------------------
 #p ccsd(t,maxcyc=200)/6-311++G(d,p)
 -----------------------------------

 -------------
 ccsd(t) iener
 -------------
 Symbolic Z-matrix:
 Charge =  0 Multiplicity = 3

                         Standard orientation:
 ---------------------------------------------------------------------
 Center     Atomic      Atomic             Coordinates (Angstroms)
 Number     Number       Type             X           Y           Z
 ---------------------------------------------------------------------
      1          6           0       -0.000000    0.686947    0.000000
      2          6           0        0.000000   -0.686947    0.000000
      3          1           0        0.931111    1.264966   -0.000000
      4          1           0       -0.931111   -1.264966   -0.000000
 ---------------------------------------------------------------------

 SCF Done:  E(UHF) =  -76.7127156042     A.U. after   13 cycles
 E2 =    -0.2266017828D+00 EUMP2 =    -0.76939317386947D+02
 CCSD(T)
 CCSD(T)= -0.76979724324D+02

 The electronic state is 3-AU.
 Alpha  occ. eigenvalues --  -11.29878 -11.29724  -1.07785  -0.80226  -0.61278
 Alpha  occ. eigenvalues --   -0.53885  -0.45467  -0.34861
 Alpha virt. eigenvalues --    0.05010   0.05837   0.07372   0.10829   0.11619
 Alpha virt. eigenvalues --    0.14621   0.15109   0.17935   0.18579   0.19705
 Alpha virt. eigenvalues --    0.22198   0.27436   0.28997   0.47476   0.60171

  Beta  occ. eigenvalues --  -11.27667 -11.27555  -0.96834  -0.73507  -0.58018
  Beta  occ. eigenvalues --   -0.36013
  Beta virt. eigenvalues --   -0.00789   0.04631   0.05967   0.07257   0.11407
  Beta virt. eigenvalues --    0.12306   0.14552   0.14724   0.17218   0.20058
  Beta virt. eigenvalues --    0.21145   0.22768   0.27410   0.29156   0.30402

 Mulliken charges and spin densities:
               1          2
     1  C   -0.122984   1.016791
     2  C   -0.122984   1.016791
     3  H    0.122984  -0.016791
     4  H    0.122984  -0.016791
 Sum of Mulliken charges =  -0.00000   2.00000

 Dipole moment (field-independent basis, Debye):
    X=             -0.0000    Y=             -0.0000    Z=             -0.0000  Tot=              0.0000
 Quadrupole moment (field-independent basis, Debye-Ang):
   XX=            -13.6150   YY=            -13.4673   ZZ=            -12.4916
   XY=              3.6175   XZ=              0.0000   YZ=              0.0000

 7774\CCSD=-76.9691933\CCSD(T)=-76.9797243\S2=2.021828\S2-1=2.005671\S2
 Normal termination of Gaussian 09 at Tue Oct 10 01:52:31 2017.
