 Gaussian 09, Revision E.01,
 Gaussian 09:  ES64L-G09RevE.01 30-Nov-2015

 -----------------------------------
 #p ccsd(t,maxcyc=200)/6-311++G(d,p)
 -----------------------------------

 -------------
 ccsd(t) iener
 -------------
 Symbolic Z-matrix:
 Charge =  0 Multiplicity = 1

                         Standard orientation:
 ---------------------------------------------------------------------
 Center     Atomic      Atomic             Coordinates (Angstroms)
 Number     Number       Type             X           Y           Z
 ---------------------------------------------------------------------
      1          6           0        1.429893   -0.226343    0.014931
      2          6           0        0.203358    0.224642   -0.003882
      3          1           0        0.443231    1.310185   -0.066141
      4          1           0       -1.679462    0.499872    0.154694
      5          8           0       -1.070410   -0.224982   -0.019356
 ---------------------------------------------------------------------

 SCF Done:  E(RHF) =  -151.645340333     A.U. after   15 cycles
 E2 =    -0.4444680054D+00 EUMP2 =    -0.15208980833855D+03
 CCSD(T)
 CCSD(T)= -0.15213510688D+03

 The electronic state is 1-A.
 Alpha  occ. eigenvalues --  -20.63219 -11.31511 -11.29363  -1.44149  -1.05987
 Alpha  occ. eigenvalues --   -0.79626  -0.72947  -0.61921  -0.57215  -0.45858
 Alpha  occ. eigenvalues --   -0.38613
 Alpha virt. eigenvalues --    0.02295   0.05751   0.06519   0.10705   0.11651
 Alpha virt. eigenvalues --    0.13281   0.14027   0.15225   0.17239   0.20051
 Alpha virt. eigenvalues --    0.21822   0.22425   0.25354   0.28857   0.30462

 Mulliken charges:
               1
     1  C    0.071290
     2  C   -0.252675
     3  H    0.147381
     4  H    0.291640
     5  O   -0.257635
 Sum of Mulliken charges =   0.00000

 Dipole moment (field-independent basis, Debye):
    X=             -2.7621    Y=              2.4845    Z=              0.2735  Tot=              3.7252
 Quadrupole moment (field-independent basis, Debye-Ang):
   XX=            -20.9748   YY=            -15.6286   ZZ=            -19.8261
   XY=             -1.6329   XZ=             -0.7500   YZ=              0.0378

 MP4SDQ=-152.1161061\CCSD=-152.1166297\CCSD(T)=-152.1351069\RMSD=8.596e
 Normal termination of Gaussian 09 at Tue Oct 10 01:44:29 2017.
