 Gaussian 09, Revision E.01,
 Gaussian 09:  ES64L-G09RevE.01 30-Nov-2015

 -----------------------------------
 #p ccsd(t,maxcyc=200)/6-311++G(d,p)
 -----------------------------------

 -------------
 ccsd(t) iener
 -------------
 Symbolic Z-matrix:
 Charge =  0 Multiplicity = 3

                         Standard orientation:
 ---------------------------------------------------------------------
 Center     Atomic      Atomic             Coordinates (Angstroms)
 Number     Number       Type             X           Y           Z
 ---------------------------------------------------------------------
      1          6           0        1.258091   -0.035752   -0.000000
      2          6           0        0.000000    0.465845    0.000000
      3          6           0       -1.036518   -0.437102    0.000000
      4          1           0       -1.175918   -1.506441    0.000000
      5          1           0       -0.153521    1.548497    0.000000
 ---------------------------------------------------------------------

 SCF Done:  E(UHF) =  -114.583155532     A.U. after   24 cycles
 E2 =    -0.3052446554D+00 EUMP2 =    -0.11488840018769D+03
 CCSD(T)
 CCSD(T)= -0.11495680277D+03

 The electronic state is 3-A".
 Alpha  occ. eigenvalues --  -11.30387 -11.28730 -11.25414  -1.11725  -0.92517
 Alpha  occ. eigenvalues --   -0.74940  -0.63815  -0.50804  -0.50527  -0.43427
 Alpha  occ. eigenvalues --   -0.36519
 Alpha virt. eigenvalues --    0.04086   0.04860   0.06149   0.10901   0.11355
 Alpha virt. eigenvalues --    0.12529   0.13512   0.15227   0.15548   0.17079
 Alpha virt. eigenvalues --    0.18342   0.18697   0.19284   0.20886   0.23718

  Beta  occ. eigenvalues --  -11.28504 -11.26925 -11.24337  -1.08813  -0.80402
  Beta  occ. eigenvalues --   -0.71460  -0.61754  -0.45849  -0.44345
  Beta virt. eigenvalues --    0.03974   0.04666   0.05678   0.08442   0.08705
  Beta virt. eigenvalues --    0.10840   0.12227   0.14308   0.15237   0.17198
  Beta virt. eigenvalues --    0.17994   0.18577   0.19419   0.19850   0.20657

 Mulliken charges and spin densities:
               1          2
     1  C   -0.064658   0.817865
     2  C   -0.168500  -0.770605
     3  C   -0.137455   1.922782
     4  H    0.175621  -0.087913
     5  H    0.194993   0.117870
 Sum of Mulliken charges =  -0.00000   2.00000

 Dipole moment (field-independent basis, Debye):
    X=             -1.4800    Y=              0.4453    Z=              0.0000  Tot=              1.5455
 Quadrupole moment (field-independent basis, Debye-Ang):
   XX=            -22.4292   YY=            -14.4836   ZZ=            -20.2592
   XY=              1.7621   XZ=              0.0000   YZ=             -0.0000

 PMP3-0=-114.9349991\MP4SDQ=-114.9292312\CCSD=-114.9412578\CCSD(T)=-114
 Normal termination of Gaussian 09 at Tue Oct 10 02:29:17 2017.
