 Gaussian 09, Revision E.01,
 Gaussian 09:  ES64L-G09RevE.01 30-Nov-2015

 -----------------------------------
 #p ccsd(t,maxcyc=200)/6-311++G(d,p)
 -----------------------------------

 -------------
 ccsd(t) iener
 -------------
 Symbolic Z-matrix:
 Charge =  0 Multiplicity = 1

                         Standard orientation:
 ---------------------------------------------------------------------
 Center     Atomic      Atomic             Coordinates (Angstroms)
 Number     Number       Type             X           Y           Z
 ---------------------------------------------------------------------
      1          6           0       -0.655839   -0.481533   -0.000000
      2          6           0       -1.307104   -1.570172    0.000000
      3          6           0        0.000000    0.686960   -0.000000
      4          1           0        1.732167   -0.054879    0.000000
      5          1           0       -0.494707    1.655231   -0.000000
      6          8           0        1.317525    0.823515    0.000000
 ---------------------------------------------------------------------

 SCF Done:  E(RHF) =  -189.523248389     A.U. after   15 cycles
 E2 =    -0.5811188655D+00 EUMP2 =    -0.19010436725431D+03
 CCSD(T)
 CCSD(T)= -0.19015476281D+03

 The electronic state is 1-A'.
 Alpha  occ. eigenvalues --  -20.66627 -11.40812 -11.27574 -11.21935  -1.49018
 Alpha  occ. eigenvalues --   -1.08131  -0.95524  -0.83970  -0.72886  -0.64568
 Alpha  occ. eigenvalues --   -0.63008  -0.44472  -0.41320  -0.39583
 Alpha virt. eigenvalues --    0.01974   0.03646   0.04593   0.09589   0.10076
 Alpha virt. eigenvalues --    0.12218   0.12673   0.13786   0.16058   0.16328
 Alpha virt. eigenvalues --    0.17515   0.17908   0.18885   0.22418   0.24057

 Mulliken charges:
               1
     1  C    0.652688
     2  C   -0.148923
     3  C   -0.788457
     4  H    0.280940
     5  H    0.180713
     6  O   -0.176961
 Sum of Mulliken charges =  -0.00000

 Dipole moment (field-independent basis, Debye):
    X=              2.6160    Y=              3.0081    Z=             -0.0000  Tot=              3.9865
 Quadrupole moment (field-independent basis, Debye-Ang):
   XX=            -25.7460   YY=            -28.1785   ZZ=            -23.9380
   XY=             -7.4937   XZ=              0.0000   YZ=              0.0000

 P4SDQ=-190.1259698\CCSD=-190.1246567\CCSD(T)=-190.1547628\RMSD=4.208e-
 Normal termination of Gaussian 09 at Tue Oct 10 01:58:03 2017.
