 Gaussian 09, Revision E.01,
 Gaussian 09:  ES64L-G09RevE.01 30-Nov-2015

 -----------------------------------
 #p ccsd(t,maxcyc=200)/6-311++G(d,p)
 -----------------------------------

 -------------
 ccsd(t) iener
 -------------
 Symbolic Z-matrix:
 Charge =  0 Multiplicity = 3

                         Standard orientation:
 ---------------------------------------------------------------------
 Center     Atomic      Atomic             Coordinates (Angstroms)
 Number     Number       Type             X           Y           Z
 ---------------------------------------------------------------------
      1          6           0        0.000000   -0.000000    0.799829
      2          6           0       -0.000000    0.644483   -0.629422
      3          6           0       -0.000000   -0.644483   -0.629422
      4          1           0        0.922646   -0.000000    1.377044
      5          1           0       -0.922646    0.000000    1.377044
 ---------------------------------------------------------------------

 SCF Done:  E(UHF) =  -114.540122322     A.U. after   16 cycles
 E2 =    -0.3742837353D+00 EUMP2 =    -0.11491440605774D+03
 CCSD(T)
 CCSD(T)= -0.11496137469D+03

 The electronic state is 3-B2.
 Alpha  occ. eigenvalues --  -11.30933 -11.30684 -11.29298  -1.19255  -0.87183
 Alpha  occ. eigenvalues --   -0.69879  -0.63120  -0.59410  -0.51159  -0.40178
 Alpha  occ. eigenvalues --   -0.39435
 Alpha virt. eigenvalues --    0.04851   0.06609   0.08526   0.08919   0.10104
 Alpha virt. eigenvalues --    0.13884   0.14308   0.14361   0.14603   0.17289
 Alpha virt. eigenvalues --    0.20909   0.20925   0.21159   0.22731   0.24250

  Beta  occ. eigenvalues --  -11.28347 -11.28169 -11.28132  -1.13854  -0.81720
  Beta  occ. eigenvalues --   -0.62202  -0.52460  -0.50014  -0.37646
  Beta virt. eigenvalues --   -0.00767   0.05321   0.05401   0.06640   0.08994
  Beta virt. eigenvalues --    0.10632   0.11921   0.14337   0.14421   0.14989
  Beta virt. eigenvalues --    0.17005   0.18104   0.21038   0.22040   0.24360

 Mulliken charges and spin densities:
               1          2
     1  C   -0.258891   0.573552
     2  C    0.029129   0.759199
     3  C    0.029129   0.759199
     4  H    0.100316  -0.045975
     5  H    0.100316  -0.045975
 Sum of Mulliken charges =  -0.00000   2.00000

 Dipole moment (field-independent basis, Debye):
    X=             -0.0000    Y=             -0.0000    Z=              1.0657  Tot=              1.0657
 Quadrupole moment (field-independent basis, Debye-Ang):
   XX=            -18.2445   YY=            -18.7519   ZZ=            -17.7691
   XY=             -0.0000   XZ=             -0.0000   YZ=              0.0000

 Normal termination of Gaussian 09 at Tue Oct 10 02:29:49 2017.
