 Gaussian 09, Revision E.01,
 Gaussian 09:  ES64L-G09RevE.01 30-Nov-2015

 -----------------------------------
 #p ccsd(t,maxcyc=200)/6-311++G(d,p)
 -----------------------------------

 -------------
 ccsd(t) iener
 -------------
 Symbolic Z-matrix:
 Charge =  0 Multiplicity = 1

                         Standard orientation:
 ---------------------------------------------------------------------
 Center     Atomic      Atomic             Coordinates (Angstroms)
 Number     Number       Type             X           Y           Z
 ---------------------------------------------------------------------
      1          6           0        0.000000    0.000000    0.932473
      2          6           0       -0.000000    0.662262   -0.322428
      3          6           0       -0.000000   -0.662262   -0.322428
      4          1           0       -0.000000   -1.596669   -0.862854
      5          1           0        0.000000    1.596669   -0.862854
 ---------------------------------------------------------------------

 SCF Done:  E(RHF) =  -114.649959703     A.U. after   12 cycles
 E2 =    -0.3777459180D+00 EUMP2 =    -0.11502770562084D+03
 CCSD(T)
 CCSD(T)= -0.11506870273D+03

 The electronic state is 1-A1.
 Alpha  occ. eigenvalues --  -11.28957 -11.28777 -11.25414  -1.22025  -0.80910
 Alpha  occ. eigenvalues --   -0.77965  -0.62987  -0.48706  -0.47294  -0.37208
 Alpha virt. eigenvalues --    0.03780   0.04671   0.08887   0.09520   0.10588
 Alpha virt. eigenvalues --    0.11900   0.13063   0.14889   0.16075   0.17447
 Alpha virt. eigenvalues --    0.18053   0.18705   0.20181   0.22308   0.23477

 Mulliken charges:
               1
     1  C   -0.265806
     2  C   -0.054794
     3  C   -0.054794
     4  H    0.187697
     5  H    0.187697
 Sum of Mulliken charges =   0.00000

 Dipole moment (field-independent basis, Debye):
    X=             -0.0000    Y=              0.0000    Z=             -3.5875  Tot=              3.5875
 Quadrupole moment (field-independent basis, Debye-Ang):
   XX=            -17.9846   YY=            -14.2476   ZZ=            -22.4776
   XY=              0.0000   XZ=             -0.0000   YZ=             -0.0000

 -115.0495579\CCSD(T)=-115.0687027\RMSD=3.735e-09\PG=C02V [C2(C1),SGV(C
 Normal termination of Gaussian 09 at Tue Oct 10 02:26:32 2017.
