 Gaussian 09, Revision E.01,
 Gaussian 09:  ES64L-G09RevE.01 30-Nov-2015

 -----------------------------------
 #p ccsd(t,maxcyc=200)/6-311++G(d,p)
 -----------------------------------

 -------------
 ccsd(t) iener
 -------------
 Symbolic Z-matrix:
 Charge =  0 Multiplicity = 1

                         Standard orientation:
 ---------------------------------------------------------------------
 Center     Atomic      Atomic             Coordinates (Angstroms)
 Number     Number       Type             X           Y           Z
 ---------------------------------------------------------------------
      1          6           0       -0.451841    1.802204    0.000000
      2          6           0        0.736983   -0.529294   -0.000000
      3          6           0        0.000000    0.675399    0.000000
      4          1           0       -0.955775   -1.474331   -0.000000
      5          1           0       -0.849941    2.788715    0.000000
      6          8           0        0.011858   -1.625529   -0.000000
 ---------------------------------------------------------------------

 SCF Done:  E(RHF) =  -189.515580379     A.U. after   15 cycles
 E2 =    -0.5829008285D+00 EUMP2 =    -0.19009848120780D+03
 CCSD(T)
 CCSD(T)= -0.19014808055D+03

 The electronic state is 1-A'.
 Alpha  occ. eigenvalues --  -20.64509 -11.33161 -11.28051 -11.25980  -1.45980
 Alpha  occ. eigenvalues --   -1.07657  -0.92861  -0.80813  -0.73676  -0.63406
 Alpha  occ. eigenvalues --   -0.60467  -0.46012  -0.43866  -0.36268
 Alpha virt. eigenvalues --    0.03229   0.04790   0.04971   0.09691   0.10726
 Alpha virt. eigenvalues --    0.11495   0.11808   0.14476   0.16035   0.16179
 Alpha virt. eigenvalues --    0.17330   0.18014   0.19653   0.22891   0.25257

 Mulliken charges:
               1
     1  C   -2.184316
     2  C    0.173437
     3  C    1.728081
     4  H    0.246488
     5  H    0.184525
     6  O   -0.148215
 Sum of Mulliken charges =  -0.00000

 Dipole moment (field-independent basis, Debye):
    X=             -3.4305    Y=              1.7485    Z=              0.0000  Tot=              3.8504
 Quadrupole moment (field-independent basis, Debye-Ang):
   XX=            -25.3070   YY=            -19.3418   ZZ=            -23.8116
   XY=              1.0838   XZ=              0.0000   YZ=             -0.0000

 DQ=-190.1197539\CCSD=-190.1195952\CCSD(T)=-190.1480806\RMSD=6.607e-09\
 Normal termination of Gaussian 09 at Tue Oct 10 01:58:10 2017.
