 Gaussian 09, Revision E.01,
 Gaussian 09:  ES64L-G09RevE.01 30-Nov-2015

 -----------------------------------
 #p ccsd(t,maxcyc=200)/6-311++G(d,p)
 -----------------------------------

 -------------
 ccsd(t) iener
 -------------
 Symbolic Z-matrix:
 Charge =  1 Multiplicity = 2

                         Standard orientation:
 ---------------------------------------------------------------------
 Center     Atomic      Atomic             Coordinates (Angstroms)
 Number     Number       Type             X           Y           Z
 ---------------------------------------------------------------------
      1          6           0       -0.959069    1.148937    0.000000
      2          6           0        0.649675   -0.915464   -0.000000
      3          6           0        0.000000    0.234672    0.000000
      4          1           0        0.110634   -1.869973   -0.000000
      5          1           0        1.745727   -0.938900   -0.000000
 ---------------------------------------------------------------------

 SCF Done:  E(UHF) =  -114.293742187     A.U. after   24 cycles
 E2 =    -0.3121491427D+00 EUMP2 =    -0.11460589132936D+03
 CCSD(T)
 CCSD(T)= -0.11467192250D+03

 The electronic state is 2-A'.
 Alpha  occ. eigenvalues --  -11.64373 -11.59200 -11.58985  -1.42163  -1.25561
 Alpha  occ. eigenvalues --   -0.98998  -0.92946  -0.79329  -0.75620  -0.72417
 Alpha virt. eigenvalues --   -0.25119  -0.15836  -0.10444  -0.07357  -0.07346
 Alpha virt. eigenvalues --   -0.05744  -0.02356  -0.01713  -0.00709   0.00263
 Alpha virt. eigenvalues --    0.00706   0.03179   0.04083   0.05708   0.05760

  Beta  occ. eigenvalues --  -11.63216 -11.60044 -11.57362  -1.37234  -1.21810
  Beta  occ. eigenvalues --   -0.97862  -0.90364  -0.74921  -0.72775
  Beta virt. eigenvalues --   -0.26974  -0.25896  -0.11071  -0.08031  -0.06280
  Beta virt. eigenvalues --   -0.05905  -0.05041  -0.01640  -0.00589  -0.00277
  Beta virt. eigenvalues --    0.00303   0.00478   0.03248   0.04535   0.05724

 Mulliken charges and spin densities:
               1          2
     1  C    0.497021   0.750445
     2  C   -0.294719  -0.673865
     3  C    0.264874   0.782860
     4  H    0.283125   0.062854
     5  H    0.249700   0.077706
 Sum of Mulliken charges =   1.00000   1.00000

 Dipole moment (field-independent basis, Debye):
    X=              1.6735    Y=             -1.7953    Z=             -0.0000  Tot=              2.4543
 Quadrupole moment (field-independent basis, Debye-Ang):
   XX=            -12.4211   YY=             -9.0380   ZZ=            -15.8833
   XY=             -2.3758   XZ=              0.0000   YZ=             -0.0000

 \PMP3-0=-114.6467283\MP4SDQ=-114.6454348\CCSD=-114.6534495\CCSD(T)=-11
 Normal termination of Gaussian 09 at Tue Oct 10 02:32:36 2017.
