 Gaussian 09, Revision E.01,
 Gaussian 09:  ES64L-G09RevE.01 30-Nov-2015

 -----------------------------------
 #p ccsd(t,maxcyc=200)/6-311++G(d,p)
 -----------------------------------

 -------------
 ccsd(t) iener
 -------------
 Symbolic Z-matrix:
 Charge =  1 Multiplicity = 4

                         Standard orientation:
 ---------------------------------------------------------------------
 Center     Atomic      Atomic             Coordinates (Angstroms)
 Number     Number       Type             X           Y           Z
 ---------------------------------------------------------------------
      1          6           0       -1.908647   -0.335510   -0.047929
      2          6           0       -0.795064    0.085712    0.076664
      3          6           0        1.572124   -0.470315   -0.180428
      4          1           0        0.675814    1.425905   -0.146528
      5          1           0        2.088775   -0.893660    0.684986
      6          8           0        0.503117    0.473554    0.046463
 ---------------------------------------------------------------------

 SCF Done:  E(UHF) =  -189.039790107     A.U. after   24 cycles
 E2 =    -0.4754889313D+00 EUMP2 =    -0.18951527903848D+03
 CCSD(T)
 CCSD(T)= -0.18958497763D+03

 The electronic state is 4-A.
 Alpha  occ. eigenvalues --  -21.01152 -11.61248 -11.53723 -11.52381  -1.81470
 Alpha  occ. eigenvalues --   -1.30706  -1.26174  -1.16182  -1.00617  -0.98188
 Alpha  occ. eigenvalues --   -0.83326  -0.76327  -0.71151  -0.67483  -0.66688
 Alpha virt. eigenvalues --   -0.13637  -0.08443  -0.06867  -0.04937  -0.03452
 Alpha virt. eigenvalues --   -0.02862  -0.01575  -0.00987  -0.00868  -0.00208
 Alpha virt. eigenvalues --    0.01049   0.03195   0.03685   0.05184   0.06463

  Beta  occ. eigenvalues --  -21.00796 -11.55577 -11.54352 -11.47577  -1.80244
  Beta  occ. eigenvalues --   -1.27965  -1.17118  -1.11810  -0.97886  -0.91733
  Beta  occ. eigenvalues --   -0.66525  -0.64193
  Beta virt. eigenvalues --   -0.17181  -0.16130  -0.12679  -0.11992  -0.07551
  Beta virt. eigenvalues --   -0.05342  -0.02781  -0.02023  -0.01119  -0.00287
  Beta virt. eigenvalues --    0.00334   0.01151   0.02230   0.02895   0.04406

 Mulliken charges and spin densities:
               1          2
     1  C    0.202510   1.731949
     2  C    0.049502  -0.749569
     3  C    0.111749   2.056315
     4  H    0.433913   0.001970
     5  H    0.259446  -0.025399
     6  O   -0.057120  -0.015266
 Sum of Mulliken charges =   1.00000   3.00000

 Dipole moment (field-independent basis, Debye):
    X=              2.7160    Y=              1.4698    Z=              0.0652  Tot=              3.0889
 Quadrupole moment (field-independent basis, Debye-Ang):
   XX=             -9.1310   YY=            -15.3906   ZZ=            -21.1486
   XY=              0.8360   XZ=              1.2334   YZ=             -1.2182

 601\PMP3-0=-189.5481709\MP4SDQ=-189.5500746\CCSD=-189.563857\CCSD(T)=-
 Normal termination of Gaussian 09 at Tue Oct 10 02:26:13 2017.
