 Gaussian 09, Revision E.01,
 Gaussian 09:  ES64L-G09RevE.01 30-Nov-2015

 -----------------------------------
 #p ccsd(t,maxcyc=200)/6-311++G(d,p)
 -----------------------------------

 -------------
 ccsd(t) iener
 -------------
 Symbolic Z-matrix:
 Charge =  1 Multiplicity = 2

                         Standard orientation:
 ---------------------------------------------------------------------
 Center     Atomic      Atomic             Coordinates (Angstroms)
 Number     Number       Type             X           Y           Z
 ---------------------------------------------------------------------
      1          6           0        0.000000    0.698329   -0.287344
      2          6           0        0.000000    0.000000    0.870016
      3          6           0       -0.000000   -0.698329   -0.287344
      4          1           0        0.000000    1.602493   -0.885982
      5          1           0       -0.000000   -1.602493   -0.885982
 ---------------------------------------------------------------------

 SCF Done:  E(UHF) =  -114.357105091     A.U. after   15 cycles
 E2 =    -0.3413687385D+00 EUMP2 =    -0.11469847382942D+03
 CCSD(T)
 CCSD(T)= -0.11474020480D+03

 The electronic state is 2-A1.
 Alpha  occ. eigenvalues --  -11.62148 -11.59656 -11.59534  -1.54505  -1.09161
 Alpha  occ. eigenvalues --   -1.06776  -0.95233  -0.83114  -0.78878  -0.73654
 Alpha virt. eigenvalues --   -0.14496  -0.14473  -0.09853  -0.08338  -0.07026
 Alpha virt. eigenvalues --   -0.05407  -0.02935  -0.02839  -0.01375   0.01342
 Alpha virt. eigenvalues --    0.01529   0.01791   0.02893   0.03372   0.07021

  Beta  occ. eigenvalues --  -11.59531 -11.59396 -11.58812  -1.52485  -1.08143
  Beta  occ. eigenvalues --   -1.03712  -0.84351  -0.80980  -0.77732
  Beta virt. eigenvalues --   -0.22320  -0.15311  -0.10120  -0.09572  -0.08280
  Beta virt. eigenvalues --   -0.06296  -0.05393  -0.02859  -0.02449  -0.00199
  Beta virt. eigenvalues --    0.01341   0.02378   0.02949   0.03066   0.03489

 Mulliken charges and spin densities:
               1          2
     1  C    0.024788   0.087412
     2  C    0.325722   0.834106
     3  C    0.024788   0.087412
     4  H    0.312351  -0.004465
     5  H    0.312351  -0.004465
 Sum of Mulliken charges =   1.00000   1.00000

 Dipole moment (field-independent basis, Debye):
    X=             -0.0000    Y=              0.0000    Z=             -1.2000  Tot=              1.2000
 Quadrupole moment (field-independent basis, Debye-Ang):
   XX=            -15.1334   YY=             -8.4589   ZZ=            -12.1578
   XY=              0.0000   XZ=              0.0000   YZ=             -0.0000

 \CCSD(T)=-114.7402048\S2=0.767712\S2-1=0.758276\S2A=0.750172\RMSD=8.95
 Normal termination of Gaussian 09 at Tue Oct 10 02:32:03 2017.
