 Gaussian 09, Revision E.01,
 Gaussian 09:  ES64L-G09RevE.01 30-Nov-2015

 -----------------------------------
 #p ccsd(t,maxcyc=200)/6-311++G(d,p)
 -----------------------------------

 -------------
 ccsd(t) iener
 -------------
 Symbolic Z-matrix:
 Charge =  1 Multiplicity = 2

                         Standard orientation:
 ---------------------------------------------------------------------
 Center     Atomic      Atomic             Coordinates (Angstroms)
 Number     Number       Type             X           Y           Z
 ---------------------------------------------------------------------
      1          6           0        0.000000    0.000000    1.261398
      2          1           0        0.000000    0.000000    2.338108
      3          6           0        0.000000    0.000000    0.000000
      4          6           0        0.000000    0.000000   -1.261398
      5          1           0        0.000000    0.000000   -2.338108
 ---------------------------------------------------------------------

 SCF Done:  E(UHF) =  -114.338002905     A.U. after   15 cycles
 E2 =    -0.3343622787D+00 EUMP2 =    -0.11467236518379D+03
 CCSD(T)
 CCSD(T)= -0.11472629981D+03

 Unable to determine electronic state:  an orbital has unidentified symmetry.
 Alpha  occ. eigenvalues --  -11.60940 -11.60937 -11.51176  -1.37223  -1.25386
 Alpha  occ. eigenvalues --   -1.03049  -0.98538  -0.80093  -0.70986  -0.66569
 Alpha virt. eigenvalues --   -0.27363  -0.09995  -0.08162  -0.05818  -0.05181
 Alpha virt. eigenvalues --   -0.05172  -0.01548  -0.00794  -0.00131  -0.00037
 Alpha virt. eigenvalues --    0.01381   0.02205   0.03724   0.07662   0.08345

  Beta  occ. eigenvalues --  -11.58768 -11.58761 -11.52722  -1.35855  -1.18336
  Beta  occ. eigenvalues --   -1.00977  -0.97416  -0.72069  -0.71489
  Beta virt. eigenvalues --   -0.23601  -0.19386  -0.09819  -0.07964  -0.06180
  Beta virt. eigenvalues --   -0.05863  -0.04919   0.00206   0.00345   0.00972
  Beta virt. eigenvalues --    0.01894   0.02678   0.02945   0.04082   0.08204

 Mulliken charges and spin densities:
               1          2
     1  C   -1.131737   0.893418
     2  H    0.282253  -0.060362
     3  C    2.698969  -0.666112
     4  C   -1.131737   0.893418
     5  H    0.282253  -0.060362
 Sum of Mulliken charges =   1.00000   1.00000

 Dipole moment (field-independent basis, Debye):
    X=              0.0000    Y=              0.0000    Z=              0.0000  Tot=              0.0000
 Quadrupole moment (field-independent basis, Debye-Ang):
   XX=            -15.4350   YY=            -16.9690   ZZ=              3.9146
   XY=             -0.0000   XZ=             -0.0000   YZ=              0.0000

 2\CCSD=-114.7052829\CCSD(T)=-114.7262998\S2=0.90369\S2-1=0.843426\S2A=
 Normal termination of Gaussian 09 at Tue Oct 10 02:31:30 2017.
