 Gaussian 09, Revision E.01,
 Gaussian 09:  ES64L-G09RevE.01 30-Nov-2015

 -----------------------------------
 #p ccsd(t,maxcyc=200)/6-311++G(d,p)
 -----------------------------------

 -------------
 ccsd(t) iener
 -------------
 Symbolic Z-matrix:
 Charge =  0 Multiplicity = 1

                         Standard orientation:
 ---------------------------------------------------------------------
 Center     Atomic      Atomic             Coordinates (Angstroms)
 Number     Number       Type             X           Y           Z
 ---------------------------------------------------------------------
      1          6           0        0.000000    0.000000    1.485119
      2          6           0       -0.000000   -0.000000   -1.121978
      3          6           0        0.000000    0.000000    0.201411
      4          1           0       -0.000000    0.926529   -1.693657
      5          1           0        0.000000   -0.926529   -1.693657
 ---------------------------------------------------------------------

 SCF Done:  E(RHF) =  -114.621678084     A.U. after   14 cycles
 E2 =    -0.3749115390D+00 EUMP2 =    -0.11499658962253D+03
 CCSD(T)
 CCSD(T)= -0.11504783873D+03

 The electronic state is 1-A1.
 Alpha  occ. eigenvalues --  -11.32944 -11.28650 -11.24649  -1.09838  -0.95670
 Alpha  occ. eigenvalues --   -0.72363  -0.66377  -0.45473  -0.44371  -0.39189
 Alpha virt. eigenvalues --   -0.00202   0.03537   0.05467   0.09568   0.10211
 Alpha virt. eigenvalues --    0.12388   0.13554   0.16058   0.16379   0.16728
 Alpha virt. eigenvalues --    0.17844   0.19044   0.20038   0.23564   0.23984

 Mulliken charges:
               1
     1  C   -0.070308
     2  C   -0.623217
     3  C    0.381650
     4  H    0.155937
     5  H    0.155937
 Sum of Mulliken charges =  -0.00000

 Dipole moment (field-independent basis, Debye):
    X=             -0.0000    Y=             -0.0000    Z=             -4.3793  Tot=              4.3793
 Quadrupole moment (field-independent basis, Debye-Ang):
   XX=            -18.5013   YY=            -18.4016   ZZ=            -20.1301
   XY=             -0.0000   XZ=             -0.0000   YZ=             -0.0000

 15.0264855\CCSD(T)=-115.0478387\RMSD=2.358e-09\PG=C02V [C2(C1C1C1),SGV
 Normal termination of Gaussian 09 at Tue Oct 10 02:28:23 2017.
