 Gaussian 09, Revision E.01,
 Gaussian 09:  ES64L-G09RevE.01 30-Nov-2015

 -----------------------------------
 #p ccsd(t,maxcyc=200)/6-311++G(d,p)
 -----------------------------------

 -------------
 ccsd(t) iener
 -------------
 Symbolic Z-matrix:
 Charge =  0 Multiplicity = 3

                         Standard orientation:
 ---------------------------------------------------------------------
 Center     Atomic      Atomic             Coordinates (Angstroms)
 Number     Number       Type             X           Y           Z
 ---------------------------------------------------------------------
      1          6           0        0.559845   -0.982237    0.000000
      2          6           0        0.000000    0.243170   -0.000000
      3          6           0       -0.825961    1.233709   -0.000000
      4          1           0       -0.043536   -1.883200    0.000000
      5          1           0        1.640236   -1.084653    0.000000
 ---------------------------------------------------------------------

 SCF Done:  E(UHF) =  -114.603097755     A.U. after   22 cycles
 E2 =    -0.3287879710D+00 EUMP2 =    -0.11493188572635D+03
 CCSD(T)
 CCSD(T)= -0.11499891611D+03

 The electronic state is 3-A".
 Alpha  occ. eigenvalues --  -11.29674 -11.28771 -11.28317  -1.13152  -1.00159
 Alpha  occ. eigenvalues --   -0.71607  -0.66000  -0.52233  -0.50939  -0.44170
 Alpha  occ. eigenvalues --   -0.36372
 Alpha virt. eigenvalues --    0.03840   0.05449   0.09408   0.10595   0.11651
 Alpha virt. eigenvalues --    0.12059   0.14219   0.15129   0.16784   0.16944
 Alpha virt. eigenvalues --    0.18734   0.20521   0.21490   0.24488   0.25142

  Beta  occ. eigenvalues --  -11.29519 -11.26577 -11.26523  -1.05963  -0.90772
  Beta  occ. eigenvalues --   -0.68510  -0.62049  -0.44661  -0.43305
  Beta virt. eigenvalues --   -0.00993   0.04115   0.05560   0.05629   0.10239
  Beta virt. eigenvalues --    0.10847   0.11991   0.14207   0.16772   0.17553
  Beta virt. eigenvalues --    0.18034   0.18830   0.19085   0.21655   0.24077

 Mulliken charges and spin densities:
               1          2
     1  C   -0.551229   0.911518
     2  C    0.428291  -0.086269
     3  C   -0.203180   1.259346
     4  H    0.180901  -0.041257
     5  H    0.145218  -0.043338
 Sum of Mulliken charges =  -0.00000   2.00000

 Dipole moment (field-independent basis, Debye):
    X=              2.1140    Y=             -2.3897    Z=              0.0000  Tot=              3.1905
 Quadrupole moment (field-independent basis, Debye-Ang):
   XX=            -19.0084   YY=            -18.4445   ZZ=            -20.1424
   XY=              2.5037   XZ=             -0.0000   YZ=              0.0000

 3-0=-114.9691157\MP4SDQ=-114.9701298\CCSD=-114.9803755\CCSD(T)=-114.99
 Normal termination of Gaussian 09 at Tue Oct 10 02:30:27 2017.
