 Gaussian 09, Revision E.01,
 Gaussian 09:  ES64L-G09RevE.01 30-Nov-2015

 -----------------------------------
 #p ccsd(t,maxcyc=200)/6-311++G(d,p)
 -----------------------------------

 -------------
 ccsd(t) iener
 -------------
 Symbolic Z-matrix:
 Charge =  0 Multiplicity = 3

                         Standard orientation:
 ---------------------------------------------------------------------
 Center     Atomic      Atomic             Coordinates (Angstroms)
 Number     Number       Type             X           Y           Z
 ---------------------------------------------------------------------
      1          6           0        0.819618   -0.259654   -0.140723
      2          6           0       -0.075953    0.831049    0.040301
      3          6           0       -0.740448   -0.286830    0.010809
      4          1           0       -1.567173   -0.970817    0.023701
      5          1           0        1.547865   -0.736567    0.513976
 ---------------------------------------------------------------------

 SCF Done:  E(UHF) =  -114.572760382     A.U. after   23 cycles
 E2 =    -0.3667009486D+00 EUMP2 =    -0.11493946133044D+03
 CCSD(T)
 CCSD(T)= -0.11498498145D+03

 The electronic state is 3-A.
 Alpha  occ. eigenvalues --  -11.29281 -11.29051 -11.28185  -1.20601  -0.85165
 Alpha  occ. eigenvalues --   -0.77484  -0.61839  -0.57806  -0.52055  -0.39758
 Alpha  occ. eigenvalues --   -0.32524
 Alpha virt. eigenvalues --    0.04124   0.05617   0.08867   0.09900   0.11055
 Alpha virt. eigenvalues --    0.12960   0.14403   0.14956   0.16373   0.17451
 Alpha virt. eigenvalues --    0.18086   0.20078   0.21041   0.23220   0.24512

  Beta  occ. eigenvalues --  -11.27788 -11.27078 -11.25958  -1.16203  -0.77994
  Beta  occ. eigenvalues --   -0.72236  -0.53759  -0.47980  -0.43106
  Beta virt. eigenvalues --    0.03050   0.04631   0.05915   0.09111   0.09602
  Beta virt. eigenvalues --    0.10574   0.12510   0.13387   0.16064   0.16925
  Beta virt. eigenvalues --    0.17805   0.18392   0.20347   0.21099   0.23499

 Mulliken charges and spin densities:
               1          2
     1  C   -0.156167   1.237076
     2  C   -0.074572   0.127043
     3  C   -0.095272   0.677596
     4  H    0.213178  -0.030403
     5  H    0.112834  -0.011311
 Sum of Mulliken charges =  -0.00000   2.00000

 Dipole moment (field-independent basis, Debye):
    X=             -0.6462    Y=             -1.4182    Z=              0.6417  Tot=              1.6854
 Quadrupole moment (field-independent basis, Debye-Ang):
   XX=            -16.1071   YY=            -18.2643   ZZ=            -19.3641
   XY=              0.9641   XZ=              1.0257   YZ=             -0.5222

 9630418\CCSD=-114.9649934\CCSD(T)=-114.9849815\S2=2.053715\S2-1=2.0267
 Normal termination of Gaussian 09 at Tue Oct 10 02:31:22 2017.
