 Gaussian 09, Revision E.01,
 Gaussian 09:  ES64L-G09RevE.01 30-Nov-2015

 -----------------------------------
 #p ccsd(t,maxcyc=200)/6-311++G(d,p)
 -----------------------------------

 -------------
 ccsd(t) iener
 -------------
 Symbolic Z-matrix:
 Charge =  1 Multiplicity = 4

                         Standard orientation:
 ---------------------------------------------------------------------
 Center     Atomic      Atomic             Coordinates (Angstroms)
 Number     Number       Type             X           Y           Z
 ---------------------------------------------------------------------
      1          6           0       -1.309584    0.055821   -0.000909
      2          6           0        0.000049    0.000020    0.000519
      3          6           0        1.309546   -0.055849   -0.000909
      4          1           0        2.358912    0.186004    0.003896
      5          1           0       -2.358976   -0.185957    0.003898
 ---------------------------------------------------------------------

 SCF Done:  E(UHF) =  -114.290518917     A.U. after   16 cycles
 E2 =    -0.2784724223D+00 EUMP2 =    -0.11456899133948D+03
 CCSD(T)
 CCSD(T)= -0.11462893345D+03

 The electronic state is 4-A.
 Alpha  occ. eigenvalues --  -11.62670 -11.57806 -11.57796  -1.41872  -1.29549
 Alpha  occ. eigenvalues --   -1.02156  -0.96940  -0.84546  -0.80739  -0.66708
 Alpha  occ. eigenvalues --   -0.65350
 Alpha virt. eigenvalues --   -0.11827  -0.10176  -0.07708  -0.07215  -0.05336
 Alpha virt. eigenvalues --   -0.04760  -0.03691  -0.01238  -0.00610   0.00457
 Alpha virt. eigenvalues --    0.01979   0.04040   0.05309   0.06082   0.08252

  Beta  occ. eigenvalues --  -11.63749 -11.53885 -11.53883  -1.31801  -1.14691
  Beta  occ. eigenvalues --   -0.97236  -0.94466  -0.74661
  Beta virt. eigenvalues --   -0.31100  -0.16161  -0.13723  -0.09536  -0.07445
  Beta virt. eigenvalues --   -0.06563  -0.05007  -0.04469   0.00539   0.01641
  Beta virt. eigenvalues --    0.01657   0.02347   0.02850   0.03871   0.05067

 Mulliken charges and spin densities:
               1          2
     1  C   -0.860822   1.746174
     2  C    2.135133  -0.262381
     3  C   -0.860465   1.745800
     4  H    0.293081  -0.114777
     5  H    0.293073  -0.114816
 Sum of Mulliken charges =   1.00000   3.00000

 Dipole moment (field-independent basis, Debye):
    X=              0.0004    Y=              0.0000    Z=              0.0094  Tot=              0.0094
 Quadrupole moment (field-independent basis, Debye-Ang):
   XX=              0.2886   YY=            -15.0464   ZZ=            -17.0133
   XY=              1.0426   XZ=             -0.0000   YZ=              0.0000

 4.608363\CCSD=-114.6159684\CCSD(T)=-114.6289334\S2=3.95834\S2-1=3.8828
 Normal termination of Gaussian 09 at Tue Oct 10 02:33:40 2017.
