 Gaussian 09, Revision E.01,
 Gaussian 09:  ES64L-G09RevE.01 30-Nov-2015

 -----------------------------------
 #p ccsd(t,maxcyc=200)/6-311++G(d,p)
 -----------------------------------

 -------------
 ccsd(t) iener
 -------------
 Symbolic Z-matrix:
 Charge =  0 Multiplicity = 1

                         Standard orientation:
 ---------------------------------------------------------------------
 Center     Atomic      Atomic             Coordinates (Angstroms)
 Number     Number       Type             X           Y           Z
 ---------------------------------------------------------------------
      1          6           0        0.000000    0.000000    0.000000
      2          6           0        0.000000    1.287041   -0.000000
      3          6           0       -0.000000   -1.287041   -0.000000
      4          1           0        0.835621    1.975028   -0.000000
      5          1           0       -0.835621   -1.975028   -0.000000
 ---------------------------------------------------------------------

 SCF Done:  E(RHF) =  -114.597556023     A.U. after   12 cycles
 E2 =    -0.3750967963D+00 EUMP2 =    -0.11497265281941D+03
 CCSD(T)
 CCSD(T)= -0.11502406408D+03

 The electronic state is 1-AG.
 Alpha  occ. eigenvalues --  -11.28590 -11.28565 -11.27619  -1.09519  -0.95486
 Alpha  occ. eigenvalues --   -0.71798  -0.67007  -0.48247  -0.45177  -0.34800
 Alpha virt. eigenvalues --    0.00899   0.04559   0.05364   0.09584   0.10309
 Alpha virt. eigenvalues --    0.11857   0.13720   0.14696   0.16316   0.16842
 Alpha virt. eigenvalues --    0.18274   0.18933   0.19891   0.21868   0.26801

 Mulliken charges:
               1
     1  C    0.593013
     2  C   -0.451085
     3  C   -0.451085
     4  H    0.154579
     5  H    0.154579
 Sum of Mulliken charges =  -0.00000

 Dipole moment (field-independent basis, Debye):
    X=              0.0000    Y=             -0.0000    Z=             -0.0000  Tot=              0.0000
 Quadrupole moment (field-independent basis, Debye-Ang):
   XX=            -19.3827   YY=            -16.9006   ZZ=            -18.2054
   XY=              6.4782   XZ=              0.0000   YZ=              0.0000

 8056\MP4DQ=-114.9907397\MP4SDQ=-114.9997304\CCSD=-115.0011922\CCSD(T)=
 Normal termination of Gaussian 09 at Tue Oct 10 02:26:47 2017.
