 Gaussian 09, Revision E.01,
 Gaussian 09:  ES64L-G09RevE.01 30-Nov-2015

 -----------------------------------
 #p ccsd(t,maxcyc=200)/6-311++G(d,p)
 -----------------------------------

 -------------
 ccsd(t) iener
 -------------
 Symbolic Z-matrix:
 Charge =  0 Multiplicity = 3

                         Standard orientation:
 ---------------------------------------------------------------------
 Center     Atomic      Atomic             Coordinates (Angstroms)
 Number     Number       Type             X           Y           Z
 ---------------------------------------------------------------------
      1          6           0        0.000000    0.000000    0.000000
      2          6           0        0.000000    0.000000    1.268723
      3          6           0        0.000000    0.000000   -1.268723
      4          1           0        0.000000    0.000000   -2.331381
      5          1           0       -0.000000    0.000000    2.331381
 ---------------------------------------------------------------------

 SCF Done:  E(UHF) =  -114.659318203     A.U. after   15 cycles
 E2 =    -0.3234025546D+00 EUMP2 =    -0.11498272075801D+03
 CCSD(T)
 CCSD(T)= -0.11504436742D+03

 The electronic state is 3-SGG.
 Alpha  occ. eigenvalues --  -11.26501 -11.26497 -11.23416  -1.08448  -0.98791
 Alpha  occ. eigenvalues --   -0.74928  -0.69494  -0.50614  -0.50614  -0.36967
 Alpha  occ. eigenvalues --   -0.36967
 Alpha virt. eigenvalues --    0.03817   0.04592   0.10989   0.10989   0.11553
 Alpha virt. eigenvalues --    0.14722   0.14722   0.14812   0.17719   0.18220
 Alpha virt. eigenvalues --    0.18243   0.18243   0.27253   0.29386   0.29386

  Beta  occ. eigenvalues --  -11.26147 -11.22821 -11.22814  -1.05806  -0.85769
  Beta  occ. eigenvalues --   -0.71545  -0.67891  -0.44001  -0.44001
  Beta virt. eigenvalues --    0.03980   0.04728   0.07514   0.07514   0.10566
  Beta virt. eigenvalues --    0.10566   0.11797   0.15092   0.18386   0.18892
  Beta virt. eigenvalues --    0.19187   0.19187   0.19589   0.19589   0.27128

 Mulliken charges and spin densities:
               1          2
     1  C    2.735519  -1.294270
     2  C   -1.522918   1.784207
     3  C   -1.522918   1.784207
     4  H    0.155159  -0.137072
     5  H    0.155159  -0.137072
 Sum of Mulliken charges =   0.00000   2.00000

 Dipole moment (field-independent basis, Debye):
    X=             -0.0000    Y=             -0.0000    Z=              0.0000  Tot=              0.0000
 Quadrupole moment (field-independent basis, Debye-Ang):
   XX=            -19.5004   YY=            -19.5004   ZZ=            -10.1250
   XY=             -0.0000   XZ=              0.0000   YZ=              0.0000

 5.0176923\CCSD=-115.0276748\CCSD(T)=-115.0443674\S2=2.353045\S2-1=2.22
 Normal termination of Gaussian 09 at Tue Oct 10 02:29:18 2017.
