 Gaussian 09, Revision E.01,
 Gaussian 09:  ES64L-G09RevE.01 30-Nov-2015

 -----------------------------------
 #p ccsd(t,maxcyc=200)/6-311++G(d,p)
 -----------------------------------

 -------------
 ccsd(t) iener
 -------------
 Symbolic Z-matrix:
 Charge =  1 Multiplicity = 4

                         Standard orientation:
 ---------------------------------------------------------------------
 Center     Atomic      Atomic             Coordinates (Angstroms)
 Number     Number       Type             X           Y           Z
 ---------------------------------------------------------------------
      1          6           0       -0.000000   -0.000000    0.738971
      2          6           0       -0.000000    0.683269   -0.595692
      3          6           0       -0.000000   -0.683269   -0.595692
      4          1           0        0.919102   -0.000000    1.357238
      5          1           0       -0.919102    0.000000    1.357238
 ---------------------------------------------------------------------

 SCF Done:  E(UHF) =  -114.220128720     A.U. after   16 cycles
 E2 =    -0.3195782682D+00 EUMP2 =    -0.11453970698818D+03
 CCSD(T)
 CCSD(T)= -0.11459226391D+03

 The electronic state is 4-A2.
 Alpha  occ. eigenvalues --  -11.66733 -11.66557 -11.56328  -1.54049  -1.14484
 Alpha  occ. eigenvalues --   -1.04708  -0.92857  -0.91903  -0.81672  -0.71934
 Alpha  occ. eigenvalues --   -0.71329
 Alpha virt. eigenvalues --   -0.20967  -0.10004  -0.07636  -0.07082  -0.07080
 Alpha virt. eigenvalues --   -0.02823  -0.01968  -0.01734  -0.01687  -0.00162
 Alpha virt. eigenvalues --    0.00501   0.03696   0.04544   0.05597   0.06889

  Beta  occ. eigenvalues --  -11.62476 -11.62385 -11.56133  -1.44806  -1.06697
  Beta  occ. eigenvalues --   -0.85727  -0.82537  -0.79962
  Beta virt. eigenvalues --   -0.26860  -0.25964  -0.20801  -0.09190  -0.07372
  Beta virt. eigenvalues --   -0.07280  -0.06439  -0.05657  -0.02427  -0.00835
  Beta virt. eigenvalues --   -0.00699   0.00174   0.02763   0.04422   0.04731

 Mulliken charges and spin densities:
               1          2
     1  C   -0.428062   0.063139
     2  C    0.463258   1.370805
     3  C    0.463258   1.370805
     4  H    0.250773   0.097626
     5  H    0.250773   0.097626
 Sum of Mulliken charges =   1.00000   3.00000

 Dipole moment (field-independent basis, Debye):
    X=             -0.0000    Y=              0.0000    Z=              0.3976  Tot=              0.3976
 Quadrupole moment (field-independent basis, Debye-Ang):
   XX=            -13.3194   YY=            -13.7472   ZZ=            -11.3309
   XY=             -0.0000   XZ=             -0.0000   YZ=              0.0000

 Normal termination of Gaussian 09 at Tue Oct 10 02:35:08 2017.
