 Gaussian 09, Revision E.01,
 Gaussian 09:  ES64L-G09RevE.01 30-Nov-2015

 -----------------------------------
 #p ccsd(t,maxcyc=200)/6-311++G(d,p)
 -----------------------------------

 -------------
 ccsd(t) iener
 -------------
 Symbolic Z-matrix:
 Charge =  1 Multiplicity = 4

                         Standard orientation:
 ---------------------------------------------------------------------
 Center     Atomic      Atomic             Coordinates (Angstroms)
 Number     Number       Type             X           Y           Z
 ---------------------------------------------------------------------
      1          6           0       -0.000000    0.000000    1.491606
      2          6           0       -0.000000    0.000000    0.191580
      3          6           0        0.000000   -0.000000   -1.120457
      4          1           0        0.000000    0.938418   -1.688186
      5          1           0       -0.000000   -0.938418   -1.688186
 ---------------------------------------------------------------------

 SCF Done:  E(UHF) =  -114.284374657     A.U. after   18 cycles
 E2 =    -0.2806028833D+00 EUMP2 =    -0.11456497753995D+03
 CCSD(T)
 CCSD(T)= -0.11462168382D+03

 The electronic state is 4-A2.
 Alpha  occ. eigenvalues --  -11.64775 -11.62174 -11.53253  -1.42663  -1.29828
 Alpha  occ. eigenvalues --   -0.98116  -0.91210  -0.89715  -0.82533  -0.77056
 Alpha  occ. eigenvalues --   -0.65526
 Alpha virt. eigenvalues --   -0.16161  -0.10350  -0.07314  -0.06869  -0.06108
 Alpha virt. eigenvalues --   -0.03979  -0.03402  -0.02425  -0.00432   0.00918
 Alpha virt. eigenvalues --    0.03017   0.04169   0.06127   0.06594   0.07015

  Beta  occ. eigenvalues --  -11.62814 -11.57288 -11.51559  -1.34567  -1.17147
  Beta  occ. eigenvalues --   -0.93270  -0.85431  -0.74753
  Beta virt. eigenvalues --   -0.28044  -0.22709  -0.16049  -0.09650  -0.07430
  Beta virt. eigenvalues --   -0.06197  -0.04363  -0.03451  -0.02428   0.01241
  Beta virt. eigenvalues --    0.01389   0.01611   0.03485   0.03990   0.05271

 Mulliken charges and spin densities:
               1          2
     1  C    0.115029   2.246620
     2  C    0.997292  -0.167784
     3  C   -0.630578   0.991137
     4  H    0.259128  -0.034987
     5  H    0.259128  -0.034987
 Sum of Mulliken charges =   1.00000   3.00000

 Dipole moment (field-independent basis, Debye):
    X=             -0.0000    Y=              0.0000    Z=              0.1260  Tot=              0.1260
 Quadrupole moment (field-independent basis, Debye-Ang):
   XX=            -16.9823   YY=            -12.8427   ZZ=             -4.4178
   XY=              0.0000   XZ=              0.0000   YZ=             -0.0000

 CCSD(T)=-114.6216838\S2=3.924359\S2-1=3.867539\S2A=3.751493\RMSD=3.255
 Normal termination of Gaussian 09 at Tue Oct 10 02:33:10 2017.
