 Gaussian 09, Revision E.01,
 Gaussian 09:  ES64L-G09RevE.01 30-Nov-2015

 -----------------------------------
 #p ccsd(t,maxcyc=200)/6-311++G(d,p)
 -----------------------------------

 -------------
 ccsd(t) iener
 -------------
 Symbolic Z-matrix:
 Charge =  1 Multiplicity = 4

                         Standard orientation:
 ---------------------------------------------------------------------
 Center     Atomic      Atomic             Coordinates (Angstroms)
 Number     Number       Type             X           Y           Z
 ---------------------------------------------------------------------
      1          6           0        1.098642   -0.240135   -0.000000
      2          6           0       -0.848870   -0.414682    0.000000
      3          6           0        0.000000    0.593806   -0.000000
      4          1           0       -0.063150    1.687161   -0.000000
      5          1           0       -1.435481   -1.321094    0.000000
 ---------------------------------------------------------------------

 SCF Done:  E(UHF) =  -114.241240690     A.U. after   18 cycles
 E2 =    -0.2862060927D+00 EUMP2 =    -0.11452744678320D+03
 CCSD(T)
 CCSD(T)= -0.11458695510D+03

 The electronic state is 4-A".
 Alpha  occ. eigenvalues --  -11.62235 -11.62061 -11.56193  -1.45663  -1.18517
 Alpha  occ. eigenvalues --   -1.05679  -0.96227  -0.85578  -0.82531  -0.68951
 Alpha  occ. eigenvalues --   -0.66184
 Alpha virt. eigenvalues --   -0.19348  -0.10063  -0.09727  -0.08591  -0.05389
 Alpha virt. eigenvalues --   -0.04876  -0.02573  -0.01404  -0.01154  -0.00328
 Alpha virt. eigenvalues --    0.01535   0.02587   0.02870   0.03428   0.05859

  Beta  occ. eigenvalues --  -11.59526 -11.57647 -11.54709  -1.40240  -1.05817
  Beta  occ. eigenvalues --   -0.95622  -0.93667  -0.73389
  Beta virt. eigenvalues --   -0.21970  -0.21425  -0.13196  -0.09448  -0.08374
  Beta virt. eigenvalues --   -0.07189  -0.07158  -0.03247  -0.01909  -0.00739
  Beta virt. eigenvalues --   -0.00088   0.01719   0.02097   0.02287   0.03464

 Mulliken charges and spin densities:
               1          2
     1  C    0.276976   2.480810
     2  C    0.243233   1.211592
     3  C   -0.187307  -0.748270
     4  H    0.293044   0.135913
     5  H    0.374054  -0.080045
 Sum of Mulliken charges =   1.00000   3.00000

 Dipole moment (field-independent basis, Debye):
    X=             -1.1414    Y=             -0.4647    Z=              0.0000  Tot=              1.2324
 Quadrupole moment (field-independent basis, Debye-Ang):
   XX=             -9.2664   YY=             -9.1782   ZZ=            -17.0304
   XY=              2.1271   XZ=              0.0000   YZ=             -0.0000

 3-0=-114.5629306\MP4SDQ=-114.562673\CCSD=-114.5714578\CCSD(T)=-114.586
 Normal termination of Gaussian 09 at Tue Oct 10 02:35:29 2017.
