 Gaussian 09, Revision E.01,
 Gaussian 09:  ES64L-G09RevE.01 30-Nov-2015

 -----------------------------------
 #p ccsd(t,maxcyc=200)/6-311++G(d,p)
 -----------------------------------

 -------------
 ccsd(t) iener
 -------------
 Symbolic Z-matrix:
 Charge =  0 Multiplicity = 1

                         Standard orientation:
 ---------------------------------------------------------------------
 Center     Atomic      Atomic             Coordinates (Angstroms)
 Number     Number       Type             X           Y           Z
 ---------------------------------------------------------------------
      1          6           0        0.000000   -0.000000    0.048451
      2          6           0       -0.000000   -1.277938   -0.128640
      3          6           0        0.000000    1.277938   -0.128640
      4          1           0       -0.000154    2.054115    0.626488
      5          1           0        0.000154   -2.054115    0.626488
 ---------------------------------------------------------------------

 SCF Done:  E(RHF) =  -114.596682409     A.U. after   13 cycles
 E2 =    -0.3764069979D+00 EUMP2 =    -0.11497308940712D+03
 CCSD(T)
 CCSD(T)= -0.11502467900D+03

 The electronic state is 1-A.
 Alpha  occ. eigenvalues --  -11.28580 -11.28558 -11.27574  -1.09478  -0.95424
 Alpha  occ. eigenvalues --   -0.72245  -0.65471  -0.48848  -0.45043  -0.34634
 Alpha virt. eigenvalues --    0.01014   0.04065   0.05471   0.09488   0.10582
 Alpha virt. eigenvalues --    0.10927   0.12401   0.15542   0.16335   0.17764
 Alpha virt. eigenvalues --    0.18000   0.19820   0.20508   0.21148   0.25671

 Mulliken charges:
               1
     1  C    0.492787
     2  C   -0.392710
     3  C   -0.392710
     4  H    0.146316
     5  H    0.146316
 Sum of Mulliken charges =  -0.00000

 Dipole moment (field-independent basis, Debye):
    X=             -0.0000    Y=             -0.0000    Z=              2.8499  Tot=              2.8499
 Quadrupole moment (field-independent basis, Debye-Ang):
   XX=            -18.2198   YY=            -15.4247   ZZ=            -20.6219
   XY=             -0.0004   XZ=             -0.0000   YZ=             -0.0000

 =-115.0015451\CCSD(T)=-115.024679\RMSD=1.997e-09\PG=C02 [C2(C1),X(C2H2
 Normal termination of Gaussian 09 at Tue Oct 10 02:28:08 2017.
