 Gaussian 09, Revision E.01,
 Gaussian 09:  ES64L-G09RevE.01 30-Nov-2015

 -----------------------------------
 #p ccsd(t,maxcyc=200)/6-311++G(d,p)
 -----------------------------------

 -------------
 ccsd(t) iener
 -------------
 Symbolic Z-matrix:
 Charge =  0 Multiplicity = 3

                         Standard orientation:
 ---------------------------------------------------------------------
 Center     Atomic      Atomic             Coordinates (Angstroms)
 Number     Number       Type             X           Y           Z
 ---------------------------------------------------------------------
      1          6           0       -0.145643   -0.146836   -0.011724
      2          6           0        0.959519   -0.837708    0.027878
      3          6           0        1.152868    0.606344   -0.133438
      4          1           0       -1.695337    0.909082   -0.188660
      5          1           0        1.519088    1.351816    0.581761
      6          8           0       -1.453027    0.001038    0.038825
 ---------------------------------------------------------------------

 SCF Done:  E(UHF) =  -189.456463484     A.U. after   22 cycles
 E2 =    -0.5594404539D+00 EUMP2 =    -0.19001590393752D+03
 CCSD(T)
 CCSD(T)= -0.19006967604D+03

 The electronic state is 3-A.
 Alpha  occ. eigenvalues --  -20.64318 -11.34384 -11.28205 -11.28060  -1.46136
 Alpha  occ. eigenvalues --   -1.20121  -0.86545  -0.80773  -0.70426  -0.63281
 Alpha  occ. eigenvalues --   -0.62083  -0.56414  -0.49566  -0.40871  -0.31398
 Alpha virt. eigenvalues --    0.03395   0.05961   0.08824   0.10536   0.12149
 Alpha virt. eigenvalues --    0.13015   0.13848   0.14408   0.15121   0.17108
 Alpha virt. eigenvalues --    0.17812   0.20740   0.21999   0.22986   0.24518

  Beta  occ. eigenvalues --  -20.64468 -11.34878 -11.25279 -11.24793  -1.46468
  Beta  occ. eigenvalues --   -1.15938  -0.85095  -0.73541  -0.68684  -0.63629
  Beta  occ. eigenvalues --   -0.52064  -0.48111  -0.39910
  Beta virt. eigenvalues --    0.02610   0.04668   0.06168   0.08894   0.10671
  Beta virt. eigenvalues --    0.11396   0.13031   0.13537   0.14414   0.16004
  Beta virt. eigenvalues --    0.17084   0.18020   0.19453   0.22778   0.23986

 Mulliken charges and spin densities:
               1          2
     1  C    0.084620  -0.077620
     2  C   -0.106741   0.973146
     3  C   -0.113950   1.118379
     4  H    0.312025   0.006580
     5  H    0.107981   0.010896
     6  O   -0.283934  -0.031382
 Sum of Mulliken charges =  -0.00000   2.00000

 Dipole moment (field-independent basis, Debye):
    X=             -1.3777    Y=              2.1085    Z=              0.3236  Tot=              2.5394
 Quadrupole moment (field-independent basis, Debye-Ang):
   XX=            -23.8575   YY=            -21.8078   ZZ=            -24.3510
   XY=             -2.6667   XZ=              2.0743   YZ=              0.4618

 3\PMP3-0=-190.033403\MP4SDQ=-190.0389151\CCSD=-190.0425979\CCSD(T)=-19
 Normal termination of Gaussian 09 at Tue Oct 10 02:06:29 2017.
