 Gaussian 09, Revision E.01,
 Gaussian 09:  ES64L-G09RevE.01 30-Nov-2015

 -----------------------------------
 #p ccsd(t,maxcyc=200)/6-311++G(d,p)
 -----------------------------------

 -------------
 ccsd(t) iener
 -------------
 Symbolic Z-matrix:
 Charge =  1 Multiplicity = 4

                         Standard orientation:
 ---------------------------------------------------------------------
 Center     Atomic      Atomic             Coordinates (Angstroms)
 Number     Number       Type             X           Y           Z
 ---------------------------------------------------------------------
      1          6           0       -0.536912   -0.537956   -0.000000
      2          6           0       -0.000000    0.731036    0.000000
      3          6           0       -1.049082   -1.659463   -0.000000
      4          6           0        1.356846    0.910751    0.000000
      5          1           0        2.053978    1.743275    0.000000
      6          1           0       -0.679092    1.590515    0.000000
 ---------------------------------------------------------------------

 SCF Done:  E(UHF) =  -152.129836028     A.U. after   22 cycles
 E2 =    -0.3949374271D+00 EUMP2 =    -0.15252477345458D+03
 CCSD(T)
 CCSD(T)= -0.15260009145D+03

 The electronic state is 4-A".
 Alpha  occ. eigenvalues --  -11.58610 -11.56990 -11.56061 -11.53024  -1.38777
 Alpha  occ. eigenvalues --   -1.32371  -1.12339  -0.95069  -0.91789  -0.86929
 Alpha  occ. eigenvalues --   -0.76452  -0.71140  -0.69610  -0.67941
 Alpha virt. eigenvalues --   -0.18909  -0.09707  -0.07054  -0.06246  -0.05088
 Alpha virt. eigenvalues --   -0.04189  -0.02507  -0.02042  -0.01759  -0.00179
 Alpha virt. eigenvalues --    0.00291   0.01473   0.03196   0.03719   0.04367

  Beta  occ. eigenvalues --  -11.56068 -11.54228 -11.53132 -11.52046  -1.36330
  Beta  occ. eigenvalues --   -1.21044  -1.04862  -0.91873  -0.89420  -0.69414
  Beta  occ. eigenvalues --   -0.66371
  Beta virt. eigenvalues --   -0.24954  -0.19268  -0.13985  -0.08936  -0.08237
  Beta virt. eigenvalues --   -0.06477  -0.04284  -0.02956  -0.02189  -0.00725
  Beta virt. eigenvalues --   -0.00543  -0.00073   0.01273   0.02311   0.02894

 Mulliken charges and spin densities:
               1          2
     1  C    0.650023  -0.630568
     2  C   -0.347212   0.193660
     3  C    0.209791   1.833363
     4  C   -0.097012   1.625120
     5  H    0.288488  -0.051785
     6  H    0.295923   0.030209
 Sum of Mulliken charges =   1.00000   3.00000

 Dipole moment (field-independent basis, Debye):
    X=              0.5552    Y=              1.2785    Z=              0.0000  Tot=              1.3938
 Quadrupole moment (field-independent basis, Debye-Ang):
   XX=            -13.3262   YY=             -9.0772   ZZ=            -21.1460
   XY=              7.5096   XZ=              0.0000   YZ=             -0.0000

 2.5667123\CCSD=-152.5787609\CCSD(T)=-152.6000914\S2=4.200331\S2-1=4.09
 Normal termination of Gaussian 09 at Tue Oct 10 06:15:21 2017.
