 Gaussian 09, Revision E.01,
 Gaussian 09:  ES64L-G09RevE.01 30-Nov-2015

 -----------------------------------
 #p ccsd(t,maxcyc=200)/6-311++G(d,p)
 -----------------------------------

 -------------
 ccsd(t) iener
 -------------
 Symbolic Z-matrix:
 Charge =  1 Multiplicity = 2

                         Standard orientation:
 ---------------------------------------------------------------------
 Center     Atomic      Atomic             Coordinates (Angstroms)
 Number     Number       Type             X           Y           Z
 ---------------------------------------------------------------------
      1          6           0        0.133986    1.035674   -0.000349
      2          6           0        0.499072   -1.033284    0.000013
      3          8           0        1.169577    0.112005    0.000201
      4          6           0       -0.759676   -0.979827   -0.000154
      5          6           0       -1.148470    0.342979    0.000031
      6          1           0        0.411374    2.085601    0.000119
      7          1           0       -2.117465    0.825109    0.001027
 ---------------------------------------------------------------------

 SCF Done:  E(UHF) =  -226.969930487     A.U. after   39 cycles
 E2 =    -0.7196853633D+00 EUMP2 =    -0.22768961585049D+03
 CCSD(T)
 CCSD(T)= -0.22776107994D+03

 The electronic state is 2-A.
 Alpha  occ. eigenvalues --  -20.92257 -11.62349 -11.61615 -11.58183 -11.54921
 Alpha  occ. eigenvalues --   -1.76097  -1.40632  -1.29386  -1.10356  -1.02153
 Alpha  occ. eigenvalues --   -0.97736  -0.93997  -0.88486  -0.84523  -0.69862
 Alpha  occ. eigenvalues --   -0.65373  -0.64790
 Alpha virt. eigenvalues --   -0.27793  -0.16102  -0.09573  -0.06921  -0.05644
 Alpha virt. eigenvalues --   -0.05161  -0.02988  -0.02832  -0.02469  -0.01789
 Alpha virt. eigenvalues --   -0.00471   0.00471   0.02035   0.02830   0.04087

  Beta  occ. eigenvalues --  -20.92691 -11.60743 -11.60722 -11.58298 -11.54754
  Beta  occ. eigenvalues --   -1.75871  -1.39543  -1.24196  -1.09408  -1.01075
  Beta  occ. eigenvalues --   -0.96883  -0.89862  -0.88395  -0.84360  -0.67803
  Beta  occ. eigenvalues --   -0.63616
  Beta virt. eigenvalues --   -0.26776  -0.25599  -0.09458  -0.08204  -0.06827
  Beta virt. eigenvalues --   -0.05507  -0.03840  -0.02669  -0.02376  -0.01633
  Beta virt. eigenvalues --    0.00136   0.00478   0.01996   0.02085   0.02935

 Mulliken charges and spin densities:
               1          2
     1  C    0.118832   0.754778
     2  C    0.122942   0.443399
     3  O   -0.015404  -0.127183
     4  C    0.378097  -0.003742
     5  C   -0.230902  -0.005072
     6  H    0.328521  -0.060104
     7  H    0.297914  -0.002076
 Sum of Mulliken charges =   1.00000   1.00000

 Dipole moment (field-independent basis, Debye):
    X=             -2.0316    Y=              1.8657    Z=              0.0000  Tot=              2.7583
 Quadrupole moment (field-independent basis, Debye-Ang):
   XX=            -20.8207   YY=            -17.6336   ZZ=            -26.3704
   XY=             -1.4348   XZ=             -0.0036   YZ=              0.0017

 .7113393\CCSD=-227.7164075\CCSD(T)=-227.7610799\S2=0.799187\S2-1=0.774
 Normal termination of Gaussian 09 at Tue Oct 10 05:03:33 2017.
