 Gaussian 09, Revision E.01,
 Gaussian 09:  ES64L-G09RevE.01 30-Nov-2015

 -----------------------------------
 #p ccsd(t,maxcyc=200)/6-311++G(d,p)
 -----------------------------------

 -------------
 ccsd(t) iener
 -------------
 Symbolic Z-matrix:
 Charge =  0 Multiplicity = 3

                         Standard orientation:
 ---------------------------------------------------------------------
 Center     Atomic      Atomic             Coordinates (Angstroms)
 Number     Number       Type             X           Y           Z
 ---------------------------------------------------------------------
      1          6           0        1.927733    0.149222    0.000002
      2          6           0        0.640895   -0.046960   -0.000013
      3          6           0       -0.640895    0.046960    0.000013
      4          6           0       -1.927733   -0.149222   -0.000002
      5          1           0        2.750997   -0.557261   -0.000106
      6          1           0       -2.750997    0.557261    0.000106
 ---------------------------------------------------------------------

 SCF Done:  E(UHF) =  -152.421387594     A.U. after   18 cycles
 E2 =    -0.4764203170D+00 EUMP2 =    -0.15289780791086D+03
 CCSD(T)
 CCSD(T)= -0.15296638063D+03

 The electronic state is 3-AU.
 Alpha  occ. eigenvalues --  -11.29772 -11.29771 -11.28749 -11.28534  -1.12387
 Alpha  occ. eigenvalues --   -1.05345  -0.91151  -0.71502  -0.67925  -0.54752
 Alpha  occ. eigenvalues --   -0.51196  -0.47531  -0.41259  -0.30889
 Alpha virt. eigenvalues --    0.03879   0.04460   0.05225   0.09823   0.10733
 Alpha virt. eigenvalues --    0.11309   0.11487   0.12417   0.15458   0.16328
 Alpha virt. eigenvalues --    0.16494   0.19072   0.19505   0.20085   0.20525

  Beta  occ. eigenvalues --  -11.29070 -11.28848 -11.27068 -11.27068  -1.09957
  Beta  occ. eigenvalues --   -0.97995  -0.85895  -0.68373  -0.65549  -0.48550
  Beta  occ. eigenvalues --   -0.45809  -0.31956
  Beta virt. eigenvalues --   -0.02119   0.04566   0.04908   0.05375   0.08887
  Beta virt. eigenvalues --    0.09984   0.11229   0.12459   0.13260   0.15740
  Beta virt. eigenvalues --    0.16432   0.16571   0.16924   0.20053   0.21351

 Mulliken charges and spin densities:
               1          2
     1  C   -0.642156   1.191175
     2  C    0.486918  -0.166773
     3  C    0.486918  -0.166773
     4  C   -0.642156   1.191175
     5  H    0.155238  -0.024402
     6  H    0.155238  -0.024402
 Sum of Mulliken charges =  -0.00000   2.00000

 Dipole moment (field-independent basis, Debye):
    X=             -0.0000    Y=              0.0000    Z=              0.0000  Tot=              0.0000
 Quadrupole moment (field-independent basis, Debye-Ang):
   XX=            -18.7745   YY=            -26.5034   ZZ=            -23.8318
   XY=             -5.4107   XZ=             -0.0008   YZ=             -0.0003

 -152.9316478\CCSD=-152.9365278\CCSD(T)=-152.9663806\S2=2.303741\S2-1=2
 Normal termination of Gaussian 09 at Tue Oct 10 05:47:14 2017.
