 Gaussian 09, Revision E.01,
 Gaussian 09:  ES64L-G09RevE.01 30-Nov-2015

 -----------------------------------
 #p ccsd(t,maxcyc=200)/6-311++G(d,p)
 -----------------------------------

 -------------
 ccsd(t) iener
 -------------
 Symbolic Z-matrix:
 Charge =  0 Multiplicity = 3

                         Standard orientation:
 ---------------------------------------------------------------------
 Center     Atomic      Atomic             Coordinates (Angstroms)
 Number     Number       Type             X           Y           Z
 ---------------------------------------------------------------------
      1          6           0        0.758775    0.071952    0.072211
      2          6           0       -0.576554    0.439850   -0.005937
      3          6           0       -1.589844   -0.448812   -0.000764
      4          6           0        1.989351   -0.246209   -0.045680
      5          1           0       -0.820698    1.506973   -0.069752
      6          1           0       -2.669670   -0.407658   -0.049227
 ---------------------------------------------------------------------

 SCF Done:  E(UHF) =  -152.440339242     A.U. after   31 cycles
 E2 =    -0.4382122035D+00 EUMP2 =    -0.15287855144521D+03
 CCSD(T)
 CCSD(T)= -0.15295379395D+03

 The electronic state is 3-A.
 Alpha  occ. eigenvalues --  -11.31170 -11.29525 -11.28003 -11.27555  -1.14152
 Alpha  occ. eigenvalues --   -1.04849  -0.87543  -0.71272  -0.68724  -0.52420
 Alpha  occ. eigenvalues --   -0.47397  -0.45506  -0.41861  -0.41434
 Alpha virt. eigenvalues --    0.03198   0.05257   0.06125   0.10186   0.10682
 Alpha virt. eigenvalues --    0.12073   0.12638   0.12887   0.13876   0.13960
 Alpha virt. eigenvalues --    0.16196   0.16940   0.18341   0.19718   0.20087

  Beta  occ. eigenvalues --  -11.31069 -11.27848 -11.26935 -11.25834  -1.11040
  Beta  occ. eigenvalues --   -0.97272  -0.81328  -0.67662  -0.66160  -0.47336
  Beta  occ. eigenvalues --   -0.44824  -0.39320
  Beta virt. eigenvalues --   -0.00342   0.03249   0.05351   0.05597   0.08572
  Beta virt. eigenvalues --    0.11623   0.12637   0.12928   0.13652   0.14351
  Beta virt. eigenvalues --    0.15439   0.16361   0.17245   0.18497   0.18893

 Mulliken charges and spin densities:
               1          2
     1  C    0.235728   0.582950
     2  C   -0.389859  -0.784327
     3  C   -0.267989   1.839147
     4  C    0.031849   0.307191
     5  H    0.199302   0.122689
     6  H    0.190969  -0.067650
 Sum of Mulliken charges =  -0.00000   2.00000

 Dipole moment (field-independent basis, Debye):
    X=             -4.3367    Y=              1.2378    Z=              0.2121  Tot=              4.5148
 Quadrupole moment (field-independent basis, Debye-Ang):
   XX=            -27.0787   YY=            -24.0504   ZZ=            -24.2229
   XY=              0.7094   XZ=              1.0422   YZ=             -0.1663

 7\PMP3-0=-152.9240124\MP4SDQ=-152.9221981\CCSD=-152.9303494\CCSD(T)=-1
 Normal termination of Gaussian 09 at Tue Oct 10 05:45:43 2017.
