 Gaussian 09, Revision E.01,
 Gaussian 09:  ES64L-G09RevE.01 30-Nov-2015

 -----------------------------------
 #p ccsd(t,maxcyc=200)/6-311++G(d,p)
 -----------------------------------

 -------------
 ccsd(t) iener
 -------------
 Symbolic Z-matrix:
 Charge =  0 Multiplicity = 3

                         Standard orientation:
 ---------------------------------------------------------------------
 Center     Atomic      Atomic             Coordinates (Angstroms)
 Number     Number       Type             X           Y           Z
 ---------------------------------------------------------------------
      1          6           0        1.764913    0.067156    0.001248
      2          6           0        0.440840   -0.174706   -0.000770
      3          6           0       -0.830564   -0.011959   -0.004656
      4          6           0       -2.150681    0.062264    0.003498
      5          1           0        2.159708    1.083930   -0.000078
      6          1           0        2.493247   -0.740464    0.004148
 ---------------------------------------------------------------------

 SCF Done:  E(UHF) =  -152.449704856     A.U. after   29 cycles
 E2 =    -0.4510637097D+00 EUMP2 =    -0.15290076856595D+03
 CCSD(T)
 CCSD(T)= -0.15297602027D+03

 The electronic state is 3-A.
 Alpha  occ. eigenvalues --  -11.31841 -11.29850 -11.28934 -11.27730  -1.13897
 Alpha  occ. eigenvalues --   -1.05905  -0.91213  -0.72130  -0.67599  -0.52444
 Alpha  occ. eigenvalues --   -0.50235  -0.47658  -0.41358  -0.35055
 Alpha virt. eigenvalues --    0.03396   0.04360   0.05251   0.08855   0.10565
 Alpha virt. eigenvalues --    0.12052   0.12903   0.13042   0.15113   0.16643
 Alpha virt. eigenvalues --    0.17032   0.18455   0.19436   0.20696   0.21364

  Beta  occ. eigenvalues --  -11.30383 -11.29095 -11.27944 -11.26856  -1.09807
  Beta  occ. eigenvalues --   -0.98494  -0.85699  -0.69659  -0.63913  -0.46054
  Beta  occ. eigenvalues --   -0.43929  -0.42834
  Beta virt. eigenvalues --   -0.02116   0.03457   0.05127   0.06681   0.08036
  Beta virt. eigenvalues --    0.09119   0.12261   0.12895   0.13808   0.15334
  Beta virt. eigenvalues --    0.15542   0.17207   0.18505   0.19730   0.20863

 Mulliken charges and spin densities:
               1          2
     1  C   -0.695024   0.895683
     2  C    0.148017   0.214344
     3  C    0.718702  -0.132985
     4  C   -0.488108   1.081517
     5  H    0.166683  -0.011562
     6  H    0.149731  -0.046997
 Sum of Mulliken charges =  -0.00000   2.00000

 Dipole moment (field-independent basis, Debye):
    X=              4.9752    Y=              0.1763    Z=             -0.0253  Tot=              4.9784
 Quadrupole moment (field-independent basis, Debye-Ang):
   XX=            -27.8210   YY=            -23.9847   ZZ=            -24.0585
   XY=              0.6002   XZ=              0.0946   YZ=             -0.0044

 21\PMP3-0=-152.9428232\MP4SDQ=-152.9442873\CCSD=-152.9504206\CCSD(T)=-
 Normal termination of Gaussian 09 at Tue Oct 10 05:51:56 2017.
