 Gaussian 09, Revision E.01,
 Gaussian 09:  ES64L-G09RevE.01 30-Nov-2015

 -----------------------------------
 #p ccsd(t,maxcyc=200)/6-311++G(d,p)
 -----------------------------------

 -------------
 ccsd(t) iener
 -------------
 Symbolic Z-matrix:
 Charge =  0 Multiplicity = 3

                         Standard orientation:
 ---------------------------------------------------------------------
 Center     Atomic      Atomic             Coordinates (Angstroms)
 Number     Number       Type             X           Y           Z
 ---------------------------------------------------------------------
      1          6           0        1.735302   -0.169421    0.005255
      2          6           0        0.554900    0.140388   -0.004402
      3          6           0       -0.796746    0.443785   -0.023817
      4          6           0       -1.774298   -0.589597    0.009343
      5          1           0        2.761596   -0.450550    0.008737
      6          1           0       -1.076545    1.499627    0.072988
 ---------------------------------------------------------------------

 SCF Done:  E(UHF) =  -152.433828618     A.U. after   33 cycles
 E2 =    -0.4430080173D+00 EUMP2 =    -0.15287683663492D+03
 CCSD(T)
 CCSD(T)= -0.15295294550D+03

 The electronic state is 3-A.
 Alpha  occ. eigenvalues --  -11.30446 -11.28688 -11.28265 -11.26669  -1.13046
 Alpha  occ. eigenvalues --   -1.04589  -0.83839  -0.74896  -0.68969  -0.52617
 Alpha  occ. eigenvalues --   -0.49162  -0.43416  -0.40270  -0.37833
 Alpha virt. eigenvalues --    0.03378   0.04936   0.06968   0.10411   0.10860
 Alpha virt. eigenvalues --    0.11091   0.11712   0.13694   0.14965   0.15872
 Alpha virt. eigenvalues --    0.16190   0.16975   0.17335   0.18962   0.19656

  Beta  occ. eigenvalues --  -11.29101 -11.28203 -11.26161 -11.26149  -1.10131
  Beta  occ. eigenvalues --   -0.96953  -0.77834  -0.72204  -0.66176  -0.46406
  Beta  occ. eigenvalues --   -0.44269  -0.39889
  Beta virt. eigenvalues --   -0.00801   0.03457   0.05029   0.09056   0.09119
  Beta virt. eigenvalues --    0.10000   0.11636   0.12842   0.13245   0.15224
  Beta virt. eigenvalues --    0.16010   0.17196   0.18067   0.18384   0.19080

 Mulliken charges and spin densities:
               1          2
     1  C   -2.154638   0.985102
     2  C    1.865899  -0.665847
     3  C    0.083095   0.564999
     4  C   -0.145973   1.212893
     5  H    0.169392  -0.072267
     6  H    0.182224  -0.024880
 Sum of Mulliken charges =  -0.00000   2.00000

 Dipole moment (field-independent basis, Debye):
    X=              2.7060    Y=              1.6857    Z=             -0.2546  Tot=              3.1982
 Quadrupole moment (field-independent basis, Debye-Ang):
   XX=            -23.2348   YY=            -25.1293   ZZ=            -24.2920
   XY=             -5.2879   XZ=              0.7327   YZ=              0.3609

 \PMP3-0=-152.9192393\MP4SDQ=-152.9195715\CCSD=-152.9292093\CCSD(T)=-15
 Normal termination of Gaussian 09 at Tue Oct 10 06:06:07 2017.
