 Gaussian 09, Revision E.01,
 Gaussian 09:  ES64L-G09RevE.01 30-Nov-2015

 -----------------------------------
 #p ccsd(t,maxcyc=200)/6-311++G(d,p)
 -----------------------------------

 -------------
 ccsd(t) iener
 -------------
 Symbolic Z-matrix:
 Charge =  1 Multiplicity = 4

                         Standard orientation:
 ---------------------------------------------------------------------
 Center     Atomic      Atomic             Coordinates (Angstroms)
 Number     Number       Type             X           Y           Z
 ---------------------------------------------------------------------
      1          6           0       -0.000000    1.103044   -0.131786
      2          6           0       -0.853456    0.000000    0.144043
      3          6           0       -0.000000   -1.103044   -0.131786
      4          6           0        0.853456   -0.000000    0.144043
      5          1           0       -0.000000    2.181528   -0.073542
      6          1           0       -0.000000   -2.181528   -0.073542
 ---------------------------------------------------------------------

 SCF Done:  E(UHF) =  -152.111538133     A.U. after   17 cycles
 E2 =    -0.4409354703D+00 EUMP2 =    -0.15255247360300D+03
 CCSD(T)
 CCSD(T)= -0.15261405128D+03

 The electronic state is 4-A2.
 Alpha  occ. eigenvalues --  -11.62751 -11.62727 -11.55344 -11.55336  -1.55878
 Alpha  occ. eigenvalues --   -1.23345  -1.11295  -1.00496  -0.90963  -0.87482
 Alpha  occ. eigenvalues --   -0.85208  -0.79041  -0.64957  -0.60563
 Alpha virt. eigenvalues --   -0.15344  -0.12177  -0.08775  -0.07592  -0.06469
 Alpha virt. eigenvalues --   -0.05370  -0.02843  -0.02169  -0.00586  -0.00255
 Alpha virt. eigenvalues --    0.00456   0.01098   0.03634   0.04158   0.04895

  Beta  occ. eigenvalues --  -11.60011 -11.59990 -11.53523 -11.53521  -1.49712
  Beta  occ. eigenvalues --   -1.16322  -0.97202  -0.97174  -0.85736  -0.81007
  Beta  occ. eigenvalues --   -0.72485
  Beta virt. eigenvalues --   -0.26223  -0.17255  -0.15412  -0.08815  -0.08444
  Beta virt. eigenvalues --   -0.07349  -0.05558  -0.03644  -0.03290  -0.02032
  Beta virt. eigenvalues --   -0.00878   0.01212   0.01620   0.01712   0.03284

 Mulliken charges and spin densities:
               1          2
     1  C   -0.288983   0.865193
     2  C    0.481987   0.664589
     3  C   -0.288983   0.865193
     4  C    0.481987   0.664589
     5  H    0.306996  -0.029782
     6  H    0.306996  -0.029782
 Sum of Mulliken charges =   1.00000   3.00000

 Dipole moment (field-independent basis, Debye):
    X=             -0.0000    Y=              0.0000    Z=              0.0614  Tot=              0.0614
 Quadrupole moment (field-independent basis, Debye-Ang):
   XX=            -18.0095   YY=             -9.8203   ZZ=            -21.6583
   XY=             -0.0000   XZ=              0.0000   YZ=              0.0000

 01402\MP4SDQ=-152.5846683\CCSD=-152.5885925\CCSD(T)=-152.6140513\S2=3.
 Normal termination of Gaussian 09 at Tue Oct 10 06:36:46 2017.
