 Gaussian 09, Revision E.01,
 Gaussian 09:  ES64L-G09RevE.01 30-Nov-2015

 -----------------------------------
 #p ccsd(t,maxcyc=200)/6-311++G(d,p)
 -----------------------------------

 -------------
 ccsd(t) iener
 -------------
 Symbolic Z-matrix:
 Charge =  0 Multiplicity = 3

                         Standard orientation:
 ---------------------------------------------------------------------
 Center     Atomic      Atomic             Coordinates (Angstroms)
 Number     Number       Type             X           Y           Z
 ---------------------------------------------------------------------
      1          6           0        0.000000    0.681567   -1.129292
      2          6           0       -0.000000   -0.000000    1.487582
      3          6           0       -0.000000   -0.000000    0.092787
      4          6           0       -0.000000   -0.681567   -1.129292
      5          1           0       -0.000000   -0.935681    2.034647
      6          1           0        0.000000    0.935681    2.034647
 ---------------------------------------------------------------------

 SCF Done:  E(UHF) =  -152.431149208     A.U. after   18 cycles
 E2 =    -0.4814714724D+00 EUMP2 =    -0.15291262068035D+03
 CCSD(T)
 CCSD(T)= -0.15296910078D+03

 The electronic state is 3-A2.
 Alpha  occ. eigenvalues --  -11.33626 -11.30522 -11.28892 -11.28731  -1.25457
 Alpha  occ. eigenvalues --   -1.06488  -0.76274  -0.73352  -0.62904  -0.61985
 Alpha  occ. eigenvalues --   -0.55645  -0.44004  -0.40892  -0.40553
 Alpha virt. eigenvalues --    0.03890   0.05473   0.09423   0.10016   0.10585
 Alpha virt. eigenvalues --    0.10798   0.11145   0.14098   0.15267   0.15768
 Alpha virt. eigenvalues --    0.16915   0.17560   0.19821   0.20558   0.20994

  Beta  occ. eigenvalues --  -11.33245 -11.28564 -11.27282 -11.27120  -1.22331
  Beta  occ. eigenvalues --   -0.98801  -0.72294  -0.66847  -0.58355  -0.53889
  Beta  occ. eigenvalues --   -0.49568  -0.36131
  Beta virt. eigenvalues --    0.00748   0.01027   0.04079   0.05781   0.09584
  Beta virt. eigenvalues --    0.10450   0.10852   0.11774   0.12342   0.15682
  Beta virt. eigenvalues --    0.15691   0.17234   0.17751   0.19203   0.20397

 Mulliken charges and spin densities:
               1          2
     1  C   -0.445470   0.081609
     2  C   -0.154239   1.407920
     3  C    0.677903   0.572695
     4  C   -0.445470   0.081609
     5  H    0.183639  -0.071917
     6  H    0.183639  -0.071917
 Sum of Mulliken charges =   0.00000   2.00000

 Dipole moment (field-independent basis, Debye):
    X=              0.0000    Y=             -0.0000    Z=              3.4536  Tot=              3.4536
 Quadrupole moment (field-independent basis, Debye-Ang):
   XX=            -24.1399   YY=            -26.8984   ZZ=            -22.5433
   XY=             -0.0000   XZ=              0.0000   YZ=              0.0000

 76\MP4SDQ=-152.9410918\CCSD=-152.9422792\CCSD(T)=-152.9691008\S2=2.071
 Normal termination of Gaussian 09 at Tue Oct 10 05:42:43 2017.
