 Gaussian 09, Revision E.01,
 Gaussian 09:  ES64L-G09RevE.01 30-Nov-2015

 -----------------------------------
 #p ccsd(t,maxcyc=200)/6-311++G(d,p)
 -----------------------------------

 -------------
 ccsd(t) iener
 -------------
 Symbolic Z-matrix:
 Charge =  0 Multiplicity = 3

                         Standard orientation:
 ---------------------------------------------------------------------
 Center     Atomic      Atomic             Coordinates (Angstroms)
 Number     Number       Type             X           Y           Z
 ---------------------------------------------------------------------
      1          6           0       -0.000000    1.074037   -0.123180
      2          6           0       -0.896311    0.000000    0.135423
      3          6           0       -0.000000   -1.074037   -0.123180
      4          6           0        0.896311   -0.000000    0.135423
      5          1           0       -0.000000    2.148073   -0.073461
      6          1           0       -0.000000   -2.148073   -0.073461
 ---------------------------------------------------------------------

 SCF Done:  E(UHF) =  -152.424314212     A.U. after   16 cycles
 E2 =    -0.4990835213D+00 EUMP2 =    -0.15292339773348D+03
 CCSD(T)
 CCSD(T)= -0.15298298535D+03

 The electronic state is 3-A2.
 Alpha  occ. eigenvalues --  -11.30602 -11.30580 -11.29180 -11.29167  -1.26773
 Alpha  occ. eigenvalues --   -0.96680  -0.81064  -0.76488  -0.61121  -0.60679
 Alpha  occ. eigenvalues --   -0.58174  -0.45464  -0.36494  -0.34923
 Alpha virt. eigenvalues --    0.04518   0.04702   0.07678   0.09966   0.11556
 Alpha virt. eigenvalues --    0.11656   0.13144   0.13508   0.14336   0.16214
 Alpha virt. eigenvalues --    0.16749   0.18067   0.18606   0.19807   0.19927

  Beta  occ. eigenvalues --  -11.29853 -11.29816 -11.27153 -11.27149  -1.22364
  Beta  occ. eigenvalues --   -0.89324  -0.75948  -0.73522  -0.59569  -0.54088
  Beta  occ. eigenvalues --   -0.45629  -0.36555
  Beta virt. eigenvalues --    0.04621   0.04720   0.05109   0.05498   0.07937
  Beta virt. eigenvalues --    0.10388   0.11942   0.12178   0.13574   0.14490
  Beta virt. eigenvalues --    0.16245   0.17481   0.18057   0.18805   0.19047

 Mulliken charges and spin densities:
               1          2
     1  C   -0.204254   1.108137
     2  C    0.000498  -0.066366
     3  C   -0.204254   1.108137
     4  C    0.000498  -0.066366
     5  H    0.203756  -0.041771
     6  H    0.203756  -0.041771
 Sum of Mulliken charges =   0.00000   2.00000

 Dipole moment (field-independent basis, Debye):
    X=             -0.0000    Y=             -0.0000    Z=             -0.6116  Tot=              0.6116
 Quadrupole moment (field-independent basis, Debye-Ang):
   XX=            -28.6479   YY=            -17.3165   ZZ=            -25.1445
   XY=              0.0000   XZ=             -0.0000   YZ=             -0.0000

 17\MP4SDQ=-152.9478665\CCSD=-152.951959\CCSD(T)=-152.9829854\S2=2.1087
 Normal termination of Gaussian 09 at Tue Oct 10 06:02:17 2017.
