 Gaussian 09, Revision E.01,
 Gaussian 09:  ES64L-G09RevE.01 30-Nov-2015

 -----------------------------------
 #p ccsd(t,maxcyc=200)/6-311++G(d,p)
 -----------------------------------

 -------------
 ccsd(t) iener
 -------------
 Symbolic Z-matrix:
 Charge =  1 Multiplicity = 4

                         Standard orientation:
 ---------------------------------------------------------------------
 Center     Atomic      Atomic             Coordinates (Angstroms)
 Number     Number       Type             X           Y           Z
 ---------------------------------------------------------------------
      1          6           0       -1.666078   -0.653139   -0.016473
      2          6           0       -0.636212    0.479326   -0.005493
      3          6           0        0.726886    0.103553    0.008279
      4          6           0        1.894298   -0.277862   -0.005665
      5          1           0       -0.930736    1.147867   -0.833781
      6          1           0       -0.982626    0.940862    0.949899
 ---------------------------------------------------------------------

 SCF Done:  E(UHF) =  -152.012868627     A.U. after   30 cycles
 E2 =    -0.3937548092D+00 EUMP2 =    -0.15240662343662D+03
 CCSD(T)
 CCSD(T)= -0.15249480475D+03

 The electronic state is 4-A.
 Alpha  occ. eigenvalues --  -11.69440 -11.57260 -11.52745 -11.46573  -1.38250
 Alpha  occ. eigenvalues --   -1.27127  -1.11091  -0.95520  -0.87914  -0.84885
 Alpha  occ. eigenvalues --   -0.82206  -0.73451  -0.66642  -0.65688
 Alpha virt. eigenvalues --   -0.24428  -0.10413  -0.07330  -0.06808  -0.05199
 Alpha virt. eigenvalues --   -0.04201  -0.03734  -0.02026  -0.01385  -0.01039
 Alpha virt. eigenvalues --    0.00044   0.00267   0.01696   0.03651   0.04895

  Beta  occ. eigenvalues --  -11.64675 -11.56552 -11.48337 -11.46388  -1.34789
  Beta  occ. eigenvalues --   -1.18874  -0.98235  -0.89939  -0.88435  -0.62214
  Beta  occ. eigenvalues --   -0.61900
  Beta virt. eigenvalues --   -0.28648  -0.19627  -0.16231  -0.14409  -0.09486
  Beta virt. eigenvalues --   -0.07167  -0.04820  -0.03097  -0.02317  -0.01241
  Beta virt. eigenvalues --   -0.00836   0.00360   0.00445   0.01313   0.02167

 Mulliken charges and spin densities:
               1          2
     1  C    0.545095   1.653565
     2  C   -0.318363   0.132490
     3  C    0.413941  -0.646520
     4  C   -0.170794   1.886486
     5  H    0.273496  -0.001509
     6  H    0.256624  -0.024512
 Sum of Mulliken charges =   1.00000   3.00000

 Dipole moment (field-independent basis, Debye):
    X=             -3.7054    Y=             -0.1056    Z=              0.0785  Tot=              3.7077
 Quadrupole moment (field-independent basis, Debye-Ang):
   XX=             -8.3594   YY=            -18.4497   ZZ=            -19.5610
   XY=              0.0711   XZ=             -0.3284   YZ=              0.2322

 73\PMP3-0=-152.4525841\MP4SDQ=-152.45247\CCSD=-152.4707491\CCSD(T)=-15
 Normal termination of Gaussian 09 at Tue Oct 10 06:31:36 2017.
