 Gaussian 09, Revision E.01,
 Gaussian 09:  ES64L-G09RevE.01 30-Nov-2015

 -----------------------------------
 #p ccsd(t,maxcyc=200)/6-311++G(d,p)
 -----------------------------------

 -------------
 ccsd(t) iener
 -------------
 Symbolic Z-matrix:
 Charge =  1 Multiplicity = 2

                         Standard orientation:
 ---------------------------------------------------------------------
 Center     Atomic      Atomic             Coordinates (Angstroms)
 Number     Number       Type             X           Y           Z
 ---------------------------------------------------------------------
      1          6           0       -0.591581    0.678559    0.091184
      2          6           0        0.805788    0.431321   -0.094356
      3          6           0        0.446757   -0.842609    0.354418
      4          6           0       -0.732454   -0.647835   -0.350330
      5          1           0       -1.229514    1.403088    0.588885
      6          1           0        1.658449    0.880296   -0.594384
 ---------------------------------------------------------------------

 SCF Done:  E(UHF) =  -152.121868097     A.U. after   29 cycles
 E2 =    -0.4796219417D+00 EUMP2 =    -0.15260149003851D+03
 CCSD(T)
 CCSD(T)= -0.15266013595D+03

 The electronic state is 2-A.
 Alpha  occ. eigenvalues --  -11.60916 -11.60851 -11.60001 -11.58169  -1.57101
 Alpha  occ. eigenvalues --   -1.16945  -1.15457  -0.97610  -0.95309  -0.84708
 Alpha  occ. eigenvalues --   -0.77774  -0.74227  -0.68697
 Alpha virt. eigenvalues --   -0.17317  -0.15365  -0.12355  -0.08984  -0.08075
 Alpha virt. eigenvalues --   -0.05489  -0.05106  -0.02107  -0.01931  -0.00422
 Alpha virt. eigenvalues --   -0.00018   0.00374   0.02521   0.02667   0.03472

  Beta  occ. eigenvalues --  -11.60603 -11.60001 -11.58369 -11.56362  -1.55886
  Beta  occ. eigenvalues --   -1.14961  -1.13403  -0.94223  -0.92480  -0.83269
  Beta  occ. eigenvalues --   -0.75921  -0.59484
  Beta virt. eigenvalues --   -0.25297  -0.15403  -0.13717  -0.10913  -0.08024
  Beta virt. eigenvalues --   -0.07919  -0.04874  -0.04216  -0.01663  -0.01505
  Beta virt. eigenvalues --   -0.00104   0.00570   0.00735   0.02581   0.02671

 Mulliken charges and spin densities:
               1          2
     1  C   -0.094845  -0.077058
     2  C   -0.039864   0.043399
     3  C    0.210594   0.425148
     4  C    0.302826   0.632027
     5  H    0.307550  -0.009361
     6  H    0.313740  -0.014154
 Sum of Mulliken charges =   1.00000   1.00000

 Dipole moment (field-independent basis, Debye):
    X=              0.2356    Y=              2.4108    Z=             -0.3053  Tot=              2.4415
 Quadrupole moment (field-independent basis, Debye-Ang):
   XX=            -14.9701   YY=            -17.2478   ZZ=            -20.4180
   XY=              0.3929   XZ=             -2.7974   YZ=              0.9902

 PMP3-0=-152.6241142\MP4SDQ=-152.6254056\CCSD=-152.6293558\CCSD(T)=-152
 Normal termination of Gaussian 09 at Tue Oct 10 06:12:16 2017.
