 Gaussian 09, Revision E.01,
 Gaussian 09:  ES64L-G09RevE.01 30-Nov-2015

 -----------------------------------
 #p ccsd(t,maxcyc=200)/6-311++G(d,p)
 -----------------------------------

 -------------
 ccsd(t) iener
 -------------
 Symbolic Z-matrix:
 Charge =  0 Multiplicity = 3

                         Standard orientation:
 ---------------------------------------------------------------------
 Center     Atomic      Atomic             Coordinates (Angstroms)
 Number     Number       Type             X           Y           Z
 ---------------------------------------------------------------------
      1          6           0       -0.000000   -1.927835   -0.143353
      2          6           0        0.000000   -0.641608    0.050626
      3          6           0        0.000000    0.641608    0.050626
      4          6           0        0.000000    1.927835   -0.143353
      5          1           0        0.000000   -2.756691    0.556364
      6          1           0        0.000000    2.756691    0.556364
 ---------------------------------------------------------------------

 SCF Done:  E(UHF) =  -152.421026200     A.U. after   17 cycles
 E2 =    -0.4758092040D+00 EUMP2 =    -0.15289683540408D+03
 CCSD(T)
 CCSD(T)= -0.15296510586D+03

 The electronic state is 3-A2.
 Alpha  occ. eigenvalues --  -11.29795 -11.29794 -11.28751 -11.28534  -1.12383
 Alpha  occ. eigenvalues --   -1.05327  -0.91279  -0.71305  -0.68626  -0.54509
 Alpha  occ. eigenvalues --   -0.51237  -0.47475  -0.41285  -0.30805
 Alpha virt. eigenvalues --    0.03815   0.04356   0.05254   0.10339   0.11511
 Alpha virt. eigenvalues --    0.11658   0.11979   0.12423   0.14261   0.16610
 Alpha virt. eigenvalues --    0.17509   0.18865   0.19277   0.20772   0.23199

  Beta  occ. eigenvalues --  -11.29067 -11.28844 -11.27092 -11.27092  -1.09937
  Beta  occ. eigenvalues --   -0.98020  -0.86020  -0.68192  -0.66222  -0.48341
  Beta  occ. eigenvalues --   -0.45863  -0.31932
  Beta virt. eigenvalues --   -0.02133   0.04241   0.05137   0.05406   0.08894
  Beta virt. eigenvalues --    0.10781   0.11583   0.13361   0.13641   0.14728
  Beta virt. eigenvalues --    0.16281   0.16903   0.18044   0.19503   0.21707

 Mulliken charges and spin densities:
               1          2
     1  C   -0.551753   1.289071
     2  C    0.413456  -0.261070
     3  C    0.413456  -0.261070
     4  C   -0.551753   1.289071
     5  H    0.138297  -0.028001
     6  H    0.138297  -0.028001
 Sum of Mulliken charges =  -0.00000   2.00000

 Dipole moment (field-independent basis, Debye):
    X=             -0.0000    Y=             -0.0000    Z=              1.8499  Tot=              1.8499
 Quadrupole moment (field-independent basis, Debye-Ang):
   XX=            -23.8263   YY=            -18.6870   ZZ=            -26.5492
   XY=              0.0000   XZ=              0.0000   YZ=              0.0000

 9308943\MP4SDQ=-152.9306097\CCSD=-152.9354146\CCSD(T)=-152.9651059\S2=
 Normal termination of Gaussian 09 at Tue Oct 10 05:46:50 2017.
