 Gaussian 09, Revision E.01,
 Gaussian 09:  ES64L-G09RevE.01 30-Nov-2015

 -----------------------------------
 #p ccsd(t,maxcyc=200)/6-311++G(d,p)
 -----------------------------------

 -------------
 ccsd(t) iener
 -------------
 Symbolic Z-matrix:
 Charge =  1 Multiplicity = 2

                         Standard orientation:
 ---------------------------------------------------------------------
 Center     Atomic      Atomic             Coordinates (Angstroms)
 Number     Number       Type             X           Y           Z
 ---------------------------------------------------------------------
      1          6           0       -1.127004    0.255140    0.398565
      2          6           0        1.601880    0.456886   -0.268394
      3          6           0        1.454584   -0.811808    0.156495
      4          6           0        0.370556    0.006340    0.233626
      5          1           0        2.144602    1.295929   -0.689365
      6          1           0       -1.452360    0.817752    1.284898
      7          8           0       -1.811541   -0.194129   -0.464661
 ---------------------------------------------------------------------

 SCF Done:  E(UHF) =  -227.094874525     A.U. after   34 cycles
 E2 =    -0.6616312685D+00 EUMP2 =    -0.22775650579378D+03
 CCSD(T)
 CCSD(T)= -0.22781964909D+03

 The electronic state is 2-A.
 Alpha  occ. eigenvalues --  -20.80692 -11.62091 -11.59964 -11.59623 -11.57783
 Alpha  occ. eigenvalues --   -1.65562  -1.54336  -1.16498  -1.07823  -0.99348
 Alpha  occ. eigenvalues --   -0.94715  -0.88849  -0.84585  -0.79541  -0.78266
 Alpha  occ. eigenvalues --   -0.73000  -0.67414
 Alpha virt. eigenvalues --   -0.14616  -0.14350  -0.10577  -0.09545  -0.07395
 Alpha virt. eigenvalues --   -0.05977  -0.05080  -0.03509  -0.02248  -0.01582
 Alpha virt. eigenvalues --    0.00015   0.01698   0.01865   0.03077   0.03932

  Beta  occ. eigenvalues --  -20.79608 -11.59732 -11.59557 -11.58809 -11.58421
  Beta  occ. eigenvalues --   -1.63348  -1.52401  -1.16238  -1.06092  -0.97176
  Beta  occ. eigenvalues --   -0.88504  -0.85564  -0.82848  -0.77228  -0.72502
  Beta  occ. eigenvalues --   -0.66521
  Beta virt. eigenvalues --   -0.22709  -0.15230  -0.10032  -0.09576  -0.08993
  Beta virt. eigenvalues --   -0.07310  -0.05394  -0.04660  -0.02941  -0.01992
  Beta virt. eigenvalues --   -0.01262   0.00124   0.01947   0.02502   0.03240

 Mulliken charges and spin densities:
               1          2
     1  C   -0.131433  -0.314391
     2  C    0.051894   0.135813
     3  C    0.377025   0.793555
     4  C    0.305131   0.095862
     5  H    0.329147  -0.000529
     6  H    0.211372   0.019357
     7  O   -0.143137   0.270334
 Sum of Mulliken charges =   1.00000   1.00000

 Dipole moment (field-independent basis, Debye):
    X=              5.2365    Y=              1.9042    Z=              1.6335  Tot=              5.8065
 Quadrupole moment (field-independent basis, Debye-Ang):
   XX=            -16.6596   YY=            -21.3698   ZZ=            -23.3004
   XY=              0.2720   XZ=             -5.1499   YZ=             -0.6787

 838543\CCSD=-227.7856945\CCSD(T)=-227.8196491\S2=0.821624\S2-1=0.79917
 Normal termination of Gaussian 09 at Tue Oct 10 02:58:10 2017.
