 Gaussian 09, Revision E.01,
 Gaussian 09:  ES64L-G09RevE.01 30-Nov-2015

 -----------------------------------
 #p ccsd(t,maxcyc=200)/6-311++G(d,p)
 -----------------------------------

 -------------
 ccsd(t) iener
 -------------
 Symbolic Z-matrix:
 Charge =  1 Multiplicity = 4

                         Standard orientation:
 ---------------------------------------------------------------------
 Center     Atomic      Atomic             Coordinates (Angstroms)
 Number     Number       Type             X           Y           Z
 ---------------------------------------------------------------------
      1          6           0       -0.000000    1.950583   -0.084377
      2          6           0       -0.000000    0.624958   -0.006857
      3          6           0       -0.000000   -0.624958   -0.006857
      4          6           0       -0.000000   -1.950583   -0.084377
      5          1           0        0.000000    2.832169    0.547406
      6          1           0       -0.000000   -2.832169    0.547406
 ---------------------------------------------------------------------

 SCF Done:  E(UHF) =  -152.153778172     A.U. after   16 cycles
 E2 =    -0.4190530586D+00 EUMP2 =    -0.15257283123085D+03
 CCSD(T)
 CCSD(T)= -0.15264030095D+03

 The electronic state is 4-B1.
 Alpha  occ. eigenvalues --  -11.57339 -11.57339 -11.55096 -11.54833  -1.38500
 Alpha  occ. eigenvalues --   -1.32133  -1.17509  -0.96864  -0.94351  -0.82471
 Alpha  occ. eigenvalues --   -0.75995  -0.75820  -0.67164  -0.57314
 Alpha virt. eigenvalues --   -0.20759  -0.09137  -0.07362  -0.04917  -0.04168
 Alpha virt. eigenvalues --   -0.03875  -0.03727  -0.01911  -0.01011   0.01994
 Alpha virt. eigenvalues --    0.02528   0.04597   0.04597   0.04796   0.07044

  Beta  occ. eigenvalues --  -11.55339 -11.55045 -11.53300 -11.53299  -1.34847
  Beta  occ. eigenvalues --   -1.19328  -1.09880  -0.92622  -0.91126  -0.71514
  Beta  occ. eigenvalues --   -0.68884
  Beta virt. eigenvalues --   -0.24008  -0.22662  -0.10335  -0.09393  -0.08669
  Beta virt. eigenvalues --   -0.06760  -0.03685  -0.01920  -0.01248  -0.01117
  Beta virt. eigenvalues --   -0.01094   0.00711   0.03208   0.05255   0.05276

 Mulliken charges and spin densities:
               1          2
     1  C   -0.632175   1.638136
     2  C    0.889558  -0.073383
     3  C    0.889558  -0.073383
     4  C   -0.632175   1.638136
     5  H    0.242617  -0.064753
     6  H    0.242617  -0.064753
 Sum of Mulliken charges =   1.00000   3.00000

 Dipole moment (field-independent basis, Debye):
    X=             -0.0000    Y=             -0.0000    Z=              1.0407  Tot=              1.0407
 Quadrupole moment (field-independent basis, Debye-Ang):
   XX=            -21.0172   YY=              3.3783   ZZ=            -21.3534
   XY=              0.0000   XZ=             -0.0000   YZ=              0.0000

 2.607742\MP4SDQ=-152.610161\CCSD=-152.6161444\CCSD(T)=-152.640301\S2=4
 Normal termination of Gaussian 09 at Tue Oct 10 06:17:10 2017.
