 Gaussian 09, Revision E.01,
 Gaussian 09:  ES64L-G09RevE.01 30-Nov-2015

 -----------------------------------
 #p ccsd(t,maxcyc=200)/6-311++G(d,p)
 -----------------------------------

 -------------
 ccsd(t) iener
 -------------
 Symbolic Z-matrix:
 Charge =  0 Multiplicity = 1

                         Standard orientation:
 ---------------------------------------------------------------------
 Center     Atomic      Atomic             Coordinates (Angstroms)
 Number     Number       Type             X           Y           Z
 ---------------------------------------------------------------------
      1          6           0       -0.671177    0.191420    0.568980
      2          6           0        0.671177   -0.191420    0.568980
      3          6           0        0.671177    0.318285   -0.763396
      4          6           0       -0.671177   -0.318285   -0.763396
      5          1           0       -1.314736    0.822130    1.166496
      6          1           0        1.314736   -0.822130    1.166496
 ---------------------------------------------------------------------

 SCF Done:  E(RHF) =  -152.425201060     A.U. after   14 cycles
 E2 =    -0.5144800193D+00 EUMP2 =    -0.15293968107960D+03
 CCSD(T)
 CCSD(T)= -0.15299624379D+03

 The electronic state is 1-A.
 Alpha  occ. eigenvalues --  -11.32269 -11.32149 -11.28366 -11.28286  -1.27123
 Alpha  occ. eigenvalues --   -0.88688  -0.87527  -0.70948  -0.67876  -0.54035
 Alpha  occ. eigenvalues --   -0.48170  -0.40406  -0.36469
 Alpha virt. eigenvalues --    0.03227   0.04561   0.05976   0.07448   0.10452
 Alpha virt. eigenvalues --    0.11587   0.11772   0.13547   0.13622   0.15995
 Alpha virt. eigenvalues --    0.16054   0.16973   0.17507   0.18569   0.19018

 Mulliken charges:
               1
     1  C   -0.129014
     2  C   -0.129014
     3  C   -0.078699
     4  C   -0.078699
     5  H    0.207714
     6  H    0.207714
 Sum of Mulliken charges =  -0.00000

 Dipole moment (field-independent basis, Debye):
    X=              0.0000    Y=              0.0000    Z=              4.1921  Tot=              4.1921
 Quadrupole moment (field-independent basis, Debye-Ang):
   XX=            -24.3017   YY=            -24.3454   ZZ=            -25.6497
   XY=             -5.0805   XZ=              0.0000   YZ=             -0.0000

 DQ=-152.9548902\MP4SDQ=-152.9633693\CCSD=-152.9648416\CCSD(T)=-152.996
 Normal termination of Gaussian 09 at Tue Oct 10 05:38:33 2017.
