 Gaussian 09, Revision E.01,
 Gaussian 09:  ES64L-G09RevE.01 30-Nov-2015

 -----------------------------------
 #p ccsd(t,maxcyc=200)/6-311++G(d,p)
 -----------------------------------

 -------------
 ccsd(t) iener
 -------------
 Symbolic Z-matrix:
 Charge =  0 Multiplicity = 1

                         Standard orientation:
 ---------------------------------------------------------------------
 Center     Atomic      Atomic             Coordinates (Angstroms)
 Number     Number       Type             X           Y           Z
 ---------------------------------------------------------------------
      1          6           0        1.057546   -0.117193    0.408721
      2          6           0       -1.565733   -0.784049   -0.262209
      3          6           0       -1.528629    0.588430    0.019741
      4          6           0       -0.376524   -0.073332    0.125599
      5          1           0       -2.042504    1.534187    0.103810
      6          1           0        1.310000   -0.430203    1.441325
      7          8           0        1.901568    0.151611   -0.412031
 ---------------------------------------------------------------------

 SCF Done:  E(RHF) =  -227.399260607     A.U. after   15 cycles
 E2 =    -0.7017312594D+00 EUMP2 =    -0.22810099186653D+03
 CCSD(T)
 CCSD(T)= -0.22815694159D+03

 The electronic state is 1-A.
 Alpha  occ. eigenvalues --  -20.59518 -11.38253 -11.31574 -11.31252 -11.28148
 Alpha  occ. eigenvalues --   -1.43220  -1.24602  -0.96464  -0.81348  -0.76619
 Alpha  occ. eigenvalues --   -0.68691  -0.66474  -0.57032  -0.51819  -0.50446
 Alpha  occ. eigenvalues --   -0.45714  -0.39156
 Alpha virt. eigenvalues --    0.03150   0.04644   0.07138   0.08120   0.09174
 Alpha virt. eigenvalues --    0.10253   0.10711   0.11907   0.12397   0.14463
 Alpha virt. eigenvalues --    0.15165   0.15800   0.16894   0.17538   0.19415

 Mulliken charges:
               1
     1  C   -0.180794
     2  C   -0.142207
     3  C    0.068000
     4  C    0.199881
     5  H    0.221861
     6  H    0.126980
     7  O   -0.293720
 Sum of Mulliken charges =  -0.00000

 Dipole moment (field-independent basis, Debye):
    X=             -0.9074    Y=              2.3467    Z=              2.7793  Tot=              3.7490
 Quadrupole moment (field-independent basis, Debye-Ang):
   XX=            -35.1350   YY=            -29.4772   ZZ=            -27.6649
   XY=             -7.7594   XZ=              1.8946   YZ=             -1.1398

 -228.1242515\CCSD=-228.1223487\CCSD(T)=-228.1569416\RMSD=9.985e-09\PG=
 Normal termination of Gaussian 09 at Tue Oct 10 02:39:02 2017.
