 Gaussian 09, Revision E.01,
 Gaussian 09:  ES64L-G09RevE.01 30-Nov-2015

 -----------------------------------
 #p ccsd(t,maxcyc=200)/6-311++G(d,p)
 -----------------------------------

 -------------
 ccsd(t) iener
 -------------
 Symbolic Z-matrix:
 Charge =  0 Multiplicity = 1

                         Standard orientation:
 ---------------------------------------------------------------------
 Center     Atomic      Atomic             Coordinates (Angstroms)
 Number     Number       Type             X           Y           Z
 ---------------------------------------------------------------------
      1          6           0       -0.000000   -0.642677   -0.880383
      2          6           0        0.000000    0.000000    0.459013
      3          6           0        0.000000    0.000000    1.750069
      4          6           0        0.000000    0.642677   -0.880383
      5          1           0       -0.000000    1.611969   -1.344950
      6          1           0        0.000000   -1.611969   -1.344950
 ---------------------------------------------------------------------

 SCF Done:  E(RHF) =  -152.433488264     A.U. after   13 cycles
 E2 =    -0.5031374697D+00 EUMP2 =    -0.15293662573373D+03
 CCSD(T)
 CCSD(T)= -0.15299516934D+03

 The electronic state is 1-A1.
 Alpha  occ. eigenvalues --  -11.32164 -11.31936 -11.26344 -11.25408  -1.22876
 Alpha  occ. eigenvalues --   -0.97498  -0.82904  -0.76947  -0.61344  -0.53811
 Alpha  occ. eigenvalues --   -0.48389  -0.42718  -0.33048
 Alpha virt. eigenvalues --    0.03126   0.03678   0.07339   0.07875   0.08859
 Alpha virt. eigenvalues --    0.09893   0.12451   0.12465   0.14341   0.15770
 Alpha virt. eigenvalues --    0.16232   0.16525   0.18956   0.19221   0.19484

 Mulliken charges:
               1
     1  C   -0.118814
     2  C    0.074683
     3  C   -0.274586
     4  C   -0.118814
     5  H    0.218766
     6  H    0.218766
 Sum of Mulliken charges =  -0.00000

 Dipole moment (field-independent basis, Debye):
    X=             -0.0000    Y=              0.0000    Z=             -5.1325  Tot=              5.1325
 Quadrupole moment (field-independent basis, Debye-Ang):
   XX=            -25.9628   YY=            -18.0146   ZZ=            -30.1320
   XY=              0.0000   XZ=             -0.0000   YZ=             -0.0000

 52.9592694\MP4SDQ=-152.9662467\CCSD=-152.9674391\CCSD(T)=-152.9951693\
 Normal termination of Gaussian 09 at Tue Oct 10 05:39:36 2017.
