 Gaussian 09, Revision E.01,
 Gaussian 09:  ES64L-G09RevE.01 30-Nov-2015

 -----------------------------------
 #p ccsd(t,maxcyc=200)/6-311++G(d,p)
 -----------------------------------

 -------------
 ccsd(t) iener
 -------------
 Symbolic Z-matrix:
 Charge =  0 Multiplicity = 3

                         Standard orientation:
 ---------------------------------------------------------------------
 Center     Atomic      Atomic             Coordinates (Angstroms)
 Number     Number       Type             X           Y           Z
 ---------------------------------------------------------------------
      1          6           0        1.779322   -0.507549   -0.039906
      2          6           0        0.633629    0.407616   -0.009627
      3          6           0       -0.725990   -0.075322   -0.043467
      4          6           0       -1.977920   -0.156242    0.019868
      5          1           0        0.949246    0.670179    1.044794
      6          1           0        0.796501    1.318802   -0.606005
 ---------------------------------------------------------------------

 SCF Done:  E(UHF) =  -152.345487211     A.U. after   43 cycles
 E2 =    -0.4344831899D+00 EUMP2 =    -0.15277997040064D+03
 CCSD(T)
 CCSD(T)= -0.15286282366D+03

 The electronic state is 3-A.
 Alpha  occ. eigenvalues --  -11.33095 -11.30826 -11.29969 -11.29030  -1.15978
 Alpha  occ. eigenvalues --   -1.06074  -0.83667  -0.71739  -0.64932  -0.53612
 Alpha  occ. eigenvalues --   -0.48564  -0.44852  -0.43381  -0.41502
 Alpha virt. eigenvalues --    0.03281   0.04366   0.05815   0.09455   0.10272
 Alpha virt. eigenvalues --    0.10986   0.12066   0.12269   0.12677   0.13659
 Alpha virt. eigenvalues --    0.14919   0.16371   0.16853   0.18436   0.19948

  Beta  occ. eigenvalues --  -11.31355 -11.30503 -11.28660 -11.27964  -1.11568
  Beta  occ. eigenvalues --   -0.99263  -0.76878  -0.67440  -0.63670  -0.46347
  Beta  occ. eigenvalues --   -0.44858  -0.41190
  Beta virt. eigenvalues --   -0.02074   0.03833   0.05364   0.06517   0.07218
  Beta virt. eigenvalues --    0.10377   0.11202   0.12548   0.12939   0.13355
  Beta virt. eigenvalues --    0.14624   0.15251   0.15972   0.17682   0.18235

 Mulliken charges and spin densities:
               1          2
     1  C   -0.003867   1.077150
     2  C   -0.509829  -0.307447
     3  C    0.208012   0.822492
     4  C   -0.036897   0.314884
     5  H    0.160368   0.025050
     6  H    0.182214   0.067870
 Sum of Mulliken charges =  -0.00000   2.00000

 Dipole moment (field-independent basis, Debye):
    X=              1.6009    Y=              1.7344    Z=             -0.0407  Tot=              2.3606
 Quadrupole moment (field-independent basis, Debye-Ang):
   XX=            -36.0555   YY=            -24.1517   ZZ=            -22.9911
   XY=              3.2047   XZ=              1.0612   YZ=              1.0239

 MP3-0=-152.8252768\MP4SDQ=-152.8282801\CCSD=-152.8393042\CCSD(T)=-152.
 Normal termination of Gaussian 09 at Tue Oct 10 05:58:35 2017.
