 Gaussian 09, Revision E.01,
 Gaussian 09:  ES64L-G09RevE.01 30-Nov-2015

 -----------------------------------
 #p ccsd(t,maxcyc=200)/6-311++G(d,p)
 -----------------------------------

 -------------
 ccsd(t) iener
 -------------
 Symbolic Z-matrix:
 Charge =  1 Multiplicity = 2

                         Standard orientation:
 ---------------------------------------------------------------------
 Center     Atomic      Atomic             Coordinates (Angstroms)
 Number     Number       Type             X           Y           Z
 ---------------------------------------------------------------------
      1          6           0       -1.105808   -0.177369   -0.000044
      2          6           0        1.076771   -0.324356    0.000083
      3          8           0       -0.091479   -1.060500   -0.000037
      4          6           0        0.728281    1.027767   -0.000026
      5          6           0       -0.558736    1.130262    0.000006
      6          1           0       -2.114118   -0.571426    0.000264
      7          1           0        2.002897   -0.882396   -0.000081
 ---------------------------------------------------------------------

 SCF Done:  E(UHF) =  -227.000195304     A.U. after   35 cycles
 E2 =    -0.7273604961D+00 EUMP2 =    -0.22772755580028D+03
 CCSD(T)
 CCSD(T)= -0.22778915674D+03

 The electronic state is 2-A.
 Alpha  occ. eigenvalues --  -20.90740 -11.64562 -11.63644 -11.55687 -11.55278
 Alpha  occ. eigenvalues --   -1.75501  -1.39139  -1.30475  -1.08619  -1.04090
 Alpha  occ. eigenvalues --   -0.98034  -0.93106  -0.89012  -0.83517  -0.68335
 Alpha  occ. eigenvalues --   -0.65202  -0.64280
 Alpha virt. eigenvalues --   -0.26673  -0.17278  -0.09144  -0.07307  -0.04919
 Alpha virt. eigenvalues --   -0.04800  -0.04168  -0.02837  -0.02758  -0.01430
 Alpha virt. eigenvalues --   -0.00838   0.00730   0.02589   0.03396   0.04070

  Beta  occ. eigenvalues --  -20.91362 -11.63166 -11.62049 -11.55799 -11.55543
  Beta  occ. eigenvalues --   -1.75401  -1.38625  -1.24933  -1.05952  -1.03077
  Beta  occ. eigenvalues --   -0.98018  -0.89256  -0.88352  -0.83371  -0.68656
  Beta  occ. eigenvalues --   -0.64893
  Beta virt. eigenvalues --   -0.26060  -0.24334  -0.09000  -0.08765  -0.07208
  Beta virt. eigenvalues --   -0.04523  -0.04028  -0.02852  -0.02714  -0.01235
  Beta virt. eigenvalues --   -0.00550   0.00762   0.01735   0.02657   0.03490

 Mulliken charges and spin densities:
               1          2
     1  C   -0.003614   0.653070
     2  C   -0.024497   0.748577
     3  O    0.005491  -0.170775
     4  C    0.192881  -0.170062
     5  C    0.185791   0.040542
     6  H    0.322566  -0.047983
     7  H    0.321382  -0.053368
 Sum of Mulliken charges =   1.00000   1.00000

 Dipole moment (field-independent basis, Debye):
    X=             -0.0852    Y=             -0.0358    Z=              0.0002  Tot=              0.0924
 Quadrupole moment (field-independent basis, Debye-Ang):
   XX=            -13.2013   YY=            -24.7697   ZZ=            -26.4518
   XY=             -0.6990   XZ=             -0.0004   YZ=             -0.0002

 7428603\CCSD=-227.743494\CCSD(T)=-227.7891567\S2=0.821641\S2-1=0.78657
 Normal termination of Gaussian 09 at Tue Oct 10 03:17:47 2017.
