 Gaussian 09, Revision E.01,
 Gaussian 09:  ES64L-G09RevE.01 30-Nov-2015

 -----------------------------------
 #p ccsd(t,maxcyc=200)/6-311++G(d,p)
 -----------------------------------

 -------------
 ccsd(t) iener
 -------------
 Symbolic Z-matrix:
 Charge =  1 Multiplicity = 2

                         Standard orientation:
 ---------------------------------------------------------------------
 Center     Atomic      Atomic             Coordinates (Angstroms)
 Number     Number       Type             X           Y           Z
 ---------------------------------------------------------------------
      1          6           0       -0.364711   -0.942352    0.057074
      2          6           0        0.956298    0.641945    0.007248
      3          8           0        0.978648   -0.684038   -0.043675
      4          6           0       -0.424297    0.975882   -0.019532
      5          6           0       -1.373900    0.044222   -0.002314
      6          1           0        1.856646    1.227594    0.136588
      7          1           0       -2.446175   -0.073468   -0.042045
 ---------------------------------------------------------------------

 SCF Done:  E(UHF) =  -226.994812395     A.U. after   42 cycles
 E2 =    -0.6869771643D+00 EUMP2 =    -0.22768178955937D+03
 CCSD(T)
 CCSD(T)= -0.22778011108D+03

 The electronic state is 2-A.
 Alpha  occ. eigenvalues --  -20.91643 -11.63692 -11.60469 -11.59623 -11.57798
 Alpha  occ. eigenvalues --   -1.77370  -1.43427  -1.27494  -1.09522  -1.02814
 Alpha  occ. eigenvalues --   -0.98014  -0.94202  -0.92190  -0.84630  -0.72486
 Alpha  occ. eigenvalues --   -0.66691  -0.60771
 Alpha virt. eigenvalues --   -0.24448  -0.13545  -0.09269  -0.07392  -0.06698
 Alpha virt. eigenvalues --   -0.04689  -0.04186  -0.04027  -0.02823  -0.01216
 Alpha virt. eigenvalues --   -0.00559   0.00794   0.02495   0.02702   0.03359

  Beta  occ. eigenvalues --  -20.91716 -11.63090 -11.59757 -11.58675 -11.57565
  Beta  occ. eigenvalues --   -1.76517  -1.42590  -1.22355  -1.08593  -1.01445
  Beta  occ. eigenvalues --   -0.96434  -0.91948  -0.89851  -0.84147  -0.71686
  Beta  occ. eigenvalues --   -0.63890
  Beta virt. eigenvalues --   -0.22660  -0.21174  -0.09184  -0.08474  -0.07216
  Beta virt. eigenvalues --   -0.05390  -0.03800  -0.03571  -0.02533  -0.01189
  Beta virt. eigenvalues --   -0.00980   0.00510   0.01469   0.02744   0.02819

 Mulliken charges and spin densities:
               1          2
     1  C    0.157232   0.250044
     2  C   -0.173613   0.824480
     3  O    0.034960  -0.076671
     4  C    0.324218  -0.034046
     5  C    0.033041   0.097587
     6  H    0.304155  -0.057512
     7  H    0.320008  -0.003883
 Sum of Mulliken charges =   1.00000   1.00000

 Dipole moment (field-independent basis, Debye):
    X=             -1.5223    Y=              2.0210    Z=              0.1425  Tot=              2.5342
 Quadrupole moment (field-independent basis, Debye-Ang):
   XX=            -14.3958   YY=            -22.6155   ZZ=            -26.7160
   XY=              3.3539   XZ=              0.5091   YZ=              0.8120

 48244\CCSD=-227.7312296\CCSD(T)=-227.7801111\S2=1.230365\S2-1=1.141908
 Normal termination of Gaussian 09 at Tue Oct 10 04:05:56 2017.
