 Gaussian 09, Revision E.01,
 Gaussian 09:  ES64L-G09RevE.01 30-Nov-2015

 -----------------------------------
 #p ccsd(t,maxcyc=200)/6-311++G(d,p)
 -----------------------------------

 -------------
 ccsd(t) iener
 -------------
 Symbolic Z-matrix:
 Charge =  1 Multiplicity = 2

                         Standard orientation:
 ---------------------------------------------------------------------
 Center     Atomic      Atomic             Coordinates (Angstroms)
 Number     Number       Type             X           Y           Z
 ---------------------------------------------------------------------
      1          6           0        0.000000    1.147291    0.000000
      2          6           0        0.000000   -0.000000    0.793667
      3          6           0       -0.000000   -1.147291   -0.000000
      4          6           0       -0.000000    0.000000   -0.793667
      5          1           0        0.000000    2.225348    0.000000
      6          1           0       -0.000000   -2.225348   -0.000000
 ---------------------------------------------------------------------

 SCF Done:  E(UHF) =  -152.170485616     A.U. after   14 cycles
 E2 =    -0.4911117617D+00 EUMP2 =    -0.15266159737750D+03
 CCSD(T)
 CCSD(T)= -0.15271219874D+03

 The electronic state is 2-AG.
 Alpha  occ. eigenvalues --  -11.61385 -11.61317 -11.59192 -11.59177  -1.59424
 Alpha  occ. eigenvalues --   -1.28074  -1.03749  -1.03188  -0.92475  -0.86670
 Alpha  occ. eigenvalues --   -0.85171  -0.67279  -0.64728
 Alpha virt. eigenvalues --   -0.15907  -0.15466  -0.09333  -0.07794  -0.06937
 Alpha virt. eigenvalues --   -0.05919  -0.04830  -0.04096  -0.02373  -0.01033
 Alpha virt. eigenvalues --   -0.00915   0.01591   0.01820   0.02787   0.04026

  Beta  occ. eigenvalues --  -11.61967 -11.61895 -11.57365 -11.57360  -1.57837
  Beta  occ. eigenvalues --   -1.21439  -1.03669  -1.00846  -0.91688  -0.83839
  Beta  occ. eigenvalues --   -0.77908  -0.68678
  Beta virt. eigenvalues --   -0.19869  -0.18767  -0.14332  -0.09189  -0.07627
  Beta virt. eigenvalues --   -0.05892  -0.05793  -0.03374  -0.02367  -0.00964
  Beta virt. eigenvalues --    0.00744   0.01118   0.01406   0.01707   0.03172

 Mulliken charges and spin densities:
               1          2
     1  C   -0.490708   0.887001
     2  C    0.694008  -0.340873
     3  C   -0.490708   0.887001
     4  C    0.694008  -0.340873
     5  H    0.296700  -0.046129
     6  H    0.296700  -0.046129
 Sum of Mulliken charges =   1.00000   1.00000

 Dipole moment (field-independent basis, Debye):
    X=             -0.0000    Y=              0.0000    Z=             -0.0000  Tot=              0.0000
 Quadrupole moment (field-independent basis, Debye-Ang):
   XX=            -20.9115   YY=             -7.3780   ZZ=            -21.6071
   XY=              0.0000   XZ=              0.0000   YZ=              0.0000

 DQ=-152.6816153\CCSD=-152.6825881\CCSD(T)=-152.7121987\S2=0.826362\S2-
 Normal termination of Gaussian 09 at Tue Oct 10 06:15:06 2017.
