 Gaussian 09, Revision E.01,
 Gaussian 09:  ES64L-G09RevE.01 30-Nov-2015

 -----------------------------------
 #p ccsd(t,maxcyc=200)/6-311++G(d,p)
 -----------------------------------

 -------------
 ccsd(t) iener
 -------------
 Symbolic Z-matrix:
 Charge =  0 Multiplicity = 1

                         Standard orientation:
 ---------------------------------------------------------------------
 Center     Atomic      Atomic             Coordinates (Angstroms)
 Number     Number       Type             X           Y           Z
 ---------------------------------------------------------------------
      1          6           0        0.000000    0.000000   -1.748534
      2          6           0       -0.000000   -0.000000    0.841315
      3          6           0       -0.000000   -0.000000    2.123168
      4          6           0        0.000000    0.000000   -0.447893
      5          1           0        0.000000    0.932312   -2.304168
      6          1           0       -0.000000   -0.932312   -2.304168
 ---------------------------------------------------------------------

 SCF Done:  E(RHF) =  -152.470229048     A.U. after   14 cycles
 E2 =    -0.5072643273D+00 EUMP2 =    -0.15297749337540D+03
 CCSD(T)
 CCSD(T)= -0.15303578235D+03

 The electronic state is 1-A1.
 Alpha  occ. eigenvalues --  -11.34915 -11.30091 -11.29090 -11.24220  -1.13301
 Alpha  occ. eigenvalues --   -1.03706  -0.89333  -0.71543  -0.65848  -0.51881
 Alpha  occ. eigenvalues --   -0.46431  -0.44059  -0.36109
 Alpha virt. eigenvalues --    0.00686   0.03540   0.05300   0.05469   0.09255
 Alpha virt. eigenvalues --    0.11415   0.11837   0.12822   0.13433   0.15161
 Alpha virt. eigenvalues --    0.17042   0.17550   0.19812   0.20497   0.21468

 Mulliken charges:
               1
     1  C   -0.676884
     2  C   -0.005770
     3  C   -0.226757
     4  C    0.564846
     5  H    0.172282
     6  H    0.172282
 Sum of Mulliken charges =  -0.00000

 Dipole moment (field-independent basis, Debye):
    X=              0.0000    Y=             -0.0000    Z=             -4.5987  Tot=              4.5987
 Quadrupole moment (field-independent basis, Debye-Ang):
   XX=            -26.1895   YY=            -22.0636   ZZ=            -26.7225
   XY=              0.0000   XZ=              0.0000   YZ=              0.0000

 2.9957339\MP4SDQ=-153.0051696\CCSD=-153.0044141\CCSD(T)=-153.0357823\R
 Normal termination of Gaussian 09 at Tue Oct 10 05:41:09 2017.
