 Gaussian 09, Revision E.01,
 Gaussian 09:  ES64L-G09RevE.01 30-Nov-2015

 -----------------------------------
 #p ccsd(t,maxcyc=200)/6-311++G(d,p)
 -----------------------------------

 -------------
 ccsd(t) iener
 -------------
 Symbolic Z-matrix:
 Charge =  1 Multiplicity = 2

                         Standard orientation:
 ---------------------------------------------------------------------
 Center     Atomic      Atomic             Coordinates (Angstroms)
 Number     Number       Type             X           Y           Z
 ---------------------------------------------------------------------
      1          6           0       -1.173649    0.051876    0.000000
      2          6           0        1.204586    0.129836   -0.000000
      3          6           0       -0.000000    0.775840   -0.000000
      4          6           0        2.298952   -0.419448   -0.000000
      5          1           0        3.256692   -0.899405   -0.000000
      6          1           0       -0.098401    1.861782   -0.000000
      7          8           0       -2.142203   -0.523875    0.000000
 ---------------------------------------------------------------------

 SCF Done:  E(UHF) =  -227.174209215     A.U. after   29 cycles
 E2 =    -0.6706031283D+00 EUMP2 =    -0.22784481234313D+03
 CCSD(T)
 CCSD(T)= -0.22790919604D+03

 The electronic state is 2-A".
 Alpha  occ. eigenvalues --  -20.94707 -11.68100 -11.56258 -11.50774 -11.49065
 Alpha  occ. eigenvalues --   -1.79813  -1.38371  -1.27885  -1.07021  -1.01350
 Alpha  occ. eigenvalues --   -0.95348  -0.94697  -0.93468  -0.87260  -0.74573
 Alpha  occ. eigenvalues --   -0.65337  -0.62712
 Alpha virt. eigenvalues --   -0.13281  -0.10521  -0.10006  -0.07146  -0.05981
 Alpha virt. eigenvalues --   -0.04800  -0.04309  -0.02737  -0.01519  -0.01123
 Alpha virt. eigenvalues --    0.00193   0.00626   0.01422   0.01941   0.02883

  Beta  occ. eigenvalues --  -20.93488 -11.68583 -11.54855 -11.50648 -11.48414
  Beta  occ. eigenvalues --   -1.77596  -1.36060  -1.22627  -1.05786  -1.00099
  Beta  occ. eigenvalues --   -0.94832  -0.91953  -0.88315  -0.85916  -0.66190
  Beta  occ. eigenvalues --   -0.64525
  Beta virt. eigenvalues --   -0.23711  -0.12970  -0.09892  -0.07181  -0.06121
  Beta virt. eigenvalues --   -0.05990  -0.04420  -0.03535  -0.02959  -0.01056
  Beta virt. eigenvalues --   -0.00580   0.00268   0.01769   0.02611   0.02627

 Mulliken charges and spin densities:
               1          2
     1  C    0.275758  -0.154599
     2  C    1.771473  -0.787160
     3  C    0.532602   0.758041
     4  C   -2.104555   1.044174
     5  H    0.250465  -0.069328
     6  H    0.314894  -0.061721
     7  O   -0.040638   0.270594
 Sum of Mulliken charges =   1.00000   1.00000

 Dipole moment (field-independent basis, Debye):
    X=              1.5869    Y=              0.9976    Z=             -0.0000  Tot=              1.8744
 Quadrupole moment (field-independent basis, Debye-Ang):
   XX=             -8.7703   YY=            -21.2887   ZZ=            -26.3869
   XY=             -5.1525   XZ=             -0.0000   YZ=             -0.0000

 9\CCSD(T)=-227.909196\S2=0.955571\S2-1=0.889231\S2A=0.781947\RMSD=8.19
 Normal termination of Gaussian 09 at Tue Oct 10 02:49:36 2017.
