 Gaussian 09, Revision E.01,
 Gaussian 09:  ES64L-G09RevE.01 30-Nov-2015

 -----------------------------------
 #p ccsd(t,maxcyc=200)/6-311++G(d,p)
 -----------------------------------

 -------------
 ccsd(t) iener
 -------------
 Symbolic Z-matrix:
 Charge =  1 Multiplicity = 4

                         Standard orientation:
 ---------------------------------------------------------------------
 Center     Atomic      Atomic             Coordinates (Angstroms)
 Number     Number       Type             X           Y           Z
 ---------------------------------------------------------------------
      1          6           0       -0.517688    1.665373   -0.000000
      2          6           0        0.000000    0.551646   -0.000000
      3          6           0        0.587882   -0.685728   -0.000000
      4          6           0       -0.188619   -1.839491    0.000000
      5          1           0       -0.967175    2.640097   -0.000000
      6          1           0        1.677723   -0.790892   -0.000000
 ---------------------------------------------------------------------

 SCF Done:  E(UHF) =  -152.137911433     A.U. after   24 cycles
 E2 =    -0.4112968606D+00 EUMP2 =    -0.15254920829355D+03
 CCSD(T)
 CCSD(T)= -0.15261514761D+03

 The electronic state is 4-A".
 Alpha  occ. eigenvalues --  -11.58222 -11.57362 -11.55397 -11.53315  -1.38779
 Alpha  occ. eigenvalues --   -1.31129  -1.11551  -0.98667  -0.94178  -0.84635
 Alpha  occ. eigenvalues --   -0.75878  -0.68444  -0.67371  -0.67300
 Alpha virt. eigenvalues --   -0.19166  -0.09367  -0.07961  -0.06415  -0.04808
 Alpha virt. eigenvalues --   -0.04494  -0.03307  -0.01842  -0.01065   0.00634
 Alpha virt. eigenvalues --    0.00722   0.01735   0.03195   0.03659   0.04387

  Beta  occ. eigenvalues --  -11.57577 -11.53813 -11.53511 -11.50747  -1.35745
  Beta  occ. eigenvalues --   -1.22325  -1.01086  -0.95245  -0.91124  -0.69409
  Beta  occ. eigenvalues --   -0.66406
  Beta virt. eigenvalues --   -0.25365  -0.18790  -0.10070  -0.08007  -0.07630
  Beta virt. eigenvalues --   -0.07423  -0.05672  -0.02635  -0.02331  -0.01972
  Beta virt. eigenvalues --   -0.00514   0.00349   0.01974   0.02371   0.03678

 Mulliken charges and spin densities:
               1          2
     1  C   -2.038516   0.729619
     2  C    1.801879  -0.249304
     3  C    0.443097  -0.084645
     4  C    0.243101   2.593976
     5  H    0.262510  -0.049158
     6  H    0.287929   0.059513
 Sum of Mulliken charges =   1.00000   3.00000

 Dipole moment (field-independent basis, Debye):
    X=             -0.0194    Y=              0.8482    Z=              0.0000  Tot=              0.8484
 Quadrupole moment (field-independent basis, Debye-Ang):
   XX=            -17.3422   YY=             -4.0186   ZZ=            -21.1602
   XY=             -4.8820   XZ=              0.0000   YZ=              0.0000

 D=-152.5927836\CCSD(T)=-152.6151476\S2=4.001924\S2-1=3.939743\S2A=3.76
 Normal termination of Gaussian 09 at Tue Oct 10 06:33:45 2017.
