 Gaussian 09, Revision E.01,
 Gaussian 09:  ES64L-G09RevE.01 30-Nov-2015

 -----------------------------------
 #p ccsd(t,maxcyc=200)/6-311++G(d,p)
 -----------------------------------

 -------------
 ccsd(t) iener
 -------------
 Symbolic Z-matrix:
 Charge =  0 Multiplicity = 1

                         Standard orientation:
 ---------------------------------------------------------------------
 Center     Atomic      Atomic             Coordinates (Angstroms)
 Number     Number       Type             X           Y           Z
 ---------------------------------------------------------------------
      1          6           0       -1.085119    0.501846   -0.000448
      2          6           0        2.732455   -0.250473    0.000199
      3          6           0        0.205323    0.249389   -0.000278
      4          6           0        1.469278    0.011328    0.000002
      5          1           0       -1.739142   -1.309070   -0.000576
      6          1           0       -1.440465    1.526074    0.001468
      7          8           0       -2.094001   -0.411193    0.000283
 ---------------------------------------------------------------------

 SCF Done:  E(RHF) =  -227.340990808     A.U. after   16 cycles
 E2 =    -0.7038909885D+00 EUMP2 =    -0.22804488179624D+03
 CCSD(T)
 CCSD(T)= -0.22810982443D+03

 The electronic state is 1-A.
 Alpha  occ. eigenvalues --  -20.64027 -11.36507 -11.32750 -11.29874 -11.25637
 Alpha  occ. eigenvalues --   -1.45220  -1.12322  -1.02800  -0.89987  -0.81549
 Alpha  occ. eigenvalues --   -0.70298  -0.63024  -0.61382  -0.50014  -0.46392
 Alpha  occ. eigenvalues --   -0.45045  -0.34456
 Alpha virt. eigenvalues --   -0.00414   0.03966   0.04477   0.07217   0.09684
 Alpha virt. eigenvalues --    0.11010   0.11366   0.12719   0.13208   0.13476
 Alpha virt. eigenvalues --    0.15796   0.17221   0.18285   0.19517   0.20911

 Mulliken charges:
               1
     1  C   -0.819726
     2  C   -0.194586
     3  C    0.743248
     4  C    0.062999
     5  H    0.259468
     6  H    0.178772
     7  O   -0.230174
 Sum of Mulliken charges =  -0.00000

 Dipole moment (field-independent basis, Debye):
    X=             -3.5616    Y=              0.1451    Z=             -0.0009  Tot=              3.5646
 Quadrupole moment (field-independent basis, Debye-Ang):
   XX=            -43.2863   YY=            -23.5590   ZZ=            -31.3982
   XY=              1.6244   XZ=              0.0006   YZ=              0.0064

 .0728486\CCSD=-228.0717081\CCSD(T)=-228.1098244\RMSD=3.419e-09\PG=C01
 Normal termination of Gaussian 09 at Tue Oct 10 02:43:20 2017.
