 Gaussian 09, Revision E.01,
 Gaussian 09:  ES64L-G09RevE.01 30-Nov-2015

 -----------------------------------
 #p ccsd(t,maxcyc=200)/6-311++G(d,p)
 -----------------------------------

 -------------
 ccsd(t) iener
 -------------
 Symbolic Z-matrix:
 Charge =  1 Multiplicity = 4

                         Standard orientation:
 ---------------------------------------------------------------------
 Center     Atomic      Atomic             Coordinates (Angstroms)
 Number     Number       Type             X           Y           Z
 ---------------------------------------------------------------------
      1          6           0       -1.575342   -0.405916    0.000015
      2          6           0       -0.596148    0.553520    0.000010
      3          6           0        0.722605    0.154125   -0.000007
      4          6           0        1.863551   -0.322698   -0.000022
      5          1           0       -1.643153   -1.489907    0.000009
      6          1           0       -0.844849    1.615720    0.000019
 ---------------------------------------------------------------------

 SCF Done:  E(UHF) =  -152.130136662     A.U. after   22 cycles
 E2 =    -0.3942794100D+00 EUMP2 =    -0.15252441607247D+03
 CCSD(T)
 CCSD(T)= -0.15260006184D+03

 The electronic state is 4-A.
 Alpha  occ. eigenvalues --  -11.58773 -11.57327 -11.56330 -11.53187  -1.39224
 Alpha  occ. eigenvalues --   -1.32376  -1.12182  -0.97567  -0.89252  -0.87511
 Alpha  occ. eigenvalues --   -0.76648  -0.71799  -0.69747  -0.68079
 Alpha virt. eigenvalues --   -0.19165  -0.09408  -0.07480  -0.07227  -0.04392
 Alpha virt. eigenvalues --   -0.04278  -0.02103  -0.02085  -0.01612  -0.00363
 Alpha virt. eigenvalues --    0.00308   0.02281   0.03304   0.03782   0.04187

  Beta  occ. eigenvalues --  -11.56252 -11.54392 -11.53483 -11.52130  -1.36658
  Beta  occ. eigenvalues --   -1.20815  -1.04401  -0.94701  -0.87725  -0.69638
  Beta  occ. eigenvalues --   -0.66727
  Beta virt. eigenvalues --   -0.24919  -0.19447  -0.13722  -0.08863  -0.08634
  Beta virt. eigenvalues --   -0.07415  -0.04353  -0.03017  -0.02173  -0.01090
  Beta virt. eigenvalues --   -0.00269  -0.00118   0.01722   0.03263   0.03739

 Mulliken charges and spin densities:
               1          2
     1  C    0.062420   1.592481
     2  C    0.011303   0.113832
     3  C    0.499381  -0.591876
     4  C   -0.137663   1.926503
     5  H    0.268979  -0.048133
     6  H    0.295580   0.007193
 Sum of Mulliken charges =   1.00000   3.00000

 Dipole moment (field-independent basis, Debye):
    X=             -0.6262    Y=             -0.5444    Z=              0.0000  Tot=              0.8297
 Quadrupole moment (field-independent basis, Debye-Ang):
   XX=             -8.9688   YY=            -15.9576   ZZ=            -21.1498
   XY=              0.0702   XZ=             -0.0001   YZ=              0.0000

 CCSD(T)=-152.6000618\S2=4.21192\S2-1=4.107056\S2A=3.819565\RMSD=7.261e
 Normal termination of Gaussian 09 at Tue Oct 10 06:23:17 2017.
