 Gaussian 09, Revision E.01,
 Gaussian 09:  ES64L-G09RevE.01 30-Nov-2015

 -----------------------------------
 #p ccsd(t,maxcyc=200)/6-311++G(d,p)
 -----------------------------------

 -------------
 ccsd(t) iener
 -------------
 Symbolic Z-matrix:
 Charge =  0 Multiplicity = 1

                         Standard orientation:
 ---------------------------------------------------------------------
 Center     Atomic      Atomic             Coordinates (Angstroms)
 Number     Number       Type             X           Y           Z
 ---------------------------------------------------------------------
      1          6           0        0.000000    0.000000    1.889733
      2          6           0       -0.000000   -0.000000   -0.682446
      3          6           0       -0.000000    0.000000   -1.889733
      4          6           0        0.000000   -0.000000    0.682446
      5          1           0       -0.000000   -0.000000   -2.952399
      6          1           0        0.000000    0.000000    2.952399
 ---------------------------------------------------------------------

 SCF Done:  E(RHF) =  -152.535202534     A.U. after   12 cycles
 E2 =    -0.5270820421D+00 EUMP2 =    -0.15306228457591D+03
 CCSD(T)
 CCSD(T)= -0.15310545089D+03

 The electronic state is 1-SG.
 Alpha  occ. eigenvalues --  -11.26893 -11.26776 -11.26062 -11.26054  -1.09582
 Alpha  occ. eigenvalues --   -1.02455  -0.85499  -0.73532  -0.70838  -0.49433
 Alpha  occ. eigenvalues --   -0.49433  -0.37128  -0.37128
 Alpha virt. eigenvalues --    0.03792   0.04358   0.08374   0.08374   0.10311
 Alpha virt. eigenvalues --    0.12032   0.12032   0.13557   0.13557   0.14591
 Alpha virt. eigenvalues --    0.17693   0.18174   0.20645   0.20871   0.20871

 Mulliken charges:
               1
     1  C   -2.762906
     2  C    2.599845
     3  C   -2.762906
     4  C    2.599845
     5  H    0.163061
     6  H    0.163061
 Sum of Mulliken charges =  -0.00000

 Dipole moment (field-independent basis, Debye):
    X=             -0.0000    Y=             -0.0000    Z=             -0.0000  Tot=              0.0000
 Quadrupole moment (field-independent basis, Debye-Ang):
   XX=            -25.4148   YY=            -25.4148   ZZ=            -11.1139
   XY=              0.0000   XZ=              0.0000   YZ=             -0.0000

 DQ=-153.0689328\MP4SDQ=-153.0767774\CCSD=-153.0763601\CCSD(T)=-153.105
 Normal termination of Gaussian 09 at Tue Oct 10 05:04:06 2017.
