 Gaussian 09, Revision E.01,
 Gaussian 09:  ES64L-G09RevE.01 30-Nov-2015

 -----------------------------------
 #p ccsd(t,maxcyc=200)/6-311++G(d,p)
 -----------------------------------

 -------------
 ccsd(t) iener
 -------------
 Symbolic Z-matrix:
 Charge =  1 Multiplicity = 4

                         Standard orientation:
 ---------------------------------------------------------------------
 Center     Atomic      Atomic             Coordinates (Angstroms)
 Number     Number       Type             X           Y           Z
 ---------------------------------------------------------------------
      1          6           0        1.256611    0.387253    0.000064
      2          6           0       -1.320782   -0.013273   -0.000556
      3          6           0       -2.572375   -0.060394    0.000328
      4          6           0       -0.035947   -0.064445   -0.000541
      5          1           0       -3.643840   -0.084727    0.001555
      6          1           0        1.531394    1.466641    0.000444
      7          8           0        2.268426   -0.359595    0.000279
 ---------------------------------------------------------------------

 SCF Done:  E(UHF) =  -227.095502665     A.U. after   24 cycles
 E2 =    -0.5898052470D+00 EUMP2 =    -0.22768530791236D+03
 CCSD(T)
 CCSD(T)= -0.22777501249D+03

 The electronic state is 4-A.
 Alpha  occ. eigenvalues --  -20.98755 -11.63992 -11.54055 -11.50238 -11.47730
 Alpha  occ. eigenvalues --   -1.80365  -1.36375  -1.27844  -1.14064  -1.07904
 Alpha  occ. eigenvalues --   -1.00449  -0.95797  -0.93146  -0.87773  -0.74057
 Alpha  occ. eigenvalues --   -0.73688  -0.62169  -0.61410
 Alpha virt. eigenvalues --   -0.15450  -0.09528  -0.06784  -0.05163  -0.04234
 Alpha virt. eigenvalues --   -0.04133  -0.01942  -0.01408   0.00197   0.00756
 Alpha virt. eigenvalues --    0.02801   0.03173   0.03818   0.04808   0.05577

  Beta  occ. eigenvalues --  -20.93239 -11.64522 -11.50709 -11.50099 -11.46797
  Beta  occ. eigenvalues --   -1.64926  -1.31140  -1.19175  -1.07434  -0.96832
  Beta  occ. eigenvalues --   -0.92836  -0.90473  -0.82669  -0.67130  -0.66971
  Beta virt. eigenvalues --   -0.22191  -0.19528  -0.14335  -0.08838  -0.07409
  Beta virt. eigenvalues --   -0.06508  -0.05033  -0.03569  -0.03190  -0.01684
  Beta virt. eigenvalues --   -0.01133   0.01511   0.02250   0.04022   0.05369

 Mulliken charges and spin densities:
               1          2
     1  C   -0.033099  -0.248884
     2  C    1.811584  -1.128248
     3  C   -1.140337   1.572122
     4  C   -0.495747   1.579755
     5  H    0.257913  -0.104506
     6  H    0.321756   0.113145
     7  O    0.277931   1.216617
 Sum of Mulliken charges =   1.00000   3.00000

 Dipole moment (field-independent basis, Debye):
    X=             -0.5413    Y=              1.8440    Z=              0.0019  Tot=              1.9218
 Quadrupole moment (field-independent basis, Debye-Ang):
   XX=             -1.0061   YY=            -23.7720   ZZ=            -26.4701
   XY=              3.7281   XZ=             -0.0058   YZ=              0.0008

 7336966\CCSD=-227.7446548\CCSD(T)=-227.7750125\S2=4.145903\S2-1=4.0102
 Normal termination of Gaussian 09 at Tue Oct 10 05:37:50 2017.
