 Gaussian 09, Revision E.01,
 Gaussian 09:  ES64L-G09RevE.01 30-Nov-2015

 -----------------------------------
 #p ccsd(t,maxcyc=200)/6-311++G(d,p)
 -----------------------------------

 -------------
 ccsd(t) iener
 -------------
 Symbolic Z-matrix:
 Charge =  1 Multiplicity = 2

                         Standard orientation:
 ---------------------------------------------------------------------
 Center     Atomic      Atomic             Coordinates (Angstroms)
 Number     Number       Type             X           Y           Z
 ---------------------------------------------------------------------
      1          6           0       -0.670983    1.394858    0.000000
      2          6           0       -0.000000    0.315951    0.000000
      3          6           0       -0.093081   -1.150503    0.000000
      4          6           0        1.129004   -0.636021   -0.000000
      5          1           0       -1.260935    2.295275    0.000000
      6          1           0       -0.928705   -1.840984    0.000000
 ---------------------------------------------------------------------

 SCF Done:  E(UHF) =  -152.125093701     A.U. after   26 cycles
 E2 =    -0.4807769741D+00 EUMP2 =    -0.15260587067496D+03
 CCSD(T)
 CCSD(T)= -0.15267270839D+03

 The electronic state is 2-A".
 Alpha  occ. eigenvalues --  -11.60162 -11.58739 -11.57798 -11.55875  -1.49886
 Alpha  occ. eigenvalues --   -1.31347  -1.05480  -1.02386  -0.88347  -0.81831
 Alpha  occ. eigenvalues --   -0.80508  -0.67500  -0.64642
 Alpha virt. eigenvalues --   -0.21038  -0.11913  -0.09915  -0.07889  -0.06951
 Alpha virt. eigenvalues --   -0.05170  -0.04568  -0.03771  -0.02452  -0.00879
 Alpha virt. eigenvalues --    0.00045   0.01730   0.02137   0.03412   0.03608

  Beta  occ. eigenvalues --  -11.58801 -11.58078 -11.57810 -11.55339  -1.47860
  Beta  occ. eigenvalues --   -1.26619  -1.03549  -1.00816  -0.85542  -0.80604
  Beta  occ. eigenvalues --   -0.73724  -0.61449
  Beta virt. eigenvalues --   -0.25740  -0.21478  -0.09851  -0.08426  -0.07784
  Beta virt. eigenvalues --   -0.05799  -0.05165  -0.04263  -0.02514  -0.00520
  Beta virt. eigenvalues --    0.00100   0.02024   0.02160   0.02508   0.03784

 Mulliken charges and spin densities:
               1          2
     1  C   -0.141330   0.786064
     2  C    0.253944  -0.225320
     3  C    0.083482   0.460209
     4  C    0.114026   0.031919
     5  H    0.339703  -0.032897
     6  H    0.350175  -0.019975
 Sum of Mulliken charges =   1.00000   1.00000

 Dipole moment (field-independent basis, Debye):
    X=             -3.8127    Y=              1.0258    Z=              0.0000  Tot=              3.9483
 Quadrupole moment (field-independent basis, Debye-Ang):
   XX=            -19.3176   YY=             -5.8586   ZZ=            -21.2017
   XY=             -2.8305   XZ=              0.0000   YZ=              0.0000

 39636\CCSD(T)=-152.6727084\S2=0.898535\S2-1=0.857745\S2A=0.763754\RMSD
 Normal termination of Gaussian 09 at Tue Oct 10 06:10:57 2017.
