 Gaussian 09, Revision E.01,
 Gaussian 09:  ES64L-G09RevE.01 30-Nov-2015

 -----------------------------------
 #p ccsd(t,maxcyc=200)/6-311++G(d,p)
 -----------------------------------

 -------------
 ccsd(t) iener
 -------------
 Symbolic Z-matrix:
 Charge =  1 Multiplicity = 2

                         Standard orientation:
 ---------------------------------------------------------------------
 Center     Atomic      Atomic             Coordinates (Angstroms)
 Number     Number       Type             X           Y           Z
 ---------------------------------------------------------------------
      1          6           0       -0.000000    0.706680    0.427596
      2          6           0       -0.000000   -0.706680    0.427596
      3          6           0       -0.000000   -1.525011   -0.656959
      4          6           0        0.000000    1.525011   -0.656959
      5          1           0       -0.000000    1.270072    1.376172
      6          1           0       -0.000000   -1.270072    1.376172
 ---------------------------------------------------------------------

 SCF Done:  E(UHF) =  -152.079505373     A.U. after   21 cycles
 E2 =    -0.4232812138D+00 EUMP2 =    -0.15250278658649D+03
 CCSD(T)
 CCSD(T)= -0.15258397978D+03

 The electronic state is 2-A2.
 Alpha  occ. eigenvalues --  -11.62045 -11.62044 -11.56028 -11.55930  -1.42065
 Alpha  occ. eigenvalues --   -1.30661  -1.08685  -0.93114  -0.91423  -0.77386
 Alpha  occ. eigenvalues --   -0.74927  -0.72943  -0.66686
 Alpha virt. eigenvalues --   -0.21217  -0.20063  -0.19557  -0.09993  -0.07055
 Alpha virt. eigenvalues --   -0.04988  -0.04789  -0.03721  -0.01509  -0.01320
 Alpha virt. eigenvalues --   -0.00608  -0.00541   0.01186   0.02863   0.03271

  Beta  occ. eigenvalues --  -11.60981 -11.60980 -11.56056 -11.55941  -1.40163
  Beta  occ. eigenvalues --   -1.25388  -1.06948  -0.93175  -0.89924  -0.72851
  Beta  occ. eigenvalues --   -0.71306  -0.70002
  Beta virt. eigenvalues --   -0.28095  -0.20308  -0.18092  -0.11885  -0.09967
  Beta virt. eigenvalues --   -0.07004  -0.04773  -0.04042  -0.01426  -0.01353
  Beta virt. eigenvalues --   -0.00500  -0.00471   0.00649   0.02612   0.02926

 Mulliken charges and spin densities:
               1          2
     1  C   -0.270794   0.029044
     2  C   -0.270794   0.029044
     3  C    0.437712   0.474281
     4  C    0.437712   0.474281
     5  H    0.333082  -0.003325
     6  H    0.333082  -0.003325
 Sum of Mulliken charges =   1.00000   1.00000

 Dipole moment (field-independent basis, Debye):
    X=             -0.0000    Y=             -0.0000    Z=              2.7983  Tot=              2.7983
 Quadrupole moment (field-independent basis, Debye-Ang):
   XX=            -22.3410   YY=            -15.0632   ZZ=            -18.2508
   XY=              0.0000   XZ=             -0.0000   YZ=             -0.0000

 5493852\MP4SDQ=-152.5555118\CCSD=-152.5610819\CCSD(T)=-152.5839798\S2=
 Normal termination of Gaussian 09 at Tue Oct 10 06:07:35 2017.
