 Gaussian 09, Revision E.01,
 Gaussian 09:  ES64L-G09RevE.01 30-Nov-2015

 -----------------------------------
 #p ccsd(t,maxcyc=200)/6-311++G(d,p)
 -----------------------------------

 -------------
 ccsd(t) iener
 -------------
 Symbolic Z-matrix:
 Charge =  1 Multiplicity = 4

                         Standard orientation:
 ---------------------------------------------------------------------
 Center     Atomic      Atomic             Coordinates (Angstroms)
 Number     Number       Type             X           Y           Z
 ---------------------------------------------------------------------
      1          6           0       -1.494143    0.000000    0.000013
      2          6           0       -0.104465    0.000000    0.000001
      3          6           0        1.138678   -0.677970   -0.000027
      4          6           0        1.138678    0.677971    0.000006
      5          1           0       -2.036248    0.940744    0.000041
      6          1           0       -2.036248   -0.940745   -0.000005
 ---------------------------------------------------------------------

 SCF Done:  E(UHF) =  -152.133243458     A.U. after   16 cycles
 E2 =    -0.4339104606D+00 EUMP2 =    -0.15256715391868D+03
 CCSD(T)
 CCSD(T)= -0.15262685643D+03

 The electronic state is 4-A.
 Alpha  occ. eigenvalues --  -11.62902 -11.62725 -11.59054 -11.51885  -1.53668
 Alpha  occ. eigenvalues --   -1.29017  -1.03765  -1.00152  -0.90286  -0.85711
 Alpha  occ. eigenvalues --   -0.81671  -0.79740  -0.69537  -0.64078
 Alpha virt. eigenvalues --   -0.15865  -0.08964  -0.08811  -0.06899  -0.05588
 Alpha virt. eigenvalues --   -0.03960  -0.03398  -0.03180  -0.01257  -0.00400
 Alpha virt. eigenvalues --    0.01513   0.01799   0.03305   0.04812   0.04872

  Beta  occ. eigenvalues --  -11.59234 -11.59085 -11.59070 -11.50057  -1.48549
  Beta  occ. eigenvalues --   -1.20964  -0.94192  -0.89481  -0.81099  -0.78863
  Beta  occ. eigenvalues --   -0.75137
  Beta virt. eigenvalues --   -0.24331  -0.20982  -0.19196  -0.07884  -0.07712
  Beta virt. eigenvalues --   -0.06309  -0.06238  -0.04206  -0.02558  -0.02427
  Beta virt. eigenvalues --   -0.00747  -0.00204   0.02410   0.02902   0.03685

 Mulliken charges and spin densities:
               1          2
     1  C   -0.274349   1.076920
     2  C    0.301449   0.039660
     3  C    0.241271   1.012512
     4  C    0.241271   1.012512
     5  H    0.245179  -0.070802
     6  H    0.245179  -0.070802
 Sum of Mulliken charges =   1.00000   3.00000

 Dipole moment (field-independent basis, Debye):
    X=             -0.3062    Y=              0.0000    Z=              0.0000  Tot=              0.3062
 Quadrupole moment (field-independent basis, Debye-Ang):
   XX=            -10.7388   YY=            -17.0988   ZZ=            -21.0191
   XY=              0.0000   XZ=             -0.0001   YZ=              0.0001

 -152.5990883\CCSD=-152.602106\CCSD(T)=-152.6268564\S2=3.804653\S2-1=3.
 Normal termination of Gaussian 09 at Tue Oct 10 06:34:50 2017.
