 Gaussian 09, Revision E.01,
 Gaussian 09:  ES64L-G09RevE.01 30-Nov-2015

 -----------------------------------
 #p ccsd(t,maxcyc=200)/6-311++G(d,p)
 -----------------------------------

 -------------
 ccsd(t) iener
 -------------
 Symbolic Z-matrix:
 Charge =  0 Multiplicity = 1

                         Standard orientation:
 ---------------------------------------------------------------------
 Center     Atomic      Atomic             Coordinates (Angstroms)
 Number     Number       Type             X           Y           Z
 ---------------------------------------------------------------------
      1          6           0       -1.023353    1.046445    0.000000
      2          6           0        0.269208   -1.312113   -0.000000
      3          6           0        1.240917   -0.401470   -0.000000
      4          6           0       -0.000000    0.206950    0.000000
      5          1           0       -1.460317    1.380563    0.933925
      6          1           0       -1.460317    1.380563   -0.933925
 ---------------------------------------------------------------------

 SCF Done:  E(RHF) =  -152.430427899     A.U. after   16 cycles
 E2 =    -0.5250861127D+00 EUMP2 =    -0.15295551401177D+03
 CCSD(T)
 CCSD(T)= -0.15300841959D+03

 The electronic state is 1-A'.
 Alpha  occ. eigenvalues --  -11.35489 -11.30602 -11.30309 -11.26909  -1.23574
 Alpha  occ. eigenvalues --   -1.05595  -0.75683  -0.67577  -0.66631  -0.57906
 Alpha  occ. eigenvalues --   -0.47474  -0.43468  -0.37278
 Alpha virt. eigenvalues --    0.02075   0.03790   0.05131   0.08108   0.09755
 Alpha virt. eigenvalues --    0.10707   0.11154   0.12306   0.12335   0.13906
 Alpha virt. eigenvalues --    0.14367   0.18477   0.18739   0.19219   0.20283

 Mulliken charges:
               1
     1  C   -0.449593
     2  C   -0.028919
     3  C   -0.389311
     4  C    0.525231
     5  H    0.171296
     6  H    0.171296
 Sum of Mulliken charges =  -0.00000

 Dipole moment (field-independent basis, Debye):
    X=             -2.5592    Y=              2.5540    Z=             -0.0000  Tot=              3.6156
 Quadrupole moment (field-independent basis, Debye-Ang):
   XX=            -25.7728   YY=            -25.4619   ZZ=            -22.2583
   XY=             -3.9514   XZ=              0.0000   YZ=             -0.0000

 DQ=-152.9669162\MP4SDQ=-152.9753574\CCSD=-152.9747601\CCSD(T)=-153.008
 Normal termination of Gaussian 09 at Tue Oct 10 05:38:34 2017.
