 Gaussian 09, Revision E.01,
 Gaussian 09:  ES64L-G09RevE.01 30-Nov-2015

 -----------------------------------
 #p ccsd(t,maxcyc=200)/6-311++G(d,p)
 -----------------------------------

 -------------
 ccsd(t) iener
 -------------
 Symbolic Z-matrix:
 Charge =  1 Multiplicity = 4

                         Standard orientation:
 ---------------------------------------------------------------------
 Center     Atomic      Atomic             Coordinates (Angstroms)
 Number     Number       Type             X           Y           Z
 ---------------------------------------------------------------------
      1          6           0        0.000000    0.000000   -1.773469
      2          6           0        0.000000    0.000000   -0.421970
      3          6           0        0.000000    0.000000    0.846751
      4          6           0        0.000000    0.000000    2.126794
      5          1           0        0.000000    0.935820   -2.334323
      6          1           0       -0.000000   -0.935820   -2.334323
 ---------------------------------------------------------------------

 SCF Done:  E(UHF) =  -152.157208675     A.U. after   20 cycles
 E2 =    -0.3949629895D+00 EUMP2 =    -0.15255217166417D+03
 CCSD(T)
 CCSD(T)= -0.15262667438D+03

 The electronic state is 4-A2.
 Alpha  occ. eigenvalues --  -11.58164 -11.57341 -11.55306 -11.52416  -1.38346
 Alpha  occ. eigenvalues --   -1.31957  -1.16953  -0.95578  -0.90771  -0.86999
 Alpha  occ. eigenvalues --   -0.76460  -0.76164  -0.67703  -0.62092
 Alpha virt. eigenvalues --   -0.20411  -0.09549  -0.06548  -0.05415  -0.04202
 Alpha virt. eigenvalues --   -0.03026  -0.02141  -0.01508   0.00179   0.00773
 Alpha virt. eigenvalues --    0.02152   0.03702   0.04653   0.06721   0.06905

  Beta  occ. eigenvalues --  -11.56512 -11.54223 -11.53262 -11.50718  -1.34268
  Beta  occ. eigenvalues --   -1.23246  -1.08703  -0.92723  -0.86906  -0.70738
  Beta  occ. eigenvalues --   -0.69602
  Beta virt. eigenvalues --   -0.24860  -0.17983  -0.13258  -0.09214  -0.08439
  Beta virt. eigenvalues --   -0.06215  -0.04570  -0.02467  -0.01453  -0.01080
  Beta virt. eigenvalues --   -0.00821   0.00927   0.02865   0.03911   0.05508

 Mulliken charges and spin densities:
               1          2
     1  C   -0.408670   0.639977
     2  C    0.534157   0.836009
     3  C    0.514617  -0.873193
     4  C   -0.112315   2.410862
     5  H    0.236106  -0.006827
     6  H    0.236106  -0.006827
 Sum of Mulliken charges =   1.00000   3.00000

 Dipole moment (field-independent basis, Debye):
    X=             -0.0000    Y=              0.0000    Z=             -1.9043  Tot=              1.9043
 Quadrupole moment (field-independent basis, Debye-Ang):
   XX=            -20.8631   YY=            -20.0220   ZZ=              0.1544
   XY=              0.0000   XZ=              0.0000   YZ=              0.0000

 Normal termination of Gaussian 09 at Tue Oct 10 06:16:53 2017.
