 Gaussian 09, Revision E.01,
 Gaussian 09:  ES64L-G09RevE.01 30-Nov-2015

 -----------------------------------
 #p ccsd(t,maxcyc=200)/6-311++G(d,p)
 -----------------------------------

 -------------
 ccsd(t) iener
 -------------
 Symbolic Z-matrix:
 Charge =  0 Multiplicity = 1

                         Standard orientation:
 ---------------------------------------------------------------------
 Center     Atomic      Atomic             Coordinates (Angstroms)
 Number     Number       Type             X           Y           Z
 ---------------------------------------------------------------------
      1          6           0        0.000000    0.723938    0.327825
      2          6           0       -0.000000   -0.723938    0.327825
      3          6           0       -0.000000   -1.693701   -0.541787
      4          6           0        0.000000    1.693701   -0.541787
      5          1           0        0.000000    1.279654    1.283768
      6          1           0       -0.000000   -1.279654    1.283768
 ---------------------------------------------------------------------

 SCF Done:  E(RHF) =  -152.404578751     A.U. after   13 cycles
 E2 =    -0.4759937353D+00 EUMP2 =    -0.15288057248648D+03
 CCSD(T)
 CCSD(T)= -0.15295059851D+03

 The electronic state is 1-A1.
 Alpha  occ. eigenvalues --  -11.32234 -11.32233 -11.28198 -11.28115  -1.14233
 Alpha  occ. eigenvalues --   -1.04767  -0.81269  -0.67461  -0.63735  -0.50252
 Alpha  occ. eigenvalues --   -0.48221  -0.47330  -0.37911
 Alpha virt. eigenvalues --    0.02741   0.04793   0.04793   0.05840   0.07141
 Alpha virt. eigenvalues --    0.10390   0.11220   0.11776   0.14263   0.15605
 Alpha virt. eigenvalues --    0.16016   0.17112   0.17714   0.17726   0.18139

 Mulliken charges:
               1
     1  C   -0.332191
     2  C   -0.332191
     3  C    0.115984
     4  C    0.115984
     5  H    0.216207
     6  H    0.216207
 Sum of Mulliken charges =   0.00000

 Dipole moment (field-independent basis, Debye):
    X=             -0.0000    Y=             -0.0000    Z=              2.9123  Tot=              2.9123
 Quadrupole moment (field-independent basis, Debye-Ang):
   XX=            -26.8948   YY=            -31.3567   ZZ=            -22.0882
   XY=             -0.0000   XZ=              0.0000   YZ=             -0.0000

 =-152.9171256\MP4SDQ=-152.9237364\CCSD=-152.9254398\CCSD(T)=-152.95059
 Normal termination of Gaussian 09 at Tue Oct 10 05:40:16 2017.
