 Gaussian 09, Revision E.01,
 Gaussian 09:  ES64L-G09RevE.01 30-Nov-2015

 -----------------------------------
 #p ccsd(t,maxcyc=200)/6-311++G(d,p)
 -----------------------------------

 -------------
 ccsd(t) iener
 -------------
 Symbolic Z-matrix:
 Charge =  1 Multiplicity = 2

                         Standard orientation:
 ---------------------------------------------------------------------
 Center     Atomic      Atomic             Coordinates (Angstroms)
 Number     Number       Type             X           Y           Z
 ---------------------------------------------------------------------
      1          6           0        0.000000    0.000000    0.824742
      2          6           0       -0.000000   -0.000000   -1.768258
      3          6           0        0.000000    0.000000    2.156677
      4          6           0       -0.000000   -0.000000   -0.438943
      5          1           0       -0.000000    0.941070   -2.322658
      6          1           0       -0.000000   -0.941070   -2.322658
 ---------------------------------------------------------------------

 SCF Done:  E(UHF) =  -152.165186149     A.U. after   23 cycles
 E2 =    -0.4371015182D+00 EUMP2 =    -0.15260228766682D+03
 CCSD(T)
 CCSD(T)= -0.15268120350D+03

 The electronic state is 2-B1.
 Alpha  occ. eigenvalues --  -11.62032 -11.58327 -11.55212 -11.55163  -1.39418
 Alpha  occ. eigenvalues --   -1.32178  -1.16737  -0.94633  -0.88070  -0.78029
 Alpha  occ. eigenvalues --   -0.74675  -0.72102  -0.66064
 Alpha virt. eigenvalues --   -0.22850  -0.20388  -0.10002  -0.06759  -0.05822
 Alpha virt. eigenvalues --   -0.04444  -0.03346  -0.02011  -0.02003   0.00733
 Alpha virt. eigenvalues --    0.02226   0.02568   0.04143   0.04752   0.06672

  Beta  occ. eigenvalues --  -11.61025 -11.60055 -11.53999 -11.53635  -1.39034
  Beta  occ. eigenvalues --   -1.24928  -1.14942  -0.94110  -0.88716  -0.74367
  Beta  occ. eigenvalues --   -0.72197  -0.70192
  Beta virt. eigenvalues --   -0.25799  -0.23078  -0.11685  -0.09869  -0.06657
  Beta virt. eigenvalues --   -0.05589  -0.02672  -0.02634  -0.01824  -0.00799
  Beta virt. eigenvalues --    0.00811   0.02158   0.02712   0.04955   0.05363

 Mulliken charges and spin densities:
               1          2
     1  C    0.129153   0.540963
     2  C   -0.516122   0.942492
     3  C    0.228967   0.603561
     4  C    0.658949  -0.933300
     5  H    0.249527  -0.076858
     6  H    0.249527  -0.076858
 Sum of Mulliken charges =   1.00000   1.00000

 Dipole moment (field-independent basis, Debye):
    X=             -0.0000    Y=              0.0000    Z=             -2.8445  Tot=              2.8445
 Quadrupole moment (field-independent basis, Debye-Ang):
   XX=            -21.3939   YY=            -18.9712   ZZ=             -7.4653
   XY=             -0.0000   XZ=             -0.0000   YZ=             -0.0000

 6485335\MP4SDQ=-152.6463507\CCSD=-152.6539059\CCSD(T)=-152.6812035\S2=
 Normal termination of Gaussian 09 at Tue Oct 10 06:08:51 2017.
