 Gaussian 09, Revision E.01,
 Gaussian 09:  ES64L-G09RevE.01 30-Nov-2015

 -----------------------------------
 #p ccsd(t,maxcyc=200)/6-311++G(d,p)
 -----------------------------------

 -------------
 ccsd(t) iener
 -------------
 Symbolic Z-matrix:
 Charge =  0 Multiplicity = 1

                         Standard orientation:
 ---------------------------------------------------------------------
 Center     Atomic      Atomic             Coordinates (Angstroms)
 Number     Number       Type             X           Y           Z
 ---------------------------------------------------------------------
      1          6           0        0.612110   -0.987840   -0.000000
      2          6           0        0.612110    0.568913    0.000000
      3          6           0       -0.612110    0.987840   -0.000000
      4          6           0       -0.612110   -0.568913   -0.000000
      5          1           0        1.347461   -1.761874   -0.000000
      6          1           0       -1.347461    1.761874   -0.000000
 ---------------------------------------------------------------------

 SCF Done:  E(RHF) =  -152.424287635     A.U. after   13 cycles
 E2 =    -0.5415122436D+00 EUMP2 =    -0.15296579987819D+03
 CCSD(T)
 CCSD(T)= -0.15301336151D+03

 The electronic state is 1-AG.
 Alpha  occ. eigenvalues --  -11.31761 -11.31717 -11.27843 -11.27835  -1.25605
 Alpha  occ. eigenvalues --   -0.97413  -0.75997  -0.75544  -0.62848  -0.55837
 Alpha  occ. eigenvalues --   -0.54240  -0.40898  -0.32427
 Alpha virt. eigenvalues --    0.04058   0.04696   0.07459   0.08015   0.11194
 Alpha virt. eigenvalues --    0.11290   0.11659   0.12996   0.15131   0.15936
 Alpha virt. eigenvalues --    0.16259   0.16535   0.18442   0.18746   0.19172

 Mulliken charges:
               1
     1  C   -0.548953
     2  C    0.352303
     3  C   -0.548953
     4  C    0.352303
     5  H    0.196650
     6  H    0.196650
 Sum of Mulliken charges =   0.00000

 Dipole moment (field-independent basis, Debye):
    X=              0.0000    Y=              0.0000    Z=             -0.0000  Tot=              0.0000
 Quadrupole moment (field-independent basis, Debye-Ang):
   XX=            -22.7468   YY=            -21.0010   ZZ=            -25.8683
   XY=             -4.9829   XZ=             -0.0000   YZ=             -0.0000

 796794\CCSD=-152.9800363\CCSD(T)=-153.0133615\RMSD=1.367e-09\PG=C02H [
 Normal termination of Gaussian 09 at Tue Oct 10 05:41:06 2017.
