 Gaussian 09, Revision E.01,
 Gaussian 09:  ES64L-G09RevE.01 30-Nov-2015

 -----------------------------------
 #p ccsd(t,maxcyc=200)/6-311++G(d,p)
 -----------------------------------

 -------------
 ccsd(t) iener
 -------------
 Symbolic Z-matrix:
 Charge =  1 Multiplicity = 2

                         Standard orientation:
 ---------------------------------------------------------------------
 Center     Atomic      Atomic             Coordinates (Angstroms)
 Number     Number       Type             X           Y           Z
 ---------------------------------------------------------------------
      1          6           0        0.103549    0.667831    0.000000
      2          1           0       -0.712006    1.412081    0.000000
      3          1           0       -0.737674   -1.076315   -0.000000
      4          8           0        0.103549   -0.542844   -0.000000
 ---------------------------------------------------------------------

 SCF Done:  E(UHF) =  -113.535144025     A.U. after   15 cycles
 E2 =    -0.2959313137D+00 EUMP2 =    -0.11383107533836D+03
 CCSD(T)
 CCSD(T)= -0.11385806957D+03

 The electronic state is 2-A'.
 Alpha  occ. eigenvalues --  -20.98171 -11.71982  -1.82639  -1.26324  -1.11379
 Alpha  occ. eigenvalues --   -0.99235  -0.92784  -0.76546
 Alpha virt. eigenvalues --   -0.21161  -0.13967  -0.09791  -0.06417  -0.05323
 Alpha virt. eigenvalues --   -0.03882   0.00177   0.01567   0.05169   0.08663
 Alpha virt. eigenvalues --    0.08695   0.16659   0.17668   0.24284   0.34053

  Beta  occ. eigenvalues --  -20.98278 -11.68842  -1.82025  -1.21623  -1.07349
  Beta  occ. eigenvalues --   -0.94288  -0.93241
  Beta virt. eigenvalues --   -0.20626  -0.17673  -0.13563  -0.09529  -0.04971
  Beta virt. eigenvalues --   -0.04534  -0.03458   0.01110   0.02662   0.06497
  Beta virt. eigenvalues --    0.08496   0.08943   0.17457   0.18354   0.26752

 Mulliken charges and spin densities:
               1          2
     1  C    0.320331   0.995310
     2  H    0.272868   0.066518
     3  H    0.398987   0.059505
     4  O    0.007814  -0.121334
 Sum of Mulliken charges =   1.00000   1.00000

 Dipole moment (field-independent basis, Debye):
    X=             -2.5543    Y=              1.2259    Z=             -0.0000  Tot=              2.8332
 Quadrupole moment (field-independent basis, Debye-Ang):
   XX=             -8.2459   YY=             -4.4605   ZZ=             -9.7300
   XY=              1.0406   XZ=             -0.0000   YZ=              0.0000

 -113.8469993\CCSD(T)=-113.8580696\S2=0.761851\S2-1=0.755528\S2A=0.7500
 Normal termination of Gaussian 09 at Tue Oct 10 06:38:01 2017.
