 Gaussian 09, Revision E.01,
 Gaussian 09:  ES64L-G09RevE.01 30-Nov-2015

 -----------------------------------
 #p ccsd(t,maxcyc=200)/6-311++G(d,p)
 -----------------------------------

 -------------
 ccsd(t) iener
 -------------
 Symbolic Z-matrix:
 Charge =  0 Multiplicity = 1

                         Standard orientation:
 ---------------------------------------------------------------------
 Center     Atomic      Atomic             Coordinates (Angstroms)
 Number     Number       Type             X           Y           Z
 ---------------------------------------------------------------------
      1          6           0       -0.000000   -0.000000   -0.979371
      2          1           0        0.000000    0.814915    1.031160
      3          1           0       -0.000000   -0.814915    1.031160
      4          8           0        0.000000    0.000000    0.476739
 ---------------------------------------------------------------------

 SCF Done:  E(RHF) =  -113.655106936     A.U. after   12 cycles
 E2 =    -0.3196195149D+00 EUMP2 =    -0.11397472645136D+03
 CCSD(T)
 CCSD(T)= -0.11401110182D+03

 The electronic state is 1-A1.
 Alpha  occ. eigenvalues --  -20.72306 -11.24492  -1.50706  -0.89921  -0.85644
 Alpha  occ. eigenvalues --   -0.66135  -0.48106  -0.25725
 Alpha virt. eigenvalues --    0.01409   0.05407   0.09326   0.13665   0.14907
 Alpha virt. eigenvalues --    0.17432   0.19460   0.19849   0.23549   0.24052
 Alpha virt. eigenvalues --    0.25315   0.35267   0.37667   0.41482   0.62775

 Mulliken charges:
               1
     1  C   -0.523268
     2  H    0.346898
     3  H    0.346898
     4  O   -0.170528
 Sum of Mulliken charges =  -0.00000

 Dipole moment (field-independent basis, Debye):
    X=             -0.0000    Y=              0.0000    Z=              6.1098  Tot=              6.1098
 Quadrupole moment (field-independent basis, Debye-Ang):
   XX=            -12.7619   YY=            -13.8556   ZZ=            -13.6896
   XY=              0.0000   XZ=             -0.0000   YZ=              0.0000

 948012\MP4SDQ=-113.99821\CCSD=-113.9997976\CCSD(T)=-114.0111018\RMSD=4
 Normal termination of Gaussian 09 at Tue Oct 10 06:37:41 2017.
