 Gaussian 09, Revision E.01,
 Gaussian 09:  ES64L-G09RevE.01 30-Nov-2015

 -----------------------------------
 #p ccsd(t,maxcyc=200)/6-311++G(d,p)
 -----------------------------------

 -------------
 ccsd(t) iener
 -------------
 Symbolic Z-matrix:
 Charge =  1 Multiplicity = 4

                         Standard orientation:
 ---------------------------------------------------------------------
 Center     Atomic      Atomic             Coordinates (Angstroms)
 Number     Number       Type             X           Y           Z
 ---------------------------------------------------------------------
      1          6           0       -0.060129    0.675211    0.000000
      2          1           0        0.420901    1.035728    0.939379
      3          1           0        0.420901    1.035728   -0.939379
      4          8           0       -0.060129   -0.765340   -0.000000
 ---------------------------------------------------------------------

 SCF Done:  E(UHF) =  -113.419439220     A.U. after   17 cycles
 E2 =    -0.2247912460D+00 EUMP2 =    -0.11364423046611D+03
 CCSD(T)
 CCSD(T)= -0.11368821571D+03

 The electronic state is 4-A".
 Alpha  occ. eigenvalues --  -21.17710 -11.63659  -1.91694  -1.28408  -1.17408
 Alpha  occ. eigenvalues --   -1.16993  -1.03237  -0.88764  -0.76088
 Alpha virt. eigenvalues --   -0.12138  -0.09808  -0.07867  -0.06180  -0.02233
 Alpha virt. eigenvalues --    0.00396   0.02813   0.03678   0.05452   0.06359
 Alpha virt. eigenvalues --    0.07095   0.07172   0.16787   0.31697   0.36920

  Beta  occ. eigenvalues --  -21.08868 -11.60843  -1.60060  -1.15492  -0.95616
  Beta  occ. eigenvalues --   -0.88633
  Beta virt. eigenvalues --   -0.33052  -0.28788  -0.13185  -0.11475  -0.08231
  Beta virt. eigenvalues --   -0.07564  -0.02860  -0.00853   0.01492   0.03605
  Beta virt. eigenvalues --    0.07870   0.08249   0.09274   0.10052   0.10655

 Mulliken charges and spin densities:
               1          2
     1  C   -0.127478   1.048787
     2  H    0.263095  -0.010240
     3  H    0.263095  -0.010240
     4  O    0.601288   1.971693
 Sum of Mulliken charges =   1.00000   3.00000

 Dipole moment (field-independent basis, Debye):
    X=              0.6187    Y=              0.6644    Z=             -0.0000  Tot=              0.9078
 Quadrupole moment (field-independent basis, Debye-Ang):
   XX=             -9.6793   YY=             -7.0629   ZZ=             -7.9951
   XY=              1.2490   XZ=             -0.0000   YZ=             -0.0000

 P4SDQ=-113.6770994\CCSD=-113.6814891\CCSD(T)=-113.6882157\S2=3.766072\
 Normal termination of Gaussian 09 at Tue Oct 10 06:38:58 2017.
