 Gaussian 09, Revision E.01,
 Gaussian 09:  ES64L-G09RevE.01 30-Nov-2015

 -----------------------------------
 #p ccsd(t,maxcyc=200)/6-311++G(d,p)
 -----------------------------------

 -------------
 ccsd(t) iener
 -------------
 Symbolic Z-matrix:
 Charge =  0 Multiplicity = 1

                         Standard orientation:
 ---------------------------------------------------------------------
 Center     Atomic      Atomic             Coordinates (Angstroms)
 Number     Number       Type             X           Y           Z
 ---------------------------------------------------------------------
      1          6           0       -0.000000   -0.000000   -0.527459
      2          1           0       -0.000000    0.939885   -1.114584
      3          1           0        0.000000   -0.939885   -1.114584
      4          8           0        0.000000    0.000000    0.674240
 ---------------------------------------------------------------------

 SCF Done:  E(RHF) =  -113.901674440     A.U. after   11 cycles
 E2 =    -0.3399039615D+00 EUMP2 =    -0.11424157840115D+03
 CCSD(T)
 CCSD(T)= -0.11426669526D+03

 The electronic state is 1-A1.
 Alpha  occ. eigenvalues --  -20.58006 -11.34624  -1.41326  -0.86979  -0.69577
 Alpha  occ. eigenvalues --   -0.65527  -0.54002  -0.44295
 Alpha virt. eigenvalues --    0.04115   0.06478   0.07385   0.09876   0.15872
 Alpha virt. eigenvalues --    0.15925   0.16290   0.24536   0.27877   0.29961
 Alpha virt. eigenvalues --    0.32164   0.38806   0.38877   0.51544   0.62971

 Mulliken charges:
               1
     1  C    0.119639
     2  H    0.091263
     3  H    0.091263
     4  O   -0.302166
 Sum of Mulliken charges =  -0.00000

 Dipole moment (field-independent basis, Debye):
    X=             -0.0000    Y=              0.0000    Z=             -2.9152  Tot=              2.9152
 Quadrupole moment (field-independent basis, Debye-Ang):
   XX=            -11.7279   YY=            -11.4957   ZZ=            -12.2451
   XY=             -0.0000   XZ=             -0.0000   YZ=             -0.0000

 08\MP4SDQ=-114.2550323\CCSD=-114.2538864\CCSD(T)=-114.2666953\RMSD=5.7
 Normal termination of Gaussian 09 at Tue Oct 10 06:35:01 2017.
