 Gaussian 09, Revision E.01,
 Gaussian 09:  ES64L-G09RevE.01 30-Nov-2015

 -----------------------------------
 #p ccsd(t,maxcyc=200)/6-311++G(d,p)
 -----------------------------------

 -------------
 ccsd(t) iener
 -------------
 Symbolic Z-matrix:
 Charge =  0 Multiplicity = 1

                         Standard orientation:
 ---------------------------------------------------------------------
 Center     Atomic      Atomic             Coordinates (Angstroms)
 Number     Number       Type             X           Y           Z
 ---------------------------------------------------------------------
      1          6           0        0.010866    0.742709   -0.000000
      2          1           0       -1.078721    0.979144   -0.000000
      3          1           0        0.926597   -0.886149    0.000000
      4          8           0        0.010866   -0.568656    0.000000
 ---------------------------------------------------------------------

 SCF Done:  E(RHF) =  -113.826071582     A.U. after   12 cycles
 E2 =    -0.3273375311D+00 EUMP2 =    -0.11415340911343D+03
 CCSD(T)
 CCSD(T)= -0.11418500376D+03

 The electronic state is 1-A'.
 Alpha  occ. eigenvalues --  -20.64170 -11.31024  -1.45712  -0.90492  -0.68989
 Alpha  occ. eigenvalues --   -0.63914  -0.59274  -0.37406
 Alpha virt. eigenvalues --    0.04464   0.06223   0.07601   0.12039   0.14551
 Alpha virt. eigenvalues --    0.16687   0.17919   0.24639   0.27056   0.28144
 Alpha virt. eigenvalues --    0.28620   0.32387   0.39840   0.49930   0.62981

 Mulliken charges:
               1
     1  C   -0.171586
     2  H    0.081654
     3  H    0.310844
     4  O   -0.220911
 Sum of Mulliken charges =   0.00000

 Dipole moment (field-independent basis, Debye):
    X=              0.1796    Y=             -1.2858    Z=              0.0000  Tot=              1.2983
 Quadrupole moment (field-independent basis, Debye-Ang):
   XX=            -11.1818   YY=            -14.1423   ZZ=            -12.0979
   XY=             -4.0969   XZ=              0.0000   YZ=             -0.0000

 728294\CCSD=-114.1730879\CCSD(T)=-114.1850038\RMSD=2.542e-09\PG=CS [SG
 Normal termination of Gaussian 09 at Tue Oct 10 06:37:38 2017.
