 Gaussian 09, Revision E.01,
 Gaussian 09:  ES64L-G09RevE.01 30-Nov-2015

 -----------------------------------
 #p ccsd(t,maxcyc=200)/6-311++G(d,p)
 -----------------------------------

 -------------
 ccsd(t) iener
 -------------
 Symbolic Z-matrix:
 Charge =  1 Multiplicity = 4

                         Standard orientation:
 ---------------------------------------------------------------------
 Center     Atomic      Atomic             Coordinates (Angstroms)
 Number     Number       Type             X           Y           Z
 ---------------------------------------------------------------------
      1          6           0        0.826050   -0.178979    0.004427
      2          1           0        1.383451    0.757219    0.160883
      3          1           0       -1.139775   -0.092543    0.748000
      4          8           0       -0.649997    0.051150   -0.116931
 ---------------------------------------------------------------------

 SCF Done:  E(UHF) =  -113.405517072     A.U. after   18 cycles
 E2 =    -0.2357354728D+00 EUMP2 =    -0.11364125254493D+03
 CCSD(T)
 CCSD(T)= -0.11367636533D+03

 The electronic state is 4-A.
 Alpha  occ. eigenvalues --  -21.08217 -11.64890  -1.84452  -1.27473  -1.10694
 Alpha  occ. eigenvalues --   -1.08508  -0.98720  -0.81523  -0.73340
 Alpha virt. eigenvalues --   -0.15410  -0.09627  -0.06937  -0.05733  -0.03926
 Alpha virt. eigenvalues --   -0.00677   0.01122   0.03072   0.05752   0.06327
 Alpha virt. eigenvalues --    0.07599   0.12549   0.17874   0.35278   0.37236

  Beta  occ. eigenvalues --  -21.03471 -11.59006  -1.66846  -1.14367  -0.99607
  Beta  occ. eigenvalues --   -0.91836
  Beta virt. eigenvalues --   -0.30793  -0.16897  -0.13522  -0.13168  -0.08661
  Beta virt. eigenvalues --   -0.04429  -0.02960  -0.01691   0.01964   0.03455
  Beta virt. eigenvalues --    0.06267   0.08572   0.09794   0.11960   0.14757

 Mulliken charges and spin densities:
               1          2
     1  C    0.095145   2.008368
     2  H    0.260131  -0.017782
     3  H    0.386091  -0.038316
     4  O    0.258632   1.047730
 Sum of Mulliken charges =   1.00000   3.00000

 Dipole moment (field-independent basis, Debye):
    X=             -0.5143    Y=              0.1524    Z=              1.8801  Tot=              1.9552
 Quadrupole moment (field-independent basis, Debye-Ang):
   XX=             -4.5346   YY=             -9.1190   ZZ=             -9.5028
   XY=              1.4942   XZ=             -2.1069   YZ=              0.2994

 Normal termination of Gaussian 09 at Tue Oct 10 06:39:35 2017.
