 Gaussian 09, Revision E.01,
 Gaussian 09:  ES64L-G09RevE.01 30-Nov-2015

 -----------------------------------
 #p ccsd(t,maxcyc=200)/6-311++G(d,p)
 -----------------------------------

 -------------
 ccsd(t) iener
 -------------
 Symbolic Z-matrix:
 Charge =  1 Multiplicity = 2

                         Standard orientation:
 ---------------------------------------------------------------------
 Center     Atomic      Atomic             Coordinates (Angstroms)
 Number     Number       Type             X           Y           Z
 ---------------------------------------------------------------------
      1          6           0        0.000000    0.000000   -0.939833
      2          1           0       -0.000000    0.840916    0.986155
      3          1           0       -0.000000   -0.840916    0.986155
      4          8           0       -0.000000   -0.000000    0.458336
 ---------------------------------------------------------------------

 SCF Done:  E(UHF) =  -113.463513800     A.U. after   14 cycles
 E2 =    -0.2853874235D+00 EUMP2 =    -0.11374890122371D+03
 CCSD(T)
 CCSD(T)= -0.11378280917D+03

 The electronic state is 2-B2.
 Alpha  occ. eigenvalues --  -21.02226 -11.66189  -1.82509  -1.25927  -1.17015
 Alpha  occ. eigenvalues --   -0.96217  -0.84734  -0.71272
 Alpha virt. eigenvalues --   -0.18894  -0.16247  -0.10690  -0.05005  -0.03762
 Alpha virt. eigenvalues --   -0.03738  -0.00861   0.00872   0.04006   0.04171
 Alpha virt. eigenvalues --    0.05895   0.13299   0.13975   0.16464   0.37824

  Beta  occ. eigenvalues --  -21.02409 -11.63464  -1.81908  -1.21056  -1.15423
  Beta  occ. eigenvalues --   -0.96661  -0.77599
  Beta virt. eigenvalues --   -0.16630  -0.16069  -0.14657  -0.10534  -0.04352
  Beta virt. eigenvalues --   -0.03399  -0.03300   0.01010   0.01667   0.04200
  Beta virt. eigenvalues --    0.04993   0.05930   0.15357   0.16606   0.16779

 Mulliken charges and spin densities:
               1          2
     1  C    0.213433   1.031513
     2  H    0.432091   0.035066
     3  H    0.432091   0.035066
     4  O   -0.077615  -0.101645
 Sum of Mulliken charges =   1.00000   1.00000

 Dipole moment (field-independent basis, Debye):
    X=             -0.0000    Y=              0.0000    Z=              3.2957  Tot=              3.2957
 Quadrupole moment (field-independent basis, Debye-Ang):
   XX=            -10.2826   YY=             -7.3045   ZZ=             -6.6877
   XY=             -0.0000   XZ=              0.0000   YZ=              0.0000

 MP4SDQ=-113.7714178\CCSD=-113.7734411\CCSD(T)=-113.7828092\S2=0.761351
 Normal termination of Gaussian 09 at Tue Oct 10 06:39:10 2017.
