 Gaussian 09, Revision E.01,
 Gaussian 09:  ES64L-G09RevE.01 30-Nov-2015

 -----------------------------------
 #p ccsd(t,maxcyc=200)/6-311++G(d,p)
 -----------------------------------

 -------------
 ccsd(t) iener
 -------------
 Symbolic Z-matrix:
 Charge =  0 Multiplicity = 3

                         Standard orientation:
 ---------------------------------------------------------------------
 Center     Atomic      Atomic             Coordinates (Angstroms)
 Number     Number       Type             X           Y           Z
 ---------------------------------------------------------------------
      1          6           0       -0.049958    0.595471   -0.000000
      2          1           0        0.349704    1.043104    0.923262
      3          1           0        0.349704    1.043104   -0.923262
      4          8           0       -0.049958   -0.707379    0.000000
 ---------------------------------------------------------------------

 SCF Done:  E(UHF) =  -113.828947144     A.U. after   15 cycles
 E2 =    -0.2837429812D+00 EUMP2 =    -0.11411269012516D+03
 CCSD(T)
 CCSD(T)= -0.11415109912D+03

 The electronic state is 3-A".
 Alpha  occ. eigenvalues --  -20.66296 -11.29467  -1.47082  -0.92039  -0.74994
 Alpha  occ. eigenvalues --   -0.68590  -0.65380  -0.54214  -0.36540
 Alpha virt. eigenvalues --    0.04451   0.06889   0.09570   0.11465   0.15383
 Alpha virt. eigenvalues --    0.17489   0.25320   0.27504   0.28955   0.29719
 Alpha virt. eigenvalues --    0.30163   0.36323   0.47637   0.58339   0.63010

  Beta  occ. eigenvalues --  -20.61363 -11.27457  -1.31385  -0.81980  -0.62217
  Beta  occ. eigenvalues --   -0.59536  -0.52179
  Beta virt. eigenvalues --    0.04620   0.06364   0.07316   0.08430   0.09832
  Beta virt. eigenvalues --    0.16433   0.17199   0.20178   0.26078   0.28718
  Beta virt. eigenvalues --    0.30442   0.30820   0.35472   0.37994   0.50455

 Mulliken charges and spin densities:
               1          2
     1  C   -0.230258   0.932068
     2  H    0.131601   0.017882
     3  H    0.131601   0.017882
     4  O   -0.032945   1.032169
 Sum of Mulliken charges =  -0.00000   2.00000

 Dipole moment (field-independent basis, Debye):
    X=              0.7402    Y=              1.3243    Z=             -0.0000  Tot=              1.5171
 Quadrupole moment (field-independent basis, Debye-Ang):
   XX=            -13.1798   YY=            -12.7501   ZZ=            -10.5195
   XY=              0.8215   XZ=             -0.0000   YZ=             -0.0000

 =-114.1386751\CCSD=-114.1417585\CCSD(T)=-114.1510991\S2=2.01582\S2-1=2
 Normal termination of Gaussian 09 at Tue Oct 10 06:38:25 2017.
