 Gaussian 09, Revision E.01,
 Gaussian 09:  ES64L-G09RevE.01 30-Nov-2015

 -----------------------------------
 #p ccsd(t,maxcyc=200)/6-311++G(d,p)
 -----------------------------------

 -------------
 ccsd(t) iener
 -------------
 Symbolic Z-matrix:
 Charge =  1 Multiplicity = 2

                         Standard orientation:
 ---------------------------------------------------------------------
 Center     Atomic      Atomic             Coordinates (Angstroms)
 Number     Number       Type             X           Y           Z
 ---------------------------------------------------------------------
      1          1           0       -0.000000    0.822876   -0.462430
      2          1           0       -0.000000   -0.822876   -0.462430
      3          8           0        0.000000    0.000000    0.115608
 ---------------------------------------------------------------------

 SCF Done:  E(UHF) =  -75.6494817417     A.U. after   11 cycles
 E2 =    -0.1660763079D+00 EUMP2 =    -0.75815558049559D+02
 CCSD(T)
 CCSD(T)= -0.75834436136D+02

 The electronic state is 2-B1.
 Alpha  occ. eigenvalues --  -21.12351  -1.88028  -1.19391  -1.11843  -1.07090
 Alpha virt. eigenvalues --   -0.18710  -0.11876  -0.02534  -0.02411  -0.00672
 Alpha virt. eigenvalues --   -0.00630   0.06235   0.07002   0.33699   0.35593
 Alpha virt. eigenvalues --    0.78935   0.80302   0.85418   1.06857   1.13095

  Beta  occ. eigenvalues --  -21.07859  -1.71794  -1.15534  -1.01761
  Beta virt. eigenvalues --   -0.31562  -0.17861  -0.11478  -0.01696  -0.00502
  Beta virt. eigenvalues --   -0.00278   0.02473   0.06953   0.07390   0.33819
  Beta virt. eigenvalues --    0.36877   0.82116   0.87011   0.92981   1.09395

 Mulliken charges and spin densities:
               1          2
     1  H    0.396262  -0.055188
     2  H    0.396262  -0.055188
     3  O    0.207476   1.110376
 Sum of Mulliken charges =   1.00000   1.00000

 Dipole moment (field-independent basis, Debye):
    X=             -0.0000    Y=             -0.0000    Z=             -2.3631  Tot=              2.3631
 Quadrupole moment (field-independent basis, Debye-Ang):
   XX=             -4.7493   YY=             -1.5092   ZZ=             -4.4431
   XY=              0.0000   XZ=              0.0000   YZ=              0.0000

 566\CCSD=-75.8311882\CCSD(T)=-75.8344361\S2=0.75751\S2-1=0.751777\S2A=
 Normal termination of Gaussian 09 at Tue Oct 10 06:40:28 2017.
