 Gaussian 09, Revision E.01,
 Gaussian 09:  ES64L-G09RevE.01 30-Nov-2015

 -----------------------------------
 #p ccsd(t,maxcyc=200)/6-311++G(d,p)
 -----------------------------------

 -------------
 ccsd(t) iener
 -------------
 Symbolic Z-matrix:
 Charge =  1 Multiplicity = 2

                         Standard orientation:
 ---------------------------------------------------------------------
 Center     Atomic      Atomic             Coordinates (Angstroms)
 Number     Number       Type             X           Y           Z
 ---------------------------------------------------------------------
      1          1           0        0.000000    0.971705   -0.312949
      2          1           0       -0.000000   -0.971705   -0.312949
      3          8           0       -0.000000    0.000000    0.078237
 ---------------------------------------------------------------------

 SCF Done:  E(UHF) =  -75.6332288706     A.U. after   12 cycles
 E2 =    -0.1666536374D+00 EUMP2 =    -0.75799882508000D+02
 CCSD(T)
 CCSD(T)= -0.75818538556D+02

 The electronic state is 2-B1.
 Alpha  occ. eigenvalues --  -21.09651  -1.83755  -1.18854  -1.09374  -1.01487
 Alpha virt. eigenvalues --   -0.19637  -0.12113  -0.05351  -0.02210  -0.00744
 Alpha virt. eigenvalues --    0.01012   0.06189   0.06981   0.28735   0.38911
 Alpha virt. eigenvalues --    0.80060   0.82874   0.84988   1.03420   1.17123

  Beta  occ. eigenvalues --  -21.05125  -1.67066  -1.15265  -0.95987
  Beta virt. eigenvalues --   -0.29849  -0.18614  -0.11692  -0.04968  -0.00346
  Beta virt. eigenvalues --    0.01332   0.03061   0.06927   0.07285   0.29349
  Beta virt. eigenvalues --    0.39219   0.84743   0.86322   0.94229   1.05906

 Mulliken charges and spin densities:
               1          2
     1  H    0.456324  -0.053229
     2  H    0.456324  -0.053229
     3  O    0.087351   1.106458
 Sum of Mulliken charges =   1.00000   1.00000

 Dipole moment (field-independent basis, Debye):
    X=             -0.0000    Y=              0.0000    Z=             -1.7551  Tot=              1.7551
 Quadrupole moment (field-independent basis, Debye-Ang):
   XX=             -4.8457   YY=              0.2827   ZZ=             -5.3249
   XY=              0.0000   XZ=              0.0000   YZ=             -0.0000

 1\CCSD=-75.8151983\CCSD(T)=-75.8185386\S2=0.758506\S2-1=0.752378\S2A=0
 Normal termination of Gaussian 09 at Tue Oct 10 06:41:14 2017.
