 Gaussian 09, Revision E.01,
 Gaussian 09:  ES64L-G09RevE.01 30-Nov-2015

 -----------------------------------
 #p ccsd(t,maxcyc=200)/6-311++G(d,p)
 -----------------------------------

 -------------
 ccsd(t) iener
 -------------
 Symbolic Z-matrix:
 Charge =  0 Multiplicity = 1

                         Standard orientation:
 ---------------------------------------------------------------------
 Center     Atomic      Atomic             Coordinates (Angstroms)
 Number     Number       Type             X           Y           Z
 ---------------------------------------------------------------------
      1          1           0        0.000000    0.763607   -0.468000
      2          1           0       -0.000000   -0.763607   -0.468000
      3          8           0        0.000000    0.000000    0.117000
 ---------------------------------------------------------------------

 SCF Done:  E(RHF) =  -76.0525147881     A.U. after   11 cycles
 E2 =    -0.2223241286D+00 EUMP2 =    -0.76274838916742D+02
 CCSD(T)
 CCSD(T)= -0.76286532326D+02

 The electronic state is 1-A1.
 Alpha  occ. eigenvalues --  -20.56718  -1.35270  -0.71916  -0.58221  -0.50957
 Alpha virt. eigenvalues --    0.04303   0.07214   0.24191   0.24557   0.24742
 Alpha virt. eigenvalues --    0.25964   0.31869   0.32392   0.68207   0.73244
 Alpha virt. eigenvalues --    1.20037   1.24415   1.24653   1.47311   1.50239

 Mulliken charges:
               1
     1  H    0.257444
     2  H    0.257444
     3  O   -0.514888
 Sum of Mulliken charges =  -0.00000

 Dipole moment (field-independent basis, Debye):
    X=             -0.0000    Y=              0.0000    Z=             -2.2352  Tot=              2.2352
 Quadrupole moment (field-independent basis, Debye-Ang):
   XX=             -7.5719   YY=             -4.2139   ZZ=             -6.3125
   XY=              0.0000   XZ=              0.0000   YZ=             -0.0000

 76.2813354\CCSD=-76.2811854\CCSD(T)=-76.2865323\RMSD=2.856e-09\PG=C02V
 Normal termination of Gaussian 09 at Tue Oct 10 06:40:48 2017.
