 Gaussian 09, Revision E.01,
 Gaussian 09:  ES64L-G09RevE.01 30-Nov-2015

 -----------------------------------
 #p ccsd(t,maxcyc=200)/6-311++G(d,p)
 -----------------------------------

 -------------
 ccsd(t) iener
 -------------
 Symbolic Z-matrix:
 Charge =  1 Multiplicity = 1

                         Standard orientation:
 ---------------------------------------------------------------------
 Center     Atomic      Atomic             Coordinates (Angstroms)
 Number     Number       Type             X           Y           Z
 ---------------------------------------------------------------------
      1          1           0        0.000000    0.440675   -0.254790
      2          1           0        0.000000   -0.000000    0.509581
      3          1           0       -0.000000   -0.440675   -0.254790
 ---------------------------------------------------------------------

 SCF Done:  E(RHF) =  -1.29839809703     A.U. after    5 cycles
 E2 =    -0.3041543900D-01 EUMP2 =    -0.13288135360320D+01
 CCSD(T)
 CCSD(T)= -0.13372186632D+01

 The electronic state is 1-A1.
 Alpha  occ. eigenvalues --   -1.20067
 Alpha virt. eigenvalues --   -0.19826  -0.19795  -0.13169  -0.04065  -0.04053
 Alpha virt. eigenvalues --    0.13139   0.32007   0.32040   0.68606   1.21264
 Alpha virt. eigenvalues --    1.21288   1.28128   1.52196   1.52286   2.07934

 Mulliken charges:
               1
     1  H    0.333093
     2  H    0.333814
     3  H    0.333093
 Sum of Mulliken charges =   1.00000

 Dipole moment (field-independent basis, Debye):
    X=             -0.0000    Y=             -0.0000    Z=              0.0015  Tot=              0.0015
 Quadrupole moment (field-independent basis, Debye-Ang):
   XX=             -1.4744   YY=             -0.2335   ZZ=             -0.2297
   XY=              0.0000   XZ=              0.0000   YZ=              0.0000

 3366131\CCSD=-1.3372187\CCSD(T)=-1.3372187\RMSD=4.332e-09\PG=C02V [C2(
 Normal termination of Gaussian 09 at Tue Oct 10 10:49:03 2017.
