 Gaussian 09, Revision E.01,
 Gaussian 09:  ES64L-G09RevE.01 30-Nov-2015

 -----------------------------------
 #p ccsd(t,maxcyc=200)/6-311++G(d,p)
 -----------------------------------

 -------------
 ccsd(t) iener
 -------------
 Symbolic Z-matrix:
 Charge =  0 Multiplicity = 2

                         Standard orientation:
 ---------------------------------------------------------------------
 Center     Atomic      Atomic             Coordinates (Angstroms)
 Number     Number       Type             X           Y           Z
 ---------------------------------------------------------------------
      1          6           0        0.000000    0.000000    0.000000
      2          1           0       -0.000000    1.080660   -0.000000
      3          1           0        0.935879   -0.540330   -0.000000
      4          1           0       -0.935879   -0.540330    0.000000
 ---------------------------------------------------------------------

 SCF Done:  E(UHF) =  -39.5735799454     A.U. after   12 cycles
 E2 =    -0.1350784095D+00 EUMP2 =    -0.39708658354927D+02
 CCSD(T)
 CCSD(T)= -0.39733660455D+02

 The electronic state is 2-A2".
 Alpha  occ. eigenvalues --  -11.23610  -0.94782  -0.58101  -0.58101  -0.38368
 Alpha virt. eigenvalues --    0.04568   0.07490   0.07490   0.12744   0.15572
 Alpha virt. eigenvalues --    0.15572   0.18602   0.26540   0.30440   0.30440
 Alpha virt. eigenvalues --    0.57099   0.57099   0.65442   0.70384   0.86944

  Beta  occ. eigenvalues --  -11.21278  -0.85668  -0.56623  -0.56623
  Beta virt. eigenvalues --    0.04782   0.07100   0.07555   0.07555   0.15616
  Beta virt. eigenvalues --    0.15616   0.19695   0.21494   0.28420   0.31062
  Beta virt. eigenvalues --    0.31062   0.57508   0.57508   0.68744   0.81747

 Mulliken charges and spin densities:
               1          2
     1  C   -0.333178   1.309822
     2  H    0.111059  -0.103274
     3  H    0.111059  -0.103274
     4  H    0.111059  -0.103274
 Sum of Mulliken charges =   0.00000   1.00000

 Dipole moment (field-independent basis, Debye):
    X=              0.0000    Y=             -0.0000    Z=             -0.0000  Tot=              0.0000
 Quadrupole moment (field-independent basis, Debye-Ang):
   XX=             -7.2199   YY=             -7.2199   ZZ=             -9.0777
   XY=             -0.0000   XZ=             -0.0000   YZ=              0.0000

 55\CCSD=-39.7303993\CCSD(T)=-39.7336605\S2=0.761274\S2-1=0.753164\S2A=
 Normal termination of Gaussian 09 at Tue Oct 10 10:48:43 2017.
