 Gaussian 09, Revision E.01,
 Gaussian 09:  ES64L-G09RevE.01 30-Nov-2015

 -----------------------------------
 #p ccsd(t,maxcyc=200)/6-311++G(d,p)
 -----------------------------------

 -------------
 ccsd(t) iener
 -------------
 Symbolic Z-matrix:
 Charge =  1 Multiplicity = 3

                         Standard orientation:
 ---------------------------------------------------------------------
 Center     Atomic      Atomic             Coordinates (Angstroms)
 Number     Number       Type             X           Y           Z
 ---------------------------------------------------------------------
      1          6           0       -0.000000    0.157426    0.000000
      2          1           0        0.526318   -0.689195    0.641067
      3          1           0        0.526318   -0.689195   -0.641067
      4          1           0       -1.052636    0.433836   -0.000000
 ---------------------------------------------------------------------

 SCF Done:  E(UHF) =  -39.1199214225     A.U. after   12 cycles
 E2 =    -0.1037350368D+00 EUMP2 =    -0.39223656459370D+02
 CCSD(T)
 CCSD(T)= -0.39246981482D+02

 The electronic state is 3-A".
 Alpha  occ. eigenvalues --  -11.66401  -1.36540  -1.00016  -0.88153  -0.81147
 Alpha virt. eigenvalues --   -0.14976  -0.10360  -0.08644  -0.06685  -0.06494
 Alpha virt. eigenvalues --   -0.02879  -0.01354  -0.00504   0.01615   0.06172
 Alpha virt. eigenvalues --    0.24460   0.30202   0.33542   0.40907   0.48754

  Beta  occ. eigenvalues --  -11.62088  -1.17448  -0.95217
  Beta virt. eigenvalues --   -0.33653  -0.21067  -0.13581  -0.08323  -0.06638
  Beta virt. eigenvalues --   -0.04346  -0.03439  -0.01099  -0.00165   0.01246
  Beta virt. eigenvalues --    0.07326   0.07983   0.28882   0.32853   0.37366

 Mulliken charges and spin densities:
               1          2
     1  C    0.083409   1.740755
     2  H    0.327736   0.175248
     3  H    0.327736   0.175248
     4  H    0.261119  -0.091252
 Sum of Mulliken charges =   1.00000   2.00000

 Dipole moment (field-independent basis, Debye):
    X=              0.5046    Y=             -1.5964    Z=             -0.0000  Tot=              1.6743
 Quadrupole moment (field-independent basis, Debye-Ang):
   XX=             -4.0255   YY=             -4.4813   ZZ=             -4.6433
   XY=             -2.1691   XZ=             -0.0000   YZ=              0.0000

 CSD=-39.2444205\CCSD(T)=-39.2469815\S2=2.009917\S2-1=2.002305\S2A=2.00
 Normal termination of Gaussian 09 at Tue Oct 10 10:48:59 2017.
