 Gaussian 09, Revision E.01,
 Gaussian 09:  ES64L-G09RevE.01 30-Nov-2015

 -----------------------------------
 #p ccsd(t,maxcyc=200)/6-311++G(d,p)
 -----------------------------------

 -------------
 ccsd(t) iener
 -------------
 Symbolic Z-matrix:
 Charge =  1 Multiplicity = 1

                         Standard orientation:
 ---------------------------------------------------------------------
 Center     Atomic      Atomic             Coordinates (Angstroms)
 Number     Number       Type             X           Y           Z
 ---------------------------------------------------------------------
      1          6           0        0.000000    0.000000    0.000000
      2          1           0       -0.000000    1.093856    0.000000
      3          1           0        0.947307   -0.546928   -0.000000
      4          1           0       -0.947307   -0.546928    0.000000
 ---------------------------------------------------------------------

 SCF Done:  E(RHF) =  -39.2435328399     A.U. after    8 cycles
 E2 =    -0.1129849780D+00 EUMP2 =    -0.39356517817917D+02
 CCSD(T)
 CCSD(T)= -0.39381486937D+02

 The electronic state is 1-A1'.
 Alpha  occ. eigenvalues --  -11.68345  -1.27428  -0.94824  -0.94824
 Alpha virt. eigenvalues --   -0.28448  -0.12862  -0.08184  -0.08184  -0.04660
 Alpha virt. eigenvalues --   -0.03452  -0.03452  -0.00115   0.02812   0.06414
 Alpha virt. eigenvalues --    0.06414   0.29328   0.29328   0.37577   0.43955

 Mulliken charges:
               1
     1  C    0.246294
     2  H    0.251235
     3  H    0.251235
     4  H    0.251235
 Sum of Mulliken charges =   1.00000

 Dipole moment (field-independent basis, Debye):
    X=             -0.0000    Y=             -0.0000    Z=              0.0000  Tot=              0.0000
 Quadrupole moment (field-independent basis, Debye-Ang):
   XX=             -4.0766   YY=             -4.0766   ZZ=             -5.0070
   XY=             -0.0000   XZ=             -0.0000   YZ=             -0.0000

 6\MP4SDQ=-39.3785073\CCSD=-39.3792861\CCSD(T)=-39.3814869\RMSD=2.346e-
 Normal termination of Gaussian 09 at Tue Oct 10 10:48:46 2017.
