 Gaussian 09, Revision E.01,
 Gaussian 09:  ES64L-G09RevE.01 30-Nov-2015

 -----------------------------------
 #p ccsd(t,maxcyc=200)/6-311++G(d,p)
 -----------------------------------

 -------------
 ccsd(t) iener
 -------------
 Symbolic Z-matrix:
 Charge =  1 Multiplicity = 1

                         Standard orientation:
 ---------------------------------------------------------------------
 Center     Atomic      Atomic             Coordinates (Angstroms)
 Number     Number       Type             X           Y           Z
 ---------------------------------------------------------------------
      1          6           0        0.000000   -0.000000   -0.471917
      2          6           0       -0.000000    0.000000    0.885842
      3          1           0       -0.000000    1.060341   -0.827849
      4          1           0        0.918282   -0.530170   -0.827849
      5          1           0       -0.918282   -0.530170   -0.827849
 ---------------------------------------------------------------------

 SCF Done:  E(RHF) =  -77.0401072277     A.U. after   10 cycles
 E2 =    -0.2338903753D+00 EUMP2 =    -0.77273997602998D+02
 CCSD(T)
 CCSD(T)= -0.77319890337D+02

 The electronic state is 1-A1.
 Alpha  occ. eigenvalues --  -11.71415 -11.53167  -1.39708  -1.02438  -0.88577
 Alpha  occ. eigenvalues --   -0.88577  -0.79112
 Alpha virt. eigenvalues --   -0.24103  -0.24103  -0.11493  -0.07820  -0.07820
 Alpha virt. eigenvalues --   -0.06446  -0.02372  -0.01874  -0.01874  -0.00159
 Alpha virt. eigenvalues --   -0.00159   0.02470   0.05182   0.07838   0.07838

 Mulliken charges:
               1
     1  C   -0.799009
     2  C    0.873115
     3  H    0.308631
     4  H    0.308631
     5  H    0.308631
 Sum of Mulliken charges =   1.00000

 Dipole moment (field-independent basis, Debye):
    X=             -0.0000    Y=             -0.0000    Z=             -1.0076  Tot=              1.0076
 Quadrupole moment (field-independent basis, Debye-Ang):
   XX=             -8.9102   YY=             -8.9102   ZZ=             -9.9917
   XY=              0.0000   XZ=              0.0000   YZ=              0.0000

 .3096961\CCSD(T)=-77.3198903\RMSD=3.601e-09\PG=C03V [C3(C1C1),3SGV(H1)
 Normal termination of Gaussian 09 at Tue Oct 10 06:56:26 2017.
