 Gaussian 09, Revision E.01,
 Gaussian 09:  ES64L-G09RevE.01 30-Nov-2015

 -----------------------------------
 #p ccsd(t,maxcyc=200)/6-311++G(d,p)
 -----------------------------------

 -------------
 ccsd(t) iener
 -------------
 Symbolic Z-matrix:
 Charge =  0 Multiplicity = 4

                         Standard orientation:
 ---------------------------------------------------------------------
 Center     Atomic      Atomic             Coordinates (Angstroms)
 Number     Number       Type             X           Y           Z
 ---------------------------------------------------------------------
      1          6           0        1.387593   -0.433120   -0.039587
      2          6           0        0.154125    0.475051    0.046876
      3          1           0        0.214689    1.203525   -0.766758
      4          1           0        0.212711    0.992442    1.014780
      5          1           0       -1.182191   -0.815197    0.622296
      6          8           0       -1.061940   -0.204044   -0.114257
 ---------------------------------------------------------------------

 SCF Done:  E(UHF) =  -152.210744157     A.U. after   16 cycles
 E2 =    -0.4112540574D+00 EUMP2 =    -0.15262199821409D+03
 CCSD(T)
 CCSD(T)= -0.15266600541D+03

 The electronic state is 4-A.
 Alpha  occ. eigenvalues --  -20.57639 -11.32064 -11.29031  -1.38849  -1.02999
 Alpha  occ. eigenvalues --   -0.83736  -0.71070  -0.64135  -0.60787  -0.53346
 Alpha  occ. eigenvalues --   -0.46667  -0.41742  -0.40001
 Alpha virt. eigenvalues --    0.04263   0.06299   0.07445   0.09469   0.13551
 Alpha virt. eigenvalues --    0.13997   0.14256   0.14485   0.17101   0.19133
 Alpha virt. eigenvalues --    0.20623   0.27604   0.28408   0.31899   0.33792

  Beta  occ. eigenvalues --  -20.57356 -11.31893 -11.21748  -1.37841  -0.95148
  Beta  occ. eigenvalues --   -0.72054  -0.65002  -0.61623  -0.52500  -0.47210
  Beta virt. eigenvalues --    0.02162   0.05246   0.06170   0.07252   0.10434
  Beta virt. eigenvalues --    0.10838   0.12789   0.14068   0.14872   0.16869
  Beta virt. eigenvalues --    0.19791   0.22895   0.23882   0.24128   0.28143

 Mulliken charges and spin densities:
               1          2
     1  C    0.047307   2.891676
     2  C   -0.277957  -0.013303
     3  H    0.154211   0.044722
     4  H    0.127062   0.041698
     5  H    0.259959   0.002240
     6  O   -0.310583   0.032967
 Sum of Mulliken charges =   0.00000   3.00000

 Dipole moment (field-independent basis, Debye):
    X=              0.4231    Y=              0.2714    Z=              1.4998  Tot=              1.5818
 Quadrupole moment (field-independent basis, Debye-Ang):
   XX=            -21.0658   YY=            -17.0776   ZZ=            -17.7125
   XY=              1.3746   XZ=             -1.9970   YZ=             -1.4663

 PMP3-0=-152.6428242\MP4SDQ=-152.6501747\CCSD=-152.6519107\CCSD(T)=-152
 Normal termination of Gaussian 09 at Tue Oct 10 06:50:49 2017.
