 Gaussian 09, Revision E.01,
 Gaussian 09:  ES64L-G09RevE.01 30-Nov-2015

 -----------------------------------
 #p ccsd(t,maxcyc=200)/6-311++G(d,p)
 -----------------------------------

 -------------
 ccsd(t) iener
 -------------
 Symbolic Z-matrix:
 Charge =  1 Multiplicity = 1

                         Standard orientation:
 ---------------------------------------------------------------------
 Center     Atomic      Atomic             Coordinates (Angstroms)
 Number     Number       Type             X           Y           Z
 ---------------------------------------------------------------------
      1          6           0       -1.087064    0.680033   -0.000000
      2          6           0       -0.000000    0.017097   -0.000000
      3          1           0       -1.548699    0.976654    0.943198
      4          1           0       -1.548699    0.976654   -0.943198
      5          1           0        1.859583   -0.302294    0.000000
      6          8           0        0.970025   -0.729224    0.000000
 ---------------------------------------------------------------------

 SCF Done:  E(RHF) =  -152.032250660     A.U. after   13 cycles
 E2 =    -0.4523994678D+00 EUMP2 =    -0.15248465012825D+03
 CCSD(T)
 CCSD(T)= -0.15252590915D+03

 The electronic state is 1-A'.
 Alpha  occ. eigenvalues --  -20.95356 -11.65912 -11.52333  -1.78936  -1.34005
 Alpha  occ. eigenvalues --   -1.15934  -0.98236  -0.94565  -0.93321  -0.84411
 Alpha  occ. eigenvalues --   -0.67490
 Alpha virt. eigenvalues --   -0.15561  -0.12876  -0.09581  -0.07819  -0.07174
 Alpha virt. eigenvalues --   -0.04380  -0.03310  -0.01218  -0.00217   0.00749
 Alpha virt. eigenvalues --    0.03402   0.05238   0.05934   0.07144   0.08770

 Mulliken charges:
               1
     1  C   -0.259772
     2  C    0.513747
     3  H    0.252230
     4  H    0.252230
     5  H    0.394334
     6  O   -0.152770
 Sum of Mulliken charges =   1.00000

 Dipole moment (field-independent basis, Debye):
    X=              0.5668    Y=              1.7651    Z=             -0.0000  Tot=              1.8539
 Quadrupole moment (field-independent basis, Debye-Ang):
   XX=             -4.2583   YY=            -15.8180   ZZ=            -13.5043
   XY=             -3.7074   XZ=              0.0000   YZ=             -0.0000

 515\MP4DQ=-152.5000589\MP4SDQ=-152.5072193\CCSD=-152.5068366\CCSD(T)=-
 Normal termination of Gaussian 09 at Tue Oct 10 06:53:16 2017.
