 Gaussian 09, Revision E.01,
 Gaussian 09:  ES64L-G09RevE.01 30-Nov-2015

 -----------------------------------
 #p ccsd(t,maxcyc=200)/6-311++G(d,p)
 -----------------------------------

 -------------
 ccsd(t) iener
 -------------
 Symbolic Z-matrix:
 Charge =  1 Multiplicity = 3

                         Standard orientation:
 ---------------------------------------------------------------------
 Center     Atomic      Atomic             Coordinates (Angstroms)
 Number     Number       Type             X           Y           Z
 ---------------------------------------------------------------------
      1          6           0        0.048139   -0.628886    0.000000
      2          6           0        0.048139    0.763061   -0.000000
      3          1           0       -0.678884    1.573952   -0.000000
      4          1           0       -0.888804   -1.197248    0.000000
      5          1           0        0.990022   -1.181753    0.000000
 ---------------------------------------------------------------------

 SCF Done:  E(UHF) =  -77.0806455969     A.U. after   14 cycles
 E2 =    -0.2019968947D+00 EUMP2 =    -0.77282642491644D+02
 CCSD(T)
 CCSD(T)= -0.77321173151D+02

 The electronic state is 3-A".
 Alpha  occ. eigenvalues --  -11.62010 -11.61319  -1.39369  -1.11747  -0.95646
 Alpha  occ. eigenvalues --   -0.91742  -0.75377  -0.73092
 Alpha virt. eigenvalues --   -0.19972  -0.10996  -0.08617  -0.07591  -0.05572
 Alpha virt. eigenvalues --   -0.03173  -0.01960  -0.00354   0.00489   0.03080
 Alpha virt. eigenvalues --    0.04209   0.05263   0.05485   0.06155   0.17086

  Beta  occ. eigenvalues --  -11.60586 -11.58117  -1.27955  -1.04036  -0.91646
  Beta  occ. eigenvalues --   -0.88249
  Beta virt. eigenvalues --   -0.28047  -0.16977  -0.10546  -0.08412  -0.08206
  Beta virt. eigenvalues --   -0.07130  -0.03698  -0.02826   0.00135   0.00799
  Beta virt. eigenvalues --    0.03806   0.04009   0.04542   0.05725   0.06533

 Mulliken charges and spin densities:
               1          2
     1  C   -0.001634   0.490997
     2  C    0.256428   1.556264
     3  H    0.259758  -0.050369
     4  H    0.244172   0.019086
     5  H    0.241275  -0.015977
 Sum of Mulliken charges =   1.00000   2.00000

 Dipole moment (field-independent basis, Debye):
    X=             -0.5522    Y=             -0.3591    Z=              0.0000  Tot=              0.6587
 Quadrupole moment (field-independent basis, Debye-Ang):
   XX=             -9.0345   YY=             -4.8480   ZZ=            -10.7406
   XY=             -1.5378   XZ=              0.0000   YZ=             -0.0000

 0=-77.3101647\MP4SDQ=-77.3135269\CCSD=-77.3146927\CCSD(T)=-77.3211732\
 Normal termination of Gaussian 09 at Tue Oct 10 06:57:09 2017.
