 Gaussian 09, Revision E.01,
 Gaussian 09:  ES64L-G09RevE.01 30-Nov-2015

 -----------------------------------
 #p ccsd(t,maxcyc=200)/6-311++G(d,p)
 -----------------------------------

 -------------
 ccsd(t) iener
 -------------
 Symbolic Z-matrix:
 Charge =  1 Multiplicity = 1

                         Standard orientation:
 ---------------------------------------------------------------------
 Center     Atomic      Atomic             Coordinates (Angstroms)
 Number     Number       Type             X           Y           Z
 ---------------------------------------------------------------------
      1          6           0        0.000000    0.000000   -0.581095
      2          6           0        0.000000   -0.000000    0.673705
      3          1           0        0.000000    0.940812   -1.155828
      4          1           0       -0.000000   -0.940812   -1.155828
      5          1           0        0.000000   -0.000000    1.755991
 ---------------------------------------------------------------------

 SCF Done:  E(RHF) =  -77.1062683576     A.U. after   11 cycles
 E2 =    -0.2430739214D+00 EUMP2 =    -0.77349342279071D+02
 CCSD(T)
 CCSD(T)= -0.77389418219D+02

 The electronic state is 1-A1.
 Alpha  occ. eigenvalues --  -11.63461 -11.55022  -1.37442  -1.08323  -0.95259
 Alpha  occ. eigenvalues --   -0.89359  -0.72880
 Alpha virt. eigenvalues --   -0.23462  -0.12730  -0.10869  -0.08924  -0.07782
 Alpha virt. eigenvalues --   -0.04931  -0.03789  -0.00738   0.00335   0.02125
 Alpha virt. eigenvalues --    0.02217   0.04521   0.04862   0.06309   0.13576

 Mulliken charges:
               1
     1  C   -0.549862
     2  C    0.595812
     3  H    0.274070
     4  H    0.274070
     5  H    0.405910
 Sum of Mulliken charges =   1.00000

 Dipole moment (field-independent basis, Debye):
    X=             -0.0000    Y=             -0.0000    Z=              0.7550  Tot=              0.7550
 Quadrupole moment (field-independent basis, Debye-Ang):
   XX=            -12.5330   YY=             -8.0936   ZZ=             -2.4431
   XY=              0.0000   XZ=              0.0000   YZ=              0.0000

 DQ=-77.3731014\MP4SDQ=-77.3770288\CCSD=-77.3785222\CCSD(T)=-77.3894182
 Normal termination of Gaussian 09 at Tue Oct 10 07:01:10 2017.
