 Gaussian 09, Revision E.01,
 Gaussian 09:  ES64L-G09RevE.01 30-Nov-2015

 -----------------------------------
 #p ccsd(t,maxcyc=200)/6-311++G(d,p)
 -----------------------------------

 -------------
 ccsd(t) iener
 -------------
 Symbolic Z-matrix:
 Charge =  1 Multiplicity = 1

                         Standard orientation:
 ---------------------------------------------------------------------
 Center     Atomic      Atomic             Coordinates (Angstroms)
 Number     Number       Type             X           Y           Z
 ---------------------------------------------------------------------
      1          6           0        0.761862   -0.483533   -0.000000
      2          6           0        0.000000    0.728608   -0.000000
      3          1           0        1.079693   -0.914913    0.944375
      4          1           0        1.079693   -0.914913   -0.944375
      5          1           0       -0.100231    1.815254   -0.000000
      6          8           0       -0.828791   -0.181985    0.000000
 ---------------------------------------------------------------------

 SCF Done:  E(RHF) =  -152.002978159     A.U. after   13 cycles
 E2 =    -0.4661786357D+00 EUMP2 =    -0.15246915679445D+03
 CCSD(T)
 CCSD(T)= -0.15250755571D+03

 The electronic state is 1-A'.
 Alpha  occ. eigenvalues --  -20.93257 -11.67049 -11.60886  -1.79261  -1.25802
 Alpha  occ. eigenvalues --   -1.13656  -1.00383  -0.96508  -0.91214  -0.80757
 Alpha  occ. eigenvalues --   -0.76486
 Alpha virt. eigenvalues --   -0.18216  -0.12354  -0.10267  -0.08938  -0.07625
 Alpha virt. eigenvalues --   -0.04690  -0.03459  -0.01179  -0.00300   0.01333
 Alpha virt. eigenvalues --    0.02721   0.04222   0.04382   0.05837   0.09656

 Mulliken charges:
               1
     1  C   -0.079953
     2  C    0.266220
     3  H    0.257045
     4  H    0.257045
     5  H    0.297590
     6  O    0.002054
 Sum of Mulliken charges =   1.00000

 Dipole moment (field-independent basis, Debye):
    X=              2.7996    Y=              1.6340    Z=              0.0000  Tot=              3.2416
 Quadrupole moment (field-independent basis, Debye-Ang):
   XX=            -14.1909   YY=             -9.0645   ZZ=            -13.4864
   XY=             -2.8174   XZ=              0.0000   YZ=             -0.0000

 42\MP4DQ=-152.4789925\MP4SDQ=-152.489206\CCSD=-152.4864167\CCSD(T)=-15
 Normal termination of Gaussian 09 at Tue Oct 10 06:52:32 2017.
