 Gaussian 09, Revision E.01,
 Gaussian 09:  ES64L-G09RevE.01 30-Nov-2015

 -----------------------------------
 #p ccsd(t,maxcyc=200)/6-311++G(d,p)
 -----------------------------------

 -------------
 ccsd(t) iener
 -------------
 Symbolic Z-matrix:
 Charge =  1 Multiplicity = 1

                         Standard orientation:
 ---------------------------------------------------------------------
 Center     Atomic      Atomic             Coordinates (Angstroms)
 Number     Number       Type             X           Y           Z
 ---------------------------------------------------------------------
      1          6           0       -1.332957    0.526967   -0.000000
      2          6           0       -0.000000    0.558534   -0.000000
      3          1           0        0.635200    1.439760   -0.000000
      4          1           0        1.112399   -1.004237    0.819103
      5          1           0        1.112399   -1.004237   -0.819103
      6          8           0        0.642218   -0.743037    0.000000
 ---------------------------------------------------------------------

 SCF Done:  E(RHF) =  -151.912939751     A.U. after   14 cycles
 E2 =    -0.4341738290D+00 EUMP2 =    -0.15234711358018D+03
 CCSD(T)
 CCSD(T)= -0.15239892986D+03

 The electronic state is 1-A'.
 Alpha  occ. eigenvalues --  -20.98780 -11.56270 -11.55041  -1.78207  -1.30796
 Alpha  occ. eigenvalues --   -1.12854  -1.06835  -0.99932  -0.87190  -0.69328
 Alpha  occ. eigenvalues --   -0.65474
 Alpha virt. eigenvalues --   -0.19480  -0.13193  -0.09528  -0.08309  -0.08106
 Alpha virt. eigenvalues --   -0.04772  -0.03224  -0.00784   0.00430   0.01031
 Alpha virt. eigenvalues --    0.02442   0.04046   0.05831   0.06307   0.07123

 Mulliken charges:
               1
     1  C    0.378271
     2  C   -0.330932
     3  H    0.282394
     4  H    0.417595
     5  H    0.417595
     6  O   -0.164924
 Sum of Mulliken charges =   1.00000

 Dipole moment (field-independent basis, Debye):
    X=              4.7034    Y=             -1.6562    Z=             -0.0000  Tot=              4.9865
 Quadrupole moment (field-independent basis, Debye-Ang):
   XX=            -13.0727   YY=            -10.0450   ZZ=            -14.3751
   XY=             -3.7113   XZ=             -0.0000   YZ=              0.0000

 5923\MP4DQ=-152.3760561\MP4SDQ=-152.3803079\CCSD=-152.382393\CCSD(T)=-
 Normal termination of Gaussian 09 at Tue Oct 10 06:51:24 2017.
