 Gaussian 09, Revision E.01,
 Gaussian 09:  ES64L-G09RevE.01 30-Nov-2015

 -----------------------------------
 #p ccsd(t,maxcyc=200)/6-311++G(d,p)
 -----------------------------------

 -------------
 ccsd(t) iener
 -------------
 Symbolic Z-matrix:
 Charge =  1 Multiplicity = 3

                         Standard orientation:
 ---------------------------------------------------------------------
 Center     Atomic      Atomic             Coordinates (Angstroms)
 Number     Number       Type             X           Y           Z
 ---------------------------------------------------------------------
      1          6           0       -0.000000    0.424029   -0.000000
      2          6           0        1.251806   -0.203164   -0.000000
      3          1           0        2.151953    0.402382   -0.000000
      4          1           0        1.316691   -1.292412    0.000000
      5          1           0       -1.908137    0.488731    0.000000
      6          8           0       -1.133918   -0.115486    0.000000
 ---------------------------------------------------------------------

 SCF Done:  E(UHF) =  -152.005442933     A.U. after   16 cycles
 E2 =    -0.4126887975D+00 EUMP2 =    -0.15241813173057D+03
 CCSD(T)
 CCSD(T)= -0.15246177810D+03

 The electronic state is 3-A".
 Alpha  occ. eigenvalues --  -20.92317 -11.66653 -11.55758  -1.76794  -1.35514
 Alpha  occ. eigenvalues --   -1.13704  -1.02017  -0.95554  -0.92291  -0.87485
 Alpha  occ. eigenvalues --   -0.71849  -0.68666
 Alpha virt. eigenvalues --   -0.14196  -0.11313  -0.08271  -0.06728  -0.04914
 Alpha virt. eigenvalues --   -0.03397  -0.02408  -0.00544   0.00224   0.02022
 Alpha virt. eigenvalues --    0.04665   0.05131   0.07308   0.09315   0.11667

  Beta  occ. eigenvalues --  -20.91254 -11.63638 -11.54037  -1.73395  -1.25490
  Beta  occ. eigenvalues --   -1.10445  -0.91699  -0.91180  -0.85157  -0.84921
  Beta virt. eigenvalues --   -0.23224  -0.17741  -0.10372  -0.07820  -0.06463
  Beta virt. eigenvalues --   -0.04413  -0.03631  -0.02249  -0.01882  -0.00146
  Beta virt. eigenvalues --    0.03218   0.04426   0.05275   0.05694   0.08282

 Mulliken charges and spin densities:
               1          2
     1  C    0.413280   1.066799
     2  C   -0.210835   0.879381
     3  H    0.247451  -0.063169
     4  H    0.242886  -0.017963
     5  H    0.393655   0.010004
     6  O   -0.086438   0.124948
 Sum of Mulliken charges =   1.00000   2.00000

 Dipole moment (field-independent basis, Debye):
    X=              0.5389    Y=              1.2400    Z=             -0.0000  Tot=              1.3520
 Quadrupole moment (field-independent basis, Debye-Ang):
   XX=             -3.4440   YY=            -13.9072   ZZ=            -16.1684
   XY=             -3.5665   XZ=              0.0000   YZ=              0.0000

 SDQ=-152.4456594\CCSD=-152.4460621\CCSD(T)=-152.4617781\S2=2.008562\S2
 Normal termination of Gaussian 09 at Tue Oct 10 06:54:21 2017.
