 Gaussian 09, Revision E.01,
 Gaussian 09:  ES64L-G09RevE.01 30-Nov-2015

 -----------------------------------
 #p ccsd(t,maxcyc=200)/6-311++G(d,p)
 -----------------------------------

 -------------
 ccsd(t) iener
 -------------
 Symbolic Z-matrix:
 Charge =  1 Multiplicity = 3

                         Standard orientation:
 ---------------------------------------------------------------------
 Center     Atomic      Atomic             Coordinates (Angstroms)
 Number     Number       Type             X           Y           Z
 ---------------------------------------------------------------------
      1          6           0       -0.029568   -0.506100    0.000000
      2          6           0       -0.029568    0.912462   -0.000000
      3          1           0        1.110605   -0.536242   -0.000000
      4          1           0       -0.377893   -0.950966    0.943583
      5          1           0       -0.377893   -0.950966   -0.943583
 ---------------------------------------------------------------------

 SCF Done:  E(UHF) =  -77.0055495402     A.U. after   15 cycles
 E2 =    -0.2069751084D+00 EUMP2 =    -0.77212524648614D+02
 CCSD(T)
 CCSD(T)= -0.77251058035D+02

 The electronic state is 3-A".
 Alpha  occ. eigenvalues --  -11.71617 -11.54952  -1.39625  -1.09535  -0.92800
 Alpha  occ. eigenvalues --   -0.88651  -0.84930  -0.73522
 Alpha virt. eigenvalues --   -0.26121  -0.11230  -0.07433  -0.07333  -0.06970
 Alpha virt. eigenvalues --   -0.03278  -0.02226  -0.01717  -0.00649   0.00625
 Alpha virt. eigenvalues --    0.02795   0.04701   0.07355   0.09678   0.14668

  Beta  occ. eigenvalues --  -11.65621 -11.54711  -1.31868  -0.94156  -0.86482
  Beta  occ. eigenvalues --   -0.85367
  Beta virt. eigenvalues --   -0.27744  -0.18626  -0.15631  -0.10175  -0.07222
  Beta virt. eigenvalues --   -0.06886  -0.05865  -0.02680  -0.01986   0.00140
  Beta virt. eigenvalues --    0.00393   0.01545   0.03541   0.05786   0.07740

 Mulliken charges and spin densities:
               1          2
     1  C   -0.566297   0.065280
     2  C    0.783009   1.847649
     3  H    0.248504  -0.027435
     4  H    0.267392   0.057253
     5  H    0.267392   0.057253
 Sum of Mulliken charges =   1.00000   2.00000

 Dipole moment (field-independent basis, Debye):
    X=              0.3286    Y=              0.8377    Z=             -0.0000  Tot=              0.8999
 Quadrupole moment (field-independent basis, Debye-Ang):
   XX=             -9.0638   YY=             -6.5270   ZZ=            -10.0500
   XY=             -0.0849   XZ=              0.0000   YZ=              0.0000

 Normal termination of Gaussian 09 at Tue Oct 10 07:01:36 2017.
