 Gaussian 09, Revision E.01,
 Gaussian 09:  ES64L-G09RevE.01 30-Nov-2015

 -----------------------------------
 #p ccsd(t,maxcyc=200)/6-311++G(d,p)
 -----------------------------------

 -------------
 ccsd(t) iener
 -------------
 Symbolic Z-matrix:
 Charge =  1 Multiplicity = 1

                         Standard orientation:
 ---------------------------------------------------------------------
 Center     Atomic      Atomic             Coordinates (Angstroms)
 Number     Number       Type             X           Y           Z
 ---------------------------------------------------------------------
      1          6           0        1.310739    0.000000   -0.190353
      2          6           0       -1.183019   -0.000000   -0.001311
      3          1           0       -1.671997    0.968789   -0.010708
      4          1           0        1.900071   -0.000001    0.745129
      5          8           0        0.084700    0.000000    0.053284
      6          1           0       -1.671997   -0.968789   -0.010708
 ---------------------------------------------------------------------

 SCF Done:  E(RHF) =  -151.916314514     A.U. after   13 cycles
 E2 =    -0.4469468562D+00 EUMP2 =    -0.15236326136983D+03
 CCSD(T)
 CCSD(T)= -0.15242111809D+03

 The electronic state is 1-A.
 Alpha  occ. eigenvalues --  -20.99154 -11.66860 -11.58712  -1.83019  -1.38624
 Alpha  occ. eigenvalues --   -1.08598  -1.03639  -0.99577  -0.91851  -0.83901
 Alpha  occ. eigenvalues --   -0.60341
 Alpha virt. eigenvalues --   -0.20565  -0.13919  -0.11059  -0.07643  -0.06629
 Alpha virt. eigenvalues --   -0.04903  -0.03511  -0.00513  -0.00347   0.00130
 Alpha virt. eigenvalues --    0.03003   0.03455   0.03466   0.06087   0.11160

 Mulliken charges:
               1
     1  C   -0.090504
     2  C    0.142285
     3  H    0.260129
     4  H    0.206311
     5  O    0.221649
     6  H    0.260129
 Sum of Mulliken charges =   1.00000

 Dipole moment (field-independent basis, Debye):
    X=             -2.8784    Y=             -0.0000    Z=              1.5028  Tot=              3.2471
 Quadrupole moment (field-independent basis, Debye-Ang):
   XX=             -5.6440   YY=            -13.3324   ZZ=            -16.9808
   XY=             -0.0000   XZ=              3.2547   YZ=              0.0000

 7071\CCSD(T)=-152.4211181\RMSD=7.335e-09\PG=C01 [X(C2H3O1)]\\@
 Normal termination of Gaussian 09 at Tue Oct 10 06:52:05 2017.
