 Gaussian 09, Revision E.01,
 Gaussian 09:  ES64L-G09RevE.01 30-Nov-2015

 -----------------------------------
 #p ccsd(t,maxcyc=200)/6-311++G(d,p)
 -----------------------------------

 -------------
 ccsd(t) iener
 -------------
 Symbolic Z-matrix:
 Charge =  0 Multiplicity = 4

                         Standard orientation:
 ---------------------------------------------------------------------
 Center     Atomic      Atomic             Coordinates (Angstroms)
 Number     Number       Type             X           Y           Z
 ---------------------------------------------------------------------
      1          6           0       -0.092151    0.823798    0.000000
      2          6           0       -0.092151   -0.673589   -0.000000
      3          1           0        0.165471   -1.195337    0.921631
      4          1           0        0.774867    1.489424    0.000000
      5          1           0        0.165471   -1.195337   -0.921631
 ---------------------------------------------------------------------

 SCF Done:  E(UHF) =  -77.3389158195     A.U. after   14 cycles
 E2 =    -0.2118132051D+00 EUMP2 =    -0.77550729024584D+02
 CCSD(T)
 CCSD(T)= -0.77590237435D+02

 The electronic state is 4-A".
 Alpha  occ. eigenvalues --  -11.27169 -11.25759  -1.04723  -0.83854  -0.61372
 Alpha  occ. eigenvalues --   -0.60150  -0.50465  -0.38575  -0.35107
 Alpha virt. eigenvalues --    0.04572   0.06369   0.06926   0.11514   0.14116
 Alpha virt. eigenvalues --    0.14504   0.14697   0.16828   0.19470   0.19989
 Alpha virt. eigenvalues --    0.21327   0.27153   0.29919   0.31029   0.42519

  Beta  occ. eigenvalues --  -11.23480 -11.22415  -0.90849  -0.70774  -0.56798
  Beta  occ. eigenvalues --   -0.54910
  Beta virt. eigenvalues --    0.03525   0.05028   0.06677   0.06882   0.10072
  Beta virt. eigenvalues --    0.11444   0.14486   0.16259   0.18094   0.19096
  Beta virt. eigenvalues --    0.20737   0.21031   0.22923   0.25766   0.30137

 Mulliken charges and spin densities:
               1          2
     1  C   -0.075795   2.023865
     2  C   -0.232575   1.136424
     3  H    0.103715  -0.050495
     4  H    0.100941  -0.059300
     5  H    0.103715  -0.050495
 Sum of Mulliken charges =  -0.00000   3.00000

 Dipole moment (field-independent basis, Debye):
    X=              0.8987    Y=             -0.3809    Z=              0.0000  Tot=              0.9761
 Quadrupole moment (field-independent basis, Debye-Ang):
   XX=            -13.9975   YY=            -13.1894   ZZ=            -13.3315
   XY=              0.4916   XZ=             -0.0000   YZ=             -0.0000

 5521213\PMP3-0=-77.5793457\MP4SDQ=-77.5825257\CCSD=-77.583848\CCSD(T)=
 Normal termination of Gaussian 09 at Tue Oct 10 06:55:27 2017.
