 Gaussian 09, Revision E.01,
 Gaussian 09:  ES64L-G09RevE.01 30-Nov-2015

 -----------------------------------
 #p ccsd(t,maxcyc=200)/6-311++G(d,p)
 -----------------------------------

 -------------
 ccsd(t) iener
 -------------
 Symbolic Z-matrix:
 Charge =  0 Multiplicity = 2

                         Standard orientation:
 ---------------------------------------------------------------------
 Center     Atomic      Atomic             Coordinates (Angstroms)
 Number     Number       Type             X           Y           Z
 ---------------------------------------------------------------------
      1          6           0        0.028287   -0.406719   -0.009071
      2          6           0        1.242907    0.102914    0.016259
      3          1           0        1.398787    1.172925    0.149321
      4          1           0        2.110409   -0.536493   -0.074895
      5          1           0       -1.799616   -0.280994    0.486497
      6          8           0       -1.167093    0.183424   -0.075506
 ---------------------------------------------------------------------

 SCF Done:  E(UHF) =  -152.296975220     A.U. after   20 cycles
 E2 =    -0.4478314645D+00 EUMP2 =    -0.15274480668481D+03
 CCSD(T)
 CCSD(T)= -0.15279479131D+03

 The electronic state is 2-A.
 Alpha  occ. eigenvalues --  -20.61419 -11.31624 -11.22000  -1.43837  -1.03870
 Alpha  occ. eigenvalues --   -0.81253  -0.71130  -0.65285  -0.63410  -0.56907
 Alpha  occ. eigenvalues --   -0.41593  -0.36673
 Alpha virt. eigenvalues --    0.04261   0.05979   0.06849   0.11131   0.11673
 Alpha virt. eigenvalues --    0.12860   0.14285   0.15504   0.19719   0.21319
 Alpha virt. eigenvalues --    0.21613   0.22320   0.26692   0.27951   0.29638

  Beta  occ. eigenvalues --  -20.60734 -11.28126 -11.22928  -1.41210  -1.01359
  Beta  occ. eigenvalues --   -0.79834  -0.65186  -0.61838  -0.59665  -0.54620
  Beta  occ. eigenvalues --   -0.37658
  Beta virt. eigenvalues --    0.03753   0.05874   0.06904   0.08961   0.12465
  Beta virt. eigenvalues --    0.13304   0.14329   0.14969   0.16105   0.20493
  Beta virt. eigenvalues --    0.21616   0.22709   0.23449   0.27487   0.28613

 Mulliken charges and spin densities:
               1          2
     1  C    0.095822   1.438322
     2  C   -0.398472  -0.646736
     3  H    0.126435   0.112678
     4  H    0.133239   0.052222
     5  H    0.296073   0.003585
     6  O   -0.253096   0.039928
 Sum of Mulliken charges =  -0.00000   1.00000

 Dipole moment (field-independent basis, Debye):
    X=             -0.5104    Y=             -0.6927    Z=              1.1025  Tot=              1.3985
 Quadrupole moment (field-independent basis, Debye-Ang):
   XX=            -14.2628   YY=            -18.2210   ZZ=            -19.6597
   XY=              2.0598   XZ=             -2.3773   YZ=             -0.0538

 343\PMP3-0=-152.7691829\MP4SDQ=-152.7714896\CCSD=-152.776717\CCSD(T)=-
 Normal termination of Gaussian 09 at Tue Oct 10 06:43:38 2017.
