 Gaussian 09, Revision E.01,
 Gaussian 09:  ES64L-G09RevE.01 30-Nov-2015

 -----------------------------------
 #p ccsd(t,maxcyc=200)/6-311++G(d,p)
 -----------------------------------

 -------------
 ccsd(t) iener
 -------------
 Symbolic Z-matrix:
 Charge =  0 Multiplicity = 4

                         Standard orientation:
 ---------------------------------------------------------------------
 Center     Atomic      Atomic             Coordinates (Angstroms)
 Number     Number       Type             X           Y           Z
 ---------------------------------------------------------------------
      1          6           0        0.046563    0.524902   -0.174498
      2          6           0       -1.291589   -0.078610    0.009699
      3          1           0       -1.696104   -0.752350   -0.745770
      4          1           0       -1.710041   -0.155154    1.012224
      5          1           0        1.577190   -0.577410   -0.601946
      6          8           0        1.162389   -0.149104    0.165536
 ---------------------------------------------------------------------

 SCF Done:  E(UHF) =  -152.229932259     A.U. after   16 cycles
 E2 =    -0.4144381347D+00 EUMP2 =    -0.15264437039399D+03
 CCSD(T)
 CCSD(T)= -0.15269001189D+03

 The electronic state is 4-A.
 Alpha  occ. eigenvalues --  -20.60218 -11.30908 -11.26029  -1.42509  -1.03981
 Alpha  occ. eigenvalues --   -0.84646  -0.70879  -0.64312  -0.63066  -0.59733
 Alpha  occ. eigenvalues --   -0.44384  -0.37404  -0.35986
 Alpha virt. eigenvalues --    0.04183   0.06064   0.07024   0.10433   0.13280
 Alpha virt. eigenvalues --    0.13932   0.14377   0.15648   0.18716   0.20238
 Alpha virt. eigenvalues --    0.20871   0.26078   0.27080   0.29583   0.31402

  Beta  occ. eigenvalues --  -20.59191 -11.26075 -11.23527  -1.38577  -0.91227
  Beta  occ. eigenvalues --   -0.77212  -0.62834  -0.58421  -0.56513  -0.51950
  Beta virt. eigenvalues --    0.03663   0.05059   0.06890   0.07083   0.10560
  Beta virt. eigenvalues --    0.11857   0.14021   0.14565   0.15843   0.18639
  Beta virt. eigenvalues --    0.20017   0.21079   0.21554   0.25732   0.28012

 Mulliken charges and spin densities:
               1          2
     1  C   -0.044055   1.855421
     2  C   -0.237272   1.204447
     3  H    0.108270  -0.048097
     4  H    0.127571  -0.047223
     5  H    0.286890   0.034778
     6  O   -0.241405   0.000673
 Sum of Mulliken charges =  -0.00000   3.00000

 Dipole moment (field-independent basis, Debye):
    X=             -0.2844    Y=             -1.1432    Z=             -1.3708  Tot=              1.8074
 Quadrupole moment (field-independent basis, Debye-Ang):
   XX=            -17.3873   YY=            -18.9743   ZZ=            -17.6585
   XY=             -0.5486   XZ=             -3.0778   YZ=              1.4450

 7\PMP3-0=-152.6666888\MP4SDQ=-152.6742679\CCSD=-152.6757686\CCSD(T)=-1
 Normal termination of Gaussian 09 at Tue Oct 10 06:45:34 2017.
