 Gaussian 09, Revision E.01,
 Gaussian 09:  ES64L-G09RevE.01 30-Nov-2015

 -----------------------------------
 #p ccsd(t,maxcyc=200)/6-311++G(d,p)
 -----------------------------------

 -------------
 ccsd(t) iener
 -------------
 Symbolic Z-matrix:
 Charge =  0 Multiplicity = 4

                         Standard orientation:
 ---------------------------------------------------------------------
 Center     Atomic      Atomic             Coordinates (Angstroms)
 Number     Number       Type             X           Y           Z
 ---------------------------------------------------------------------
      1          6           0        0.000000   -0.000000   -0.523960
      2          6           0       -0.000000    0.000000    0.974736
      3          1           0       -0.000000    1.029478   -0.901551
      4          1           0        0.891554   -0.514739   -0.901551
      5          1           0       -0.891554   -0.514739   -0.901551
 ---------------------------------------------------------------------

 SCF Done:  E(UHF) =  -77.3362775770     A.U. after   13 cycles
 E2 =    -0.2137383562D+00 EUMP2 =    -0.77550015933207D+02
 CCSD(T)
 CCSD(T)= -0.77586675587D+02

 The electronic state is 4-A1.
 Alpha  occ. eigenvalues --  -11.28008 -11.25217  -1.04733  -0.81730  -0.60228
 Alpha  occ. eigenvalues --   -0.60228  -0.52587  -0.38903  -0.38903
 Alpha virt. eigenvalues --    0.04446   0.07412   0.07412   0.09403   0.14204
 Alpha virt. eigenvalues --    0.14726   0.14726   0.16380   0.16380   0.19663
 Alpha virt. eigenvalues --    0.21235   0.29624   0.29624   0.37675   0.41075

  Beta  occ. eigenvalues --  -11.25127 -11.20535  -0.97418  -0.60358  -0.56540
  Beta  occ. eigenvalues --   -0.56540
  Beta virt. eigenvalues --    0.02703   0.06190   0.07423   0.07423   0.11384
  Beta virt. eigenvalues --    0.11384   0.12178   0.15581   0.16335   0.16335
  Beta virt. eigenvalues --    0.20098   0.24841   0.24841   0.24996   0.31203

 Mulliken charges and spin densities:
               1          2
     1  C   -0.488905  -0.073159
     2  C    0.089340   2.905729
     3  H    0.133188   0.055810
     4  H    0.133188   0.055810
     5  H    0.133188   0.055810
 Sum of Mulliken charges =  -0.00000   3.00000

 Dipole moment (field-independent basis, Debye):
    X=             -0.0000    Y=              0.0000    Z=             -0.9375  Tot=              0.9375
 Quadrupole moment (field-independent basis, Debye-Ang):
   XX=            -13.4638   YY=            -13.4638   ZZ=            -13.6488
   XY=              0.0000   XZ=              0.0000   YZ=             -0.0000

 Normal termination of Gaussian 09 at Tue Oct 10 06:54:40 2017.
