 Gaussian 09, Revision E.01,
 Gaussian 09:  ES64L-G09RevE.01 30-Nov-2015

 -----------------------------------
 #p ccsd(t,maxcyc=200)/6-311++G(d,p)
 -----------------------------------

 -------------
 ccsd(t) iener
 -------------
 Symbolic Z-matrix:
 Charge =  1 Multiplicity = 1

                         Standard orientation:
 ---------------------------------------------------------------------
 Center     Atomic      Atomic             Coordinates (Angstroms)
 Number     Number       Type             X           Y           Z
 ---------------------------------------------------------------------
      1          6           0        0.000000    0.000000   -1.209768
      2          6           0       -0.000000   -0.000000    0.215668
      3          1           0       -0.000000    1.041648   -1.558043
      4          1           0        0.902094   -0.520824   -1.558043
      5          1           0       -0.902094   -0.520824   -1.558043
      6          8           0       -0.000000   -0.000000    1.329841
 ---------------------------------------------------------------------

 SCF Done:  E(RHF) =  -152.100788633     A.U. after   11 cycles
 E2 =    -0.4640206488D+00 EUMP2 =    -0.15256480928223D+03
 CCSD(T)
 CCSD(T)= -0.15259860724D+03

 The electronic state is 1-A1.
 Alpha  occ. eigenvalues --  -20.97095 -11.71288 -11.54306  -1.82505  -1.34904
 Alpha  occ. eigenvalues --   -1.06977  -0.96135  -0.95373  -0.95373  -0.84436
 Alpha  occ. eigenvalues --   -0.84436
 Alpha virt. eigenvalues --   -0.14050  -0.14050  -0.12323  -0.07371  -0.07371
 Alpha virt. eigenvalues --   -0.06709  -0.02381  -0.01490  -0.01490  -0.00925
 Alpha virt. eigenvalues --   -0.00925   0.00528   0.03882   0.09428   0.09428

 Mulliken charges:
               1
     1  C   -0.478623
     2  C    0.740165
     3  H    0.271124
     4  H    0.271124
     5  H    0.271124
     6  O   -0.074915
 Sum of Mulliken charges =   1.00000

 Dipole moment (field-independent basis, Debye):
    X=              0.0000    Y=             -0.0000    Z=             -3.0066  Tot=              3.0066
 Quadrupole moment (field-independent basis, Debye-Ang):
   XX=            -13.9355   YY=            -13.9355   ZZ=            -10.5149
   XY=              0.0000   XZ=              0.0000   YZ=              0.0000

 MP4DQ=-152.5735751\MP4SDQ=-152.5821709\CCSD=-152.5790922\CCSD(T)=-152.
 Normal termination of Gaussian 09 at Tue Oct 10 06:51:14 2017.
