 Gaussian 09, Revision E.01,
 Gaussian 09:  ES64L-G09RevE.01 30-Nov-2015

 -----------------------------------
 #p ccsd(t,maxcyc=200)/6-311++G(d,p)
 -----------------------------------

 -------------
 ccsd(t) iener
 -------------
 Symbolic Z-matrix:
 Charge =  0 Multiplicity = 2

                         Standard orientation:
 ---------------------------------------------------------------------
 Center     Atomic      Atomic             Coordinates (Angstroms)
 Number     Number       Type             X           Y           Z
 ---------------------------------------------------------------------
      1          6           0        0.047891    0.719185    0.000000
      2          6           0        0.047891   -0.586211    0.000000
      3          1           0       -0.880658   -1.164343   -0.000000
      4          1           0       -0.662660    1.532574   -0.000000
      5          1           0        0.968628   -1.166072    0.000000
 ---------------------------------------------------------------------

 SCF Done:  E(UHF) =  -77.4120500493     A.U. after   18 cycles
 E2 =    -0.2451200019D+00 EUMP2 =    -0.77657170051207D+02
 CCSD(T)
 CCSD(T)= -0.77703617320D+02

 The electronic state is 2-A'.
 Alpha  occ. eigenvalues --  -11.25914 -11.22837  -1.05170  -0.79015  -0.63802
 Alpha  occ. eigenvalues --   -0.60335  -0.41094  -0.40048
 Alpha virt. eigenvalues --    0.04772   0.06016   0.06679   0.10594   0.12935
 Alpha virt. eigenvalues --    0.13454   0.14316   0.18685   0.18929   0.21146
 Alpha virt. eigenvalues --    0.22054   0.23105   0.27391   0.28513   0.38967

  Beta  occ. eigenvalues --  -11.24149 -11.22386  -1.01927  -0.73989  -0.61547
  Beta  occ. eigenvalues --   -0.57345  -0.39734
  Beta virt. eigenvalues --    0.04756   0.06066   0.06592   0.08666   0.11375
  Beta virt. eigenvalues --    0.12942   0.14292   0.17354   0.18858   0.20252
  Beta virt. eigenvalues --    0.21327   0.23039   0.24739   0.27548   0.29867

 Mulliken charges and spin densities:
               1          2
     1  C   -0.041200   1.603288
     2  C   -0.336327  -0.784958
     3  H    0.110943   0.128959
     4  H    0.142513  -0.038733
     5  H    0.124071   0.091444
 Sum of Mulliken charges =  -0.00000   1.00000

 Dipole moment (field-independent basis, Debye):
    X=             -0.5877    Y=             -0.2248    Z=             -0.0000  Tot=              0.6292
 Quadrupole moment (field-independent basis, Debye-Ang):
   XX=            -12.4438   YY=            -11.4200   ZZ=            -15.0833
   XY=             -1.1445   XZ=             -0.0000   YZ=             -0.0000

 1045\MP4SDQ=-77.686334\CCSD=-77.6930401\CCSD(T)=-77.7036173\S2=0.94766
 Normal termination of Gaussian 09 at Tue Oct 10 06:55:06 2017.
