 Gaussian 09, Revision E.01,
 Gaussian 09:  ES64L-G09RevE.01 30-Nov-2015

 -----------------------------------
 #p ccsd(t,maxcyc=200)/6-311++G(d,p)
 -----------------------------------

 -------------
 ccsd(t) iener
 -------------
 Symbolic Z-matrix:
 Charge =  1 Multiplicity = 3

                         Standard orientation:
 ---------------------------------------------------------------------
 Center     Atomic      Atomic             Coordinates (Angstroms)
 Number     Number       Type             X           Y           Z
 ---------------------------------------------------------------------
      1          6           0       -1.148041   -0.106328   -0.000322
      2          6           0        0.191206    0.216061   -0.000067
      3          6           0        1.416185   -0.248431   -0.000440
      4          1           0       -1.884899    0.688752   -0.002394
      5          1           0        0.588915    1.287599    0.003826
      6          1           0       -1.460115   -1.144159    0.003542
 ---------------------------------------------------------------------

 SCF Done:  E(UHF) =  -114.867405888     A.U. after   21 cycles
 E2 =    -0.3175448722D+00 EUMP2 =    -0.11518495076032D+03
 CCSD(T)
 CCSD(T)= -0.11524511510D+03

 The electronic state is 3-A.
 Alpha  occ. eigenvalues --  -11.69808 -11.54908 -11.50497  -1.40700  -1.24019
 Alpha  occ. eigenvalues --   -0.99364  -0.90706  -0.88018  -0.81476  -0.78587
 Alpha  occ. eigenvalues --   -0.63383
 Alpha virt. eigenvalues --   -0.24588  -0.10121  -0.07355  -0.07086  -0.06545
 Alpha virt. eigenvalues --   -0.04488  -0.03833  -0.02212  -0.00177   0.00297
 Alpha virt. eigenvalues --    0.02214   0.03154   0.04186   0.04547   0.06564

  Beta  occ. eigenvalues --  -11.64158 -11.55830 -11.48589  -1.36908  -1.14894
  Beta  occ. eigenvalues --   -0.92675  -0.87785  -0.78254  -0.71609
  Beta virt. eigenvalues --   -0.27231  -0.17280  -0.15850  -0.09412  -0.06920
  Beta virt. eigenvalues --   -0.06034  -0.05422  -0.03290  -0.01595   0.00121
  Beta virt. eigenvalues --    0.00629   0.01883   0.02557   0.03320   0.04106

 Mulliken charges and spin densities:
               1          2
     1  C   -0.333734   1.068134
     2  C   -0.017712  -0.459504
     3  C    0.641763   1.535274
     4  H    0.206144  -0.076321
     5  H    0.265593   0.012951
     6  H    0.237946  -0.080534
 Sum of Mulliken charges =   1.00000   2.00000

 Dipole moment (field-independent basis, Debye):
    X=              2.0448    Y=              0.2751    Z=              0.0032  Tot=              2.0633
 Quadrupole moment (field-independent basis, Debye-Ang):
   XX=             -5.3836   YY=            -11.7980   ZZ=            -18.1053
   XY=             -0.0954   XZ=             -0.0008   YZ=              0.0037

 Normal termination of Gaussian 09 at Tue Oct 10 07:23:19 2017.
