 Gaussian 09, Revision E.01,
 Gaussian 09:  ES64L-G09RevE.01 30-Nov-2015

 -----------------------------------
 #p ccsd(t,maxcyc=200)/6-311++G(d,p)
 -----------------------------------

 -------------
 ccsd(t) iener
 -------------
 Symbolic Z-matrix:
 Charge =  0 Multiplicity = 4

                         Standard orientation:
 ---------------------------------------------------------------------
 Center     Atomic      Atomic             Coordinates (Angstroms)
 Number     Number       Type             X           Y           Z
 ---------------------------------------------------------------------
      1          6           0       -0.898426   -0.614862    0.000000
      2          6           0       -0.000000    0.424766   -0.000000
      3          6           0        1.383717    0.290941   -0.000000
      4          1           0       -1.962614   -0.409489    0.000000
      5          1           0       -0.373414    1.452434   -0.000000
      6          1           0       -0.575716   -1.648014    0.000000
 ---------------------------------------------------------------------

 SCF Done:  E(UHF) =  -115.206782106     A.U. after   16 cycles
 E2 =    -0.3188653589D+00 EUMP2 =    -0.11552564746491D+03
 CCSD(T)
 CCSD(T)= -0.11558418405D+03

 The electronic state is 4-A".
 Alpha  occ. eigenvalues --  -11.29302 -11.25099 -11.24418  -1.09464  -0.95132
 Alpha  occ. eigenvalues --   -0.74766  -0.64641  -0.59448  -0.52724  -0.48879
 Alpha  occ. eigenvalues --   -0.40495  -0.36468
 Alpha virt. eigenvalues --    0.04532   0.06089   0.06760   0.10270   0.11598
 Alpha virt. eigenvalues --    0.13236   0.13502   0.15062   0.16631   0.17859
 Alpha virt. eigenvalues --    0.18618   0.19793   0.21187   0.22537   0.23529

  Beta  occ. eigenvalues --  -11.26345 -11.22464 -11.21956  -1.05070  -0.82660
  Beta  occ. eigenvalues --   -0.67150  -0.60141  -0.53254  -0.41821
  Beta virt. eigenvalues --    0.02444   0.05127   0.06038   0.07684   0.08926
  Beta virt. eigenvalues --    0.10779   0.11139   0.13416   0.15556   0.16319
  Beta virt. eigenvalues --    0.18077   0.18824   0.20373   0.20558   0.20969

 Mulliken charges and spin densities:
               1          2
     1  C   -0.387319   1.075579
     2  C    0.014616  -0.853862
     3  C   -0.047887   2.810480
     4  H    0.111582  -0.070392
     5  H    0.163059   0.118058
     6  H    0.145948  -0.079862
 Sum of Mulliken charges =  -0.00000   3.00000

 Dipole moment (field-independent basis, Debye):
    X=             -0.6135    Y=              0.0111    Z=              0.0000  Tot=              0.6136
 Quadrupole moment (field-independent basis, Debye-Ang):
   XX=            -17.6955   YY=            -17.2808   ZZ=            -20.8113
   XY=             -0.2172   XZ=              0.0000   YZ=              0.0000

 5628426\CCSD=-115.5701547\CCSD(T)=-115.5841841\S2=3.998995\S2-1=3.9282
 Normal termination of Gaussian 09 at Tue Oct 10 07:20:20 2017.
