 Gaussian 09, Revision E.01,
 Gaussian 09:  ES64L-G09RevE.01 30-Nov-2015

 -----------------------------------
 #p ccsd(t,maxcyc=200)/6-311++G(d,p)
 -----------------------------------

 -------------
 ccsd(t) iener
 -------------
 Symbolic Z-matrix:
 Charge =  1 Multiplicity = 3

                         Standard orientation:
 ---------------------------------------------------------------------
 Center     Atomic      Atomic             Coordinates (Angstroms)
 Number     Number       Type             X           Y           Z
 ---------------------------------------------------------------------
      1          6           0       -0.000000    0.791066    0.000000
      2          6           0       -0.524335   -0.649641   -0.000000
      3          6           0        0.802273   -0.401101   -0.000000
      4          1           0       -0.124191    1.410023    0.910458
      5          1           0       -1.419241   -1.261993   -0.000000
      6          1           0       -0.124191    1.410023   -0.910458
 ---------------------------------------------------------------------

 SCF Done:  E(UHF) =  -114.883779951     A.U. after   19 cycles
 E2 =    -0.3471000153D+00 EUMP2 =    -0.11523087996600D+03
 CCSD(T)
 CCSD(T)= -0.11528290060D+03

 The electronic state is 3-A".
 Alpha  occ. eigenvalues --  -11.62621 -11.61111 -11.54105  -1.51744  -1.13192
 Alpha  occ. eigenvalues --   -1.06608  -0.92258  -0.91029  -0.82256  -0.69736
 Alpha  occ. eigenvalues --   -0.69536
 Alpha virt. eigenvalues --   -0.18160  -0.10026  -0.08501  -0.07313  -0.06808
 Alpha virt. eigenvalues --   -0.03259  -0.02428  -0.01586  -0.01101   0.00702
 Alpha virt. eigenvalues --    0.00949   0.02629   0.03239   0.04968   0.05664

  Beta  occ. eigenvalues --  -11.59769 -11.58939 -11.54049  -1.44887  -1.08261
  Beta  occ. eigenvalues --   -1.01161  -0.83912  -0.78785  -0.77488
  Beta virt. eigenvalues --   -0.26617  -0.21298  -0.09531  -0.08188  -0.08122
  Beta virt. eigenvalues --   -0.06678  -0.06079  -0.02925  -0.02050  -0.00587
  Beta virt. eigenvalues --    0.00219   0.02237   0.03285   0.03970   0.04299

 Mulliken charges and spin densities:
               1          2
     1  C   -0.390399  -0.033754
     2  C    0.230389   0.758593
     3  C    0.326154   1.081992
     4  H    0.246304   0.109528
     5  H    0.341249  -0.025888
     6  H    0.246304   0.109528
 Sum of Mulliken charges =   1.00000   2.00000

 Dipole moment (field-independent basis, Debye):
    X=             -1.1950    Y=             -0.2865    Z=              0.0000  Tot=              1.2288
 Quadrupole moment (field-independent basis, Debye-Ang):
   XX=            -13.0246   YY=            -10.6852   ZZ=            -14.1693
   XY=              1.7594   XZ=              0.0000   YZ=              0.0000

 03\MP4SDQ=-115.2634997\CCSD=-115.2657783\CCSD(T)=-115.2829006\S2=2.013
 Normal termination of Gaussian 09 at Tue Oct 10 07:22:30 2017.
