 Gaussian 09, Revision E.01,
 Gaussian 09:  ES64L-G09RevE.01 30-Nov-2015

 -----------------------------------
 #p ccsd(t,maxcyc=200)/6-311++G(d,p)
 -----------------------------------

 -------------
 ccsd(t) iener
 -------------
 Symbolic Z-matrix:
 Charge =  0 Multiplicity = 4

                         Standard orientation:
 ---------------------------------------------------------------------
 Center     Atomic      Atomic             Coordinates (Angstroms)
 Number     Number       Type             X           Y           Z
 ---------------------------------------------------------------------
      1          6           0        0.741546   -0.233408    0.015504
      2          6           0       -0.807967   -0.352092   -0.189426
      3          6           0       -0.117613    0.927014    0.089242
      4          1           0        1.140137   -0.777565    0.875265
      5          1           0       -1.401979   -0.942652    0.513226
      6          1           0        1.366051   -0.328865   -0.880417
 ---------------------------------------------------------------------

 SCF Done:  E(UHF) =  -115.140424844     A.U. after   18 cycles
 E2 =    -0.3480840406D+00 EUMP2 =    -0.11548850888487D+03
 CCSD(T)
 CCSD(T)= -0.11554008896D+03

 The electronic state is 4-A.
 Alpha  occ. eigenvalues --  -11.28756 -11.28366 -11.26056  -1.17894  -0.84626
 Alpha  occ. eigenvalues --   -0.79679  -0.66053  -0.60756  -0.51503  -0.45830
 Alpha  occ. eigenvalues --   -0.40220  -0.34308
 Alpha virt. eigenvalues --    0.04646   0.05816   0.06814   0.08816   0.12102
 Alpha virt. eigenvalues --    0.13817   0.14267   0.14646   0.15185   0.17316
 Alpha virt. eigenvalues --    0.18951   0.20559   0.21475   0.22434   0.23775

  Beta  occ. eigenvalues --  -11.26272 -11.25743 -11.23386  -1.10303  -0.78962
  Beta  occ. eigenvalues --   -0.69208  -0.58197  -0.47421  -0.44262
  Beta virt. eigenvalues --    0.03522   0.05243   0.05928   0.05975   0.07237
  Beta virt. eigenvalues --    0.10280   0.11882   0.13094   0.14380   0.16434
  Beta virt. eigenvalues --    0.16950   0.17953   0.19301   0.20989   0.22035

 Mulliken charges and spin densities:
               1          2
     1  C   -0.365503  -0.190162
     2  C   -0.072776   1.204696
     3  C    0.070371   1.858225
     4  H    0.122805   0.052206
     5  H    0.114822  -0.011966
     6  H    0.130280   0.087001
 Sum of Mulliken charges =  -0.00000   3.00000

 Dipole moment (field-independent basis, Debye):
    X=              0.6959    Y=             -1.1325    Z=              0.4081  Tot=              1.3905
 Quadrupole moment (field-independent basis, Debye-Ang):
   XX=            -18.1990   YY=            -19.6834   ZZ=            -18.6938
   XY=              0.2270   XZ=             -1.0724   YZ=             -0.9524

 \PMP3-0=-115.5187262\MP4SDQ=-115.5224182\CCSD=-115.5246837\CCSD(T)=-11
 Normal termination of Gaussian 09 at Tue Oct 10 07:19:17 2017.
