 Gaussian 09, Revision E.01,
 Gaussian 09:  ES64L-G09RevE.01 30-Nov-2015

 -----------------------------------
 #p ccsd(t,maxcyc=200)/6-311++G(d,p)
 -----------------------------------

 -------------
 ccsd(t) iener
 -------------
 Symbolic Z-matrix:
 Charge =  0 Multiplicity = 2

                         Standard orientation:
 ---------------------------------------------------------------------
 Center     Atomic      Atomic             Coordinates (Angstroms)
 Number     Number       Type             X           Y           Z
 ---------------------------------------------------------------------
      1          6           0       -0.814600   -0.818051   -0.000000
      2          6           0        1.266310    0.706544    0.000000
      3          6           0       -0.000000    0.310985   -0.000000
      4          1           0       -0.373564   -1.805016   -0.000000
      5          1           0       -0.445987    1.336082   -0.000000
      6          1           0       -1.890706   -0.727933   -0.000000
 ---------------------------------------------------------------------

 SCF Done:  E(UHF) =  -115.218763354     A.U. after   57 cycles
 E2 =    -0.3494491806D+00 EUMP2 =    -0.11556821253511D+03
 CCSD(T)
 CCSD(T)= -0.11563370949D+03

 The electronic state is 2-A".
 Alpha  occ. eigenvalues --  -11.29866 -11.27031 -11.24580  -1.10314  -0.96532
 Alpha  occ. eigenvalues --   -0.70304  -0.65076  -0.56064  -0.49477  -0.47176
 Alpha  occ. eigenvalues --   -0.36086
 Alpha virt. eigenvalues --    0.03442   0.05471   0.06370   0.07256   0.11241
 Alpha virt. eigenvalues --    0.12016   0.13632   0.14616   0.15265   0.16925
 Alpha virt. eigenvalues --    0.18620   0.18919   0.21009   0.21113   0.22655

  Beta  occ. eigenvalues --  -11.28261 -11.25900 -11.24938  -1.09318  -0.89746
  Beta  occ. eigenvalues --   -0.69416  -0.63984  -0.55778  -0.43923  -0.43645
  Beta virt. eigenvalues --    0.03961   0.05480   0.06372   0.06498   0.07929
  Beta virt. eigenvalues --    0.11001   0.12014   0.13957   0.16285   0.17238
  Beta virt. eigenvalues --    0.18767   0.18947   0.19077   0.20958   0.21434

 Mulliken charges and spin densities:
               1          2
     1  C   -0.434624   1.118321
     2  C    0.024237   0.773125
     3  C   -0.048648  -0.723516
     4  H    0.158258  -0.095141
     5  H    0.172666   0.019675
     6  H    0.128111  -0.092465
 Sum of Mulliken charges =  -0.00000   1.00000

 Dipole moment (field-independent basis, Debye):
    X=             -2.3723    Y=             -0.8402    Z=             -0.0000  Tot=              2.5167
 Quadrupole moment (field-independent basis, Debye-Ang):
   XX=            -21.5452   YY=            -17.0905   ZZ=            -21.2126
   XY=             -2.6587   XZ=             -0.0000   YZ=              0.0000

 15.6095003\CCSD=-115.6172955\CCSD(T)=-115.6337095\S2=0.99763\S2-1=0.93
 Normal termination of Gaussian 09 at Tue Oct 10 07:19:29 2017.
