 Gaussian 09, Revision E.01,
 Gaussian 09:  ES64L-G09RevE.01 30-Nov-2015

 -----------------------------------
 #p ccsd(t,maxcyc=200)/6-311++G(d,p)
 -----------------------------------

 -------------
 ccsd(t) iener
 -------------
 Symbolic Z-matrix:
 Charge =  1 Multiplicity = 1

                         Standard orientation:
 ---------------------------------------------------------------------
 Center     Atomic      Atomic             Coordinates (Angstroms)
 Number     Number       Type             X           Y           Z
 ---------------------------------------------------------------------
      1          6           0       -0.430211    1.861498    0.000000
      2          6           0        0.000000    0.730034    0.000000
      3          6           0        0.569235   -0.530314    0.000000
      4          1           0       -0.821322    2.859742    0.000000
      5          1           0       -1.050735   -1.533796   -0.000000
      6          1           0        1.651974   -0.656771    0.000000
      7          8           0       -0.076758   -1.629561   -0.000000
 ---------------------------------------------------------------------

 SCF Done:  E(RHF) =  -189.898721744     A.U. after   16 cycles
 E2 =    -0.5832965038D+00 EUMP2 =    -0.19048201824754D+03
 CCSD(T)
 CCSD(T)= -0.19052937961D+03

 The electronic state is 1-A'.
 Alpha  occ. eigenvalues --  -20.90276 -11.65852 -11.53001 -11.48237  -1.73547
 Alpha  occ. eigenvalues --   -1.32429  -1.20906  -1.08718  -0.96873  -0.95624
 Alpha  occ. eigenvalues --   -0.86848  -0.83498  -0.66314  -0.65933
 Alpha virt. eigenvalues --   -0.20544  -0.11030  -0.08069  -0.07806  -0.06004
 Alpha virt. eigenvalues --   -0.04742  -0.03087  -0.01241  -0.00239  -0.00000
 Alpha virt. eigenvalues --    0.01729   0.02234   0.03758   0.04187   0.05799

 Mulliken charges:
               1
     1  C   -1.895209
     2  C    2.108773
     3  C   -0.009344
     4  H    0.261240
     5  H    0.324706
     6  H    0.260525
     7  O   -0.050690
 Sum of Mulliken charges =   1.00000

 Dipole moment (field-independent basis, Debye):
    X=             -0.6365    Y=              1.4038    Z=             -0.0000  Tot=              1.5413
 Quadrupole moment (field-independent basis, Debye-Ang):
   XX=            -14.9029   YY=             -7.5645   ZZ=            -21.8369
   XY=             -2.1717   XZ=             -0.0000   YZ=              0.0000

 Normal termination of Gaussian 09 at Tue Oct 10 07:07:51 2017.
