 Gaussian 09, Revision E.01,
 Gaussian 09:  ES64L-G09RevE.01 30-Nov-2015

 -----------------------------------
 #p ccsd(t,maxcyc=200)/6-311++G(d,p)
 -----------------------------------

 -------------
 ccsd(t) iener
 -------------
 Symbolic Z-matrix:
 Charge =  0 Multiplicity = 2

                         Standard orientation:
 ---------------------------------------------------------------------
 Center     Atomic      Atomic             Coordinates (Angstroms)
 Number     Number       Type             X           Y           Z
 ---------------------------------------------------------------------
      1          6           0        0.035257   -0.418175    0.656131
      2          6           0        0.035257   -0.418175   -0.656131
      3          6           0        0.035257    0.886457   -0.000000
      4          1           0        0.047656   -0.982352    1.573775
      5          1           0        0.047656   -0.982352   -1.573775
      6          1           0       -0.729932    1.664059   -0.000000
 ---------------------------------------------------------------------

 SCF Done:  E(UHF) =  -115.222046175     A.U. after   15 cycles
 E2 =    -0.3927698579D+00 EUMP2 =    -0.11561481603262D+03
 CCSD(T)
 CCSD(T)= -0.11565846437D+03

 The electronic state is 2-A'.
 Alpha  occ. eigenvalues --  -11.26291 -11.26090 -11.25319  -1.18786  -0.81593
 Alpha  occ. eigenvalues --   -0.78250  -0.69311  -0.55524  -0.48006  -0.45359
 Alpha  occ. eigenvalues --   -0.28572
 Alpha virt. eigenvalues --    0.04381   0.05179   0.06150   0.09843   0.10834
 Alpha virt. eigenvalues --    0.12666   0.13107   0.15419   0.16470   0.17251
 Alpha virt. eigenvalues --    0.18314   0.18952   0.20489   0.21312   0.23662

  Beta  occ. eigenvalues --  -11.26201 -11.26011 -11.22961  -1.16913  -0.77949
  Beta  occ. eigenvalues --   -0.76896  -0.67626  -0.50866  -0.43744  -0.42474
  Beta virt. eigenvalues --    0.04412   0.05199   0.06257   0.10193   0.10440
  Beta virt. eigenvalues --    0.11818   0.12701   0.13225   0.16436   0.17391
  Beta virt. eigenvalues --    0.18259   0.19054   0.20663   0.21627   0.22280

 Mulliken charges and spin densities:
               1          2
     1  C   -0.137799   0.038437
     2  C   -0.137799   0.038437
     3  C   -0.190479   0.925889
     4  H    0.186208  -0.010012
     5  H    0.186208  -0.010012
     6  H    0.093661   0.017260
 Sum of Mulliken charges =  -0.00000   1.00000

 Dipole moment (field-independent basis, Debye):
    X=             -0.6148    Y=             -1.1983    Z=             -0.0000  Tot=              1.3468
 Quadrupole moment (field-independent basis, Debye-Ang):
   XX=            -19.8604   YY=            -18.5839   ZZ=            -15.7214
   XY=             -1.3452   XZ=             -0.0000   YZ=              0.0000

 .6363347\MP4SDQ=-115.6392124\CCSD=-115.6398195\CCSD(T)=-115.6584644\S2
 Normal termination of Gaussian 09 at Tue Oct 10 07:16:57 2017.
