 Gaussian 09, Revision E.01,
 Gaussian 09:  ES64L-G09RevE.01 30-Nov-2015

 -----------------------------------
 #p ccsd(t,maxcyc=200)/6-311++G(d,p)
 -----------------------------------

 -------------
 ccsd(t) iener
 -------------
 Symbolic Z-matrix:
 Charge =  1 Multiplicity = 1

                         Standard orientation:
 ---------------------------------------------------------------------
 Center     Atomic      Atomic             Coordinates (Angstroms)
 Number     Number       Type             X           Y           Z
 ---------------------------------------------------------------------
      1          6           0       -0.663057   -1.001866   -0.000000
      2          6           0        0.695367   -0.977139    0.000000
      3          6           0        0.000000    0.206146   -0.000000
      4          1           0       -1.571831   -1.588726   -0.000000
      5          1           0       -0.799007    1.922132   -0.000000
      6          1           0        1.624533   -1.530836    0.000000
      7          8           0        0.069055    1.479323   -0.000000
 ---------------------------------------------------------------------

 SCF Done:  E(RHF) =  -189.926944387     A.U. after   13 cycles
 E2 =    -0.5724357873D+00 EUMP2 =    -0.19049938017463D+03
 CCSD(T)
 CCSD(T)= -0.19054495000D+03

 The electronic state is 1-A'.
 Alpha  occ. eigenvalues --  -20.86525 -11.61840 -11.55218 -11.54860  -1.70050
 Alpha  occ. eigenvalues --   -1.49583  -1.09906  -1.05759  -1.00008  -0.91046
 Alpha  occ. eigenvalues --   -0.86783  -0.80184  -0.73899  -0.70554
 Alpha virt. eigenvalues --   -0.12026  -0.10503  -0.08097  -0.07478  -0.07215
 Alpha virt. eigenvalues --   -0.03968  -0.03867  -0.03055  -0.02115   0.01362
 Alpha virt. eigenvalues --    0.01877   0.02616   0.02647   0.04475   0.04829

 Mulliken charges:
               1
     1  C    0.155808
     2  C    0.003041
     3  C    0.127298
     4  H    0.302401
     5  H    0.357632
     6  H    0.301275
     7  O   -0.247455
 Sum of Mulliken charges =   1.00000

 Dipole moment (field-independent basis, Debye):
    X=             -1.7139    Y=             -2.0116    Z=             -0.0000  Tot=              2.6428
 Quadrupole moment (field-independent basis, Debye-Ang):
   XX=            -13.4250   YY=            -11.1753   ZZ=            -21.1815
   XY=             -4.0407   XZ=              0.0000   YZ=             -0.0000

 =-190.5196471\CCSD(T)=-190.54495\RMSD=4.210e-09\PG=CS [SG(C3H3O1)]\\@
 Normal termination of Gaussian 09 at Tue Oct 10 07:04:40 2017.
