 Gaussian 09, Revision E.01,
 Gaussian 09:  ES64L-G09RevE.01 30-Nov-2015

 -----------------------------------
 #p ccsd(t,maxcyc=200)/6-311++G(d,p)
 -----------------------------------

 -------------
 ccsd(t) iener
 -------------
 Symbolic Z-matrix:
 Charge =  1 Multiplicity = 1

                         Standard orientation:
 ---------------------------------------------------------------------
 Center     Atomic      Atomic             Coordinates (Angstroms)
 Number     Number       Type             X           Y           Z
 ---------------------------------------------------------------------
      1          6           0       -0.431342    1.861055    0.000000
      2          6           0       -0.000000    0.730029    0.000000
      3          6           0        0.569746   -0.530107   -0.000000
      4          1           0       -0.822990    2.859087    0.000000
      5          1           0       -1.050104   -1.533065   -0.000000
      6          1           0        1.652509   -0.656502   -0.000000
      7          8           0       -0.076230   -1.629422   -0.000000
 ---------------------------------------------------------------------

 SCF Done:  E(RHF) =  -189.898721332     A.U. after   16 cycles
 E2 =    -0.5833014355D+00 EUMP2 =    -0.19048202276717D+03
 CCSD(T)
 CCSD(T)= -0.19052938426D+03

 The electronic state is 1-A'.
 Alpha  occ. eigenvalues --  -20.90277 -11.65854 -11.53003 -11.48238  -1.73549
 Alpha  occ. eigenvalues --   -1.32429  -1.20905  -1.08718  -0.96871  -0.95625
 Alpha  occ. eigenvalues --   -0.86848  -0.83504  -0.66315  -0.65935
 Alpha virt. eigenvalues --   -0.20546  -0.11028  -0.08069  -0.07808  -0.06006
 Alpha virt. eigenvalues --   -0.04743  -0.03087  -0.01240  -0.00239   0.00001
 Alpha virt. eigenvalues --    0.01726   0.02234   0.03757   0.04186   0.05798

 Mulliken charges:
               1
     1  C   -1.893386
     2  C    2.109521
     3  C   -0.011936
     4  H    0.261255
     5  H    0.324553
     6  H    0.260529
     7  O   -0.050535
 Sum of Mulliken charges =   1.00000

 Dipole moment (field-independent basis, Debye):
    X=             -0.6361    Y=              1.4048    Z=              0.0000  Tot=              1.5421
 Quadrupole moment (field-independent basis, Debye-Ang):
   XX=            -14.8976   YY=             -7.5754   ZZ=            -21.8369
   XY=             -2.1830   XZ=             -0.0000   YZ=             -0.0000

 90.5011554\CCSD(T)=-190.5293843\RMSD=5.384e-09\PG=CS [SG(C3H3O1)]\\@
 Normal termination of Gaussian 09 at Tue Oct 10 07:06:40 2017.
