 Gaussian 09, Revision E.01,
 Gaussian 09:  ES64L-G09RevE.01 30-Nov-2015

 -----------------------------------
 #p ccsd(t,maxcyc=200)/6-311++G(d,p)
 -----------------------------------

 -------------
 ccsd(t) iener
 -------------
 Symbolic Z-matrix:
 Charge =  1 Multiplicity = 1

                         Standard orientation:
 ---------------------------------------------------------------------
 Center     Atomic      Atomic             Coordinates (Angstroms)
 Number     Number       Type             X           Y           Z
 ---------------------------------------------------------------------
      1          6           0        0.000000    0.786641    0.000000
      2          6           0        0.681251   -0.393320   -0.000000
      3          6           0       -0.681251   -0.393320    0.000000
      4          1           0        0.000000    1.868789    0.000000
      5          1           0       -1.618419   -0.934394    0.000000
      6          1           0        1.618419   -0.934394   -0.000000
 ---------------------------------------------------------------------

 SCF Done:  E(RHF) =  -115.031690119     A.U. after    9 cycles
 E2 =    -0.3692112833D+00 EUMP2 =    -0.11540090140263D+03
 CCSD(T)
 CCSD(T)= -0.11544175760D+03

 The electronic state is 1-A1'.
 Alpha  occ. eigenvalues --  -11.56768 -11.56547 -11.56547  -1.51621  -1.06618
 Alpha  occ. eigenvalues --   -1.06618  -0.98322  -0.78488  -0.78488  -0.76454
 Alpha virt. eigenvalues --   -0.12664  -0.12664  -0.09521  -0.07986  -0.07986
 Alpha virt. eigenvalues --   -0.05158  -0.03135  -0.02840  -0.02840   0.01525
 Alpha virt. eigenvalues --    0.02251   0.02251   0.03096   0.04010   0.04010

 Mulliken charges:
               1
     1  C    0.027880
     2  C    0.027880
     3  C    0.027880
     4  H    0.305454
     5  H    0.305454
     6  H    0.305454
 Sum of Mulliken charges =   1.00000

 Dipole moment (field-independent basis, Debye):
    X=              0.0000    Y=             -0.0000    Z=              0.0000  Tot=              0.0000
 Quadrupole moment (field-independent basis, Debye-Ang):
   XX=             -9.6971   YY=             -9.6971   ZZ=            -15.8654
   XY=              0.0000   XZ=              0.0000   YZ=             -0.0000

 4DQ=-115.4211714\MP4SDQ=-115.4243404\CCSD=-115.4244496\CCSD(T)=-115.44
 Normal termination of Gaussian 09 at Tue Oct 10 07:19:53 2017.
