 Gaussian 09, Revision E.01,
 Gaussian 09:  ES64L-G09RevE.01 30-Nov-2015

 -----------------------------------
 #p ccsd(t,maxcyc=200)/6-311++G(d,p)
 -----------------------------------

 -------------
 ccsd(t) iener
 -------------
 Symbolic Z-matrix:
 Charge =  1 Multiplicity = 1

                         Standard orientation:
 ---------------------------------------------------------------------
 Center     Atomic      Atomic             Coordinates (Angstroms)
 Number     Number       Type             X           Y           Z
 ---------------------------------------------------------------------
      1          6           0       -0.006651    1.331381   -0.000000
      2          6           0       -0.000000    0.105176   -0.000000
      3          6           0        0.005702   -1.238995    0.000000
      4          1           0       -0.009759    2.405850   -0.000000
      5          1           0        0.945692   -1.791645    0.000000
      6          1           0       -0.930238   -1.799580   -0.000000
 ---------------------------------------------------------------------

 SCF Done:  E(RHF) =  -114.977311014     A.U. after   13 cycles
 E2 =    -0.3734529311D+00 EUMP2 =    -0.11535076394463D+03
 CCSD(T)
 CCSD(T)= -0.11539808944D+03

 The electronic state is 1-A'.
 Alpha  occ. eigenvalues --  -11.60019 -11.56272 -11.51092  -1.35590  -1.22949
 Alpha  occ. eigenvalues --   -1.00103  -0.94184  -0.90585  -0.69724  -0.66823
 Alpha virt. eigenvalues --   -0.25111  -0.10140  -0.08425  -0.07550  -0.05738
 Alpha virt. eigenvalues --   -0.05716  -0.04130  -0.01001   0.00165   0.00263
 Alpha virt. eigenvalues --    0.01818   0.02017   0.03978   0.05197   0.07040

 Mulliken charges:
               1
     1  C   -1.668603
     2  C    1.793893
     3  C    0.115361
     4  H    0.268065
     5  H    0.245562
     6  H    0.245721
 Sum of Mulliken charges =   1.00000

 Dipole moment (field-independent basis, Debye):
    X=              0.0043    Y=             -0.7282    Z=             -0.0000  Tot=              0.7282
 Quadrupole moment (field-independent basis, Debye-Ang):
   XX=            -15.5222   YY=              1.3589   ZZ=            -16.3796
   XY=             -0.0718   XZ=             -0.0000   YZ=             -0.0000

 3700368\MP4SDQ=-115.3769408\CCSD=-115.3773798\CCSD(T)=-115.3980894\RMS
 Normal termination of Gaussian 09 at Tue Oct 10 07:21:30 2017.
