 Gaussian 09, Revision E.01,
 Gaussian 09:  ES64L-G09RevE.01 30-Nov-2015

 -----------------------------------
 #p ccsd(t,maxcyc=200)/6-311++G(d,p)
 -----------------------------------

 -------------
 ccsd(t) iener
 -------------
 Symbolic Z-matrix:
 Charge =  1 Multiplicity = 1

                         Standard orientation:
 ---------------------------------------------------------------------
 Center     Atomic      Atomic             Coordinates (Angstroms)
 Number     Number       Type             X           Y           Z
 ---------------------------------------------------------------------
      1          6           0        0.000000    0.655777   -0.000000
      2          6           0       -0.727288   -0.520872   -0.000000
      3          6           0        1.130811   -0.077621    0.000000
      4          1           0       -1.821500   -0.513136   -0.000000
      5          1           0       -0.338714    1.685411   -0.000000
      6          1           0       -0.260925   -1.515976    0.000000
 ---------------------------------------------------------------------

 SCF Done:  E(RHF) =  -114.917548869     A.U. after   14 cycles
 E2 =    -0.3614694387D+00 EUMP2 =    -0.11527901830809D+03
 CCSD(T)
 CCSD(T)= -0.11533269829D+03

 The electronic state is 1-A'.
 Alpha  occ. eigenvalues --  -11.63591 -11.60431 -11.53594  -1.44781  -1.14978
 Alpha  occ. eigenvalues --   -1.03731  -0.90317  -0.85313  -0.74254  -0.72794
 Alpha virt. eigenvalues --   -0.21717  -0.17258  -0.09978  -0.09732  -0.08390
 Alpha virt. eigenvalues --   -0.06218  -0.04752  -0.02804  -0.02072  -0.01197
 Alpha virt. eigenvalues --    0.00699   0.01749   0.02754   0.03410   0.04432

 Mulliken charges:
               1
     1  C    0.071971
     2  C   -0.261366
     3  C    0.273741
     4  H    0.305932
     5  H    0.331093
     6  H    0.278628
 Sum of Mulliken charges =   1.00000

 Dipole moment (field-independent basis, Debye):
    X=             -2.0036    Y=              0.2154    Z=             -0.0000  Tot=              2.0151
 Quadrupole moment (field-independent basis, Debye-Ang):
   XX=            -12.1132   YY=            -10.4122   ZZ=            -16.8986
   XY=              2.4157   XZ=              0.0000   YZ=              0.0000

 922\MP4SDQ=-115.3119791\CCSD=-115.3131355\CCSD(T)=-115.3326983\RMSD=2.
 Normal termination of Gaussian 09 at Tue Oct 10 07:20:42 2017.
