 Gaussian 09, Revision E.01,
 Gaussian 09:  ES64L-G09RevE.01 30-Nov-2015

 -----------------------------------
 #p ccsd(t,maxcyc=200)/6-311++G(d,p)
 -----------------------------------

 -------------
 ccsd(t) iener
 -------------
 Symbolic Z-matrix:
 Charge =  1 Multiplicity = 1

                         Standard orientation:
 ---------------------------------------------------------------------
 Center     Atomic      Atomic             Coordinates (Angstroms)
 Number     Number       Type             X           Y           Z
 ---------------------------------------------------------------------
      1          6           0        0.681779   -0.594435   -0.000000
      2          6           0       -0.381576   -1.658244   -0.000000
      3          6           0        0.000000    0.701533    0.000000
      4          1           0        1.348186   -0.636573    0.882295
      5          1           0        1.348186   -0.636573   -0.882295
      6          1           0        0.183950   -2.606998   -0.000000
      7          8           0       -0.585192    1.648378    0.000000
 ---------------------------------------------------------------------

 SCF Done:  E(RHF) =  -189.834290366     A.U. after   13 cycles
 E2 =    -0.5623281829D+00 EUMP2 =    -0.19039661854912D+03
 CCSD(T)
 CCSD(T)= -0.19045215802D+03

 The electronic state is 1-A'.
 Alpha  occ. eigenvalues --  -20.96608 -11.70363 -11.55618 -11.52236  -1.81961
 Alpha  occ. eigenvalues --   -1.36751  -1.11525  -1.05039  -0.96558  -0.94707
 Alpha  occ. eigenvalues --   -0.91533  -0.85177  -0.80035  -0.61008
 Alpha virt. eigenvalues --   -0.16336  -0.13647  -0.13620  -0.11702  -0.07837
 Alpha virt. eigenvalues --   -0.06522  -0.05650  -0.03166  -0.02248  -0.01682
 Alpha virt. eigenvalues --    0.00052   0.00568   0.02119   0.03086   0.04027

 Mulliken charges:
               1
     1  C   -0.254570
     2  C    0.020989
     3  C    0.516429
     4  H    0.286706
     5  H    0.286706
     6  H    0.184023
     7  O   -0.040282
 Sum of Mulliken charges =   1.00000

 Dipole moment (field-independent basis, Debye):
    X=              3.8121    Y=             -1.0031    Z=             -0.0000  Tot=              3.9419
 Quadrupole moment (field-independent basis, Debye-Ang):
   XX=            -20.5765   YY=            -14.5922   ZZ=            -18.5279
   XY=             -3.7633   XZ=             -0.0000   YZ=              0.0000

 190.4285308\CCSD=-190.4273302\CCSD(T)=-190.452158\RMSD=7.284e-09\PG=CS
 Normal termination of Gaussian 09 at Tue Oct 10 07:02:12 2017.
