 Gaussian 09, Revision E.01,
 Gaussian 09:  ES64L-G09RevE.01 30-Nov-2015

 -----------------------------------
 #p ccsd(t,maxcyc=200)/6-311++G(d,p)
 -----------------------------------

 -------------
 ccsd(t) iener
 -------------
 Symbolic Z-matrix:
 Charge =  0 Multiplicity = 2

                         Standard orientation:
 ---------------------------------------------------------------------
 Center     Atomic      Atomic             Coordinates (Angstroms)
 Number     Number       Type             X           Y           Z
 ---------------------------------------------------------------------
      1          6           0        0.000000   -0.000000    0.115477
      2          6           0        0.000000   -0.000000    1.338491
      3          6           0       -0.000000    0.000000   -1.251847
      4          1           0        0.000000   -0.000000    2.400971
      5          1           0        0.000000    0.930169   -1.806846
      6          1           0       -0.000000   -0.930169   -1.806846
 ---------------------------------------------------------------------

 SCF Done:  E(UHF) =  -115.281827228     A.U. after   19 cycles
 E2 =    -0.3684727978D+00 EUMP2 =    -0.11565030002609D+03
 CCSD(T)
 CCSD(T)= -0.11570753308D+03

 The electronic state is 2-B1.
 Alpha  occ. eigenvalues --  -11.26239 -11.24625 -11.23176  -1.07203  -0.97799
 Alpha  occ. eigenvalues --   -0.73342  -0.65210  -0.61561  -0.49045  -0.40418
 Alpha  occ. eigenvalues --   -0.35685
 Alpha virt. eigenvalues --    0.04076   0.05387   0.06586   0.11127   0.11470
 Alpha virt. eigenvalues --    0.12520   0.14591   0.14834   0.16858   0.18090
 Alpha virt. eigenvalues --    0.18283   0.18575   0.21607   0.24731   0.25687

  Beta  occ. eigenvalues --  -11.25134 -11.24075 -11.22383  -1.06065  -0.90408
  Beta  occ. eigenvalues --   -0.71807  -0.64573  -0.61261  -0.42772  -0.39191
  Beta virt. eigenvalues --    0.04178   0.05492   0.06547   0.06570   0.10798
  Beta virt. eigenvalues --    0.11497   0.11779   0.14700   0.18134   0.18482
  Beta virt. eigenvalues --    0.18709   0.19072   0.19686   0.21822   0.24418

 Mulliken charges and spin densities:
               1          2
     1  C    1.834698  -1.084121
     2  C   -1.983351   1.034812
     3  C   -0.265424   1.342103
     4  H    0.147893  -0.085234
     5  H    0.133092  -0.103780
     6  H    0.133092  -0.103780
 Sum of Mulliken charges =  -0.00000   1.00000

 Dipole moment (field-independent basis, Debye):
    X=             -0.0000    Y=              0.0000    Z=             -0.1759  Tot=              0.1759
 Quadrupole moment (field-independent basis, Debye-Ang):
   XX=            -20.5361   YY=            -18.7488   ZZ=            -12.6601
   XY=             -0.0000   XZ=              0.0000   YZ=             -0.0000

 5\MP4SDQ=-115.6831007\CCSD=-115.6897662\CCSD(T)=-115.7075331\S2=0.9654
 Normal termination of Gaussian 09 at Tue Oct 10 07:18:03 2017.
