 Gaussian 09, Revision E.01,
 Gaussian 09:  ES64L-G09RevE.01 30-Nov-2015

 -----------------------------------
 #p ccsd(t,maxcyc=200)/6-311++G(d,p)
 -----------------------------------

 -------------
 ccsd(t) iener
 -------------
 Symbolic Z-matrix:
 Charge =  0 Multiplicity = 4

                         Standard orientation:
 ---------------------------------------------------------------------
 Center     Atomic      Atomic             Coordinates (Angstroms)
 Number     Number       Type             X           Y           Z
 ---------------------------------------------------------------------
      1          6           0       -0.599926    1.623382    0.000000
      2          1           0       -0.863017    2.131865    0.926164
      3          1           0       -0.863017    2.131865   -0.926164
      4          6           0       -0.000000    0.467677   -0.000000
      5          6           0        0.622987   -0.714901   -0.000000
      6          1           0        1.716650   -0.734199   -0.000000
      7          6           0       -0.021497   -1.964413    0.000000
 ---------------------------------------------------------------------

 SCF Done:  E(UHF) =  -153.038461513     A.U. after   21 cycles
 E2 =    -0.4376152327D+00 EUMP2 =    -0.15347607674564D+03
 CCSD(T)
 CCSD(T)= -0.15355201504D+03

 The electronic state is 4-A".
 Alpha  occ. eigenvalues --  -11.30010 -11.26543 -11.26371 -11.23828  -1.11926
 Alpha  occ. eigenvalues --   -1.01937  -0.87407  -0.71499  -0.65238  -0.62425
 Alpha  occ. eigenvalues --   -0.58756  -0.48799  -0.41705  -0.39314  -0.35082
 Alpha virt. eigenvalues --    0.04547   0.05746   0.06578   0.09255   0.10485
 Alpha virt. eigenvalues --    0.11777   0.13071   0.13323   0.14041   0.15058
 Alpha virt. eigenvalues --    0.17592   0.18330   0.18947   0.20692   0.21727

  Beta  occ. eigenvalues --  -11.27807 -11.24975 -11.23799 -11.22425  -1.07343
  Beta  occ. eigenvalues --   -0.99289  -0.74285  -0.65664  -0.62764  -0.59851
  Beta  occ. eigenvalues --   -0.42501  -0.39472
  Beta virt. eigenvalues --    0.02254   0.05008   0.05982   0.06564   0.09907
  Beta virt. eigenvalues --    0.10427   0.12006   0.12508   0.12850   0.13937
  Beta virt. eigenvalues --    0.14931   0.15107   0.17509   0.19627   0.20082

 Mulliken charges and spin densities:
               1          2
     1  C   -0.811793  -0.667893
     2  H    0.125257   0.086963
     3  H    0.125257   0.086963
     4  C    0.582560   1.293303
     5  C   -0.153130  -0.770413
     6  H    0.177255   0.128247
     7  C   -0.045405   2.842830
 Sum of Mulliken charges =  -0.00000   3.00000

 Dipole moment (field-independent basis, Debye):
    X=              0.2596    Y=              0.5370    Z=             -0.0000  Tot=              0.5964
 Quadrupole moment (field-independent basis, Debye-Ang):
   XX=            -23.6005   YY=            -22.5839   ZZ=            -24.6412
   XY=             -1.7224   XZ=              0.0000   YZ=             -0.0000

 CCSD(T)=-153.552015\S2=4.084602\S2-1=3.995549\S2A=3.785353\RMSD=7.440e
 Normal termination of Gaussian 09 at Tue Oct 10 09:58:26 2017.
