 Gaussian 09, Revision E.01,
 Gaussian 09:  ES64L-G09RevE.01 30-Nov-2015

 -----------------------------------
 #p ccsd(t,maxcyc=200)/6-311++G(d,p)
 -----------------------------------

 -------------
 ccsd(t) iener
 -------------
 Symbolic Z-matrix:
 Charge =  0 Multiplicity = 4

                         Standard orientation:
 ---------------------------------------------------------------------
 Center     Atomic      Atomic             Coordinates (Angstroms)
 Number     Number       Type             X           Y           Z
 ---------------------------------------------------------------------
      1          6           0        1.447857    0.890727    0.000000
      2          1           0        1.984300    1.031359    0.932580
      3          1           0        1.984300    1.031359   -0.932580
      4          6           0        0.000000    0.646667    0.000000
      5          1           0       -0.676531    1.506625    0.000000
      6          6           0       -0.574277   -0.581357   -0.000000
      7          6           0       -1.422258   -1.550927   -0.000000
 ---------------------------------------------------------------------

 SCF Done:  E(UHF) =  -153.016083579     A.U. after   23 cycles
 E2 =    -0.4451819893D+00 EUMP2 =    -0.15346126556819D+03
 CCSD(T)
 CCSD(T)= -0.15354473676D+03

 The electronic state is 4-A".
 Alpha  occ. eigenvalues --  -11.29246 -11.28676 -11.28386 -11.27227  -1.14704
 Alpha  occ. eigenvalues --   -1.04974  -0.91172  -0.71507  -0.64075  -0.63932
 Alpha  occ. eigenvalues --   -0.50713  -0.50353  -0.44169  -0.40179  -0.34985
 Alpha virt. eigenvalues --    0.03735   0.05282   0.06155   0.09484   0.11265
 Alpha virt. eigenvalues --    0.12276   0.12339   0.12960   0.13491   0.15038
 Alpha virt. eigenvalues --    0.15532   0.17201   0.18919   0.19437   0.20711

  Beta  occ. eigenvalues --  -11.28933 -11.27158 -11.26177 -11.24905  -1.06893
  Beta  occ. eigenvalues --   -0.94537  -0.82975  -0.66369  -0.59961  -0.59152
  Beta  occ. eigenvalues --   -0.43776  -0.43044
  Beta virt. eigenvalues --   -0.00899   0.04152   0.05570   0.06226   0.06560
  Beta virt. eigenvalues --    0.06677   0.11243   0.12201   0.12650   0.13991
  Beta virt. eigenvalues --    0.15277   0.15687   0.16461   0.17679   0.19486

 Mulliken charges and spin densities:
               1          2
     1  C   -0.332326   1.261178
     2  H    0.141339  -0.068321
     3  H    0.141339  -0.068321
     4  C   -0.548704   0.711960
     5  H    0.209055   0.010101
     6  C    0.624461  -0.073704
     7  C   -0.235163   1.227108
 Sum of Mulliken charges =  -0.00000   3.00000

 Dipole moment (field-independent basis, Debye):
    X=              2.3399    Y=              2.5500    Z=             -0.0000  Tot=              3.4608
 Quadrupole moment (field-independent basis, Debye-Ang):
   XX=            -27.2728   YY=            -26.6274   ZZ=            -25.0469
   XY=             -4.1606   XZ=             -0.0000   YZ=             -0.0000

 -153.5077661\MP4SDQ=-153.5111185\CCSD=-153.521428\CCSD(T)=-153.5447368
 Normal termination of Gaussian 09 at Tue Oct 10 09:50:46 2017.
