 Gaussian 09, Revision E.01,
 Gaussian 09:  ES64L-G09RevE.01 30-Nov-2015

 -----------------------------------
 #p ccsd(t,maxcyc=200)/6-311++G(d,p)
 -----------------------------------

 -------------
 ccsd(t) iener
 -------------
 Symbolic Z-matrix:
 Charge =  0 Multiplicity = 4

                         Standard orientation:
 ---------------------------------------------------------------------
 Center     Atomic      Atomic             Coordinates (Angstroms)
 Number     Number       Type             X           Y           Z
 ---------------------------------------------------------------------
      1          6           0        0.000000    0.000000    1.067384
      2          6           0       -0.000000   -1.041861    0.078595
      3          6           0        0.000000    0.000000   -0.916429
      4          1           0       -0.000000   -0.000000   -1.999419
      5          6           0        0.000000    1.041861    0.078595
      6          1           0        0.000000    2.119193    0.075272
      7          1           0       -0.000000   -2.119193    0.075272
 ---------------------------------------------------------------------

 SCF Done:  E(UHF) =  -153.041506286     A.U. after   17 cycles
 E2 =    -0.4970794498D+00 EUMP2 =    -0.15353858573543D+03
 CCSD(T)
 CCSD(T)= -0.15359572135D+03

 The electronic state is 4-B2.
 Alpha  occ. eigenvalues --  -11.28195 -11.26460 -11.26406 -11.26323  -1.21683
 Alpha  occ. eigenvalues --   -0.91726  -0.89155  -0.72839  -0.66757  -0.58251
 Alpha  occ. eigenvalues --   -0.57157  -0.54749  -0.43304  -0.30456  -0.30380
 Alpha virt. eigenvalues --    0.04254   0.04917   0.05548   0.10194   0.11876
 Alpha virt. eigenvalues --    0.13312   0.13469   0.15295   0.15607   0.15732
 Alpha virt. eigenvalues --    0.15903   0.16467   0.18898   0.19036   0.19181

  Beta  occ. eigenvalues --  -11.25460 -11.25113 -11.25107 -11.24266  -1.14595
  Beta  occ. eigenvalues --   -0.85552  -0.80332  -0.70412  -0.57063  -0.53435
  Beta  occ. eigenvalues --   -0.52902  -0.38992
  Beta virt. eigenvalues --    0.04218   0.04866   0.05006   0.06652   0.07618
  Beta virt. eigenvalues --    0.08630   0.12798   0.13248   0.13630   0.15968
  Beta virt. eigenvalues --    0.16352   0.17294   0.17402   0.18732   0.19116

 Mulliken charges and spin densities:
               1          2
     1  C    0.208401   1.255985
     2  C   -0.401564   0.759393
     3  C    0.039532   0.293515
     4  H    0.200325   0.011332
     5  C   -0.401564   0.759393
     6  H    0.177435  -0.039809
     7  H    0.177435  -0.039809
 Sum of Mulliken charges =  -0.00000   3.00000

 Dipole moment (field-independent basis, Debye):
    X=             -0.0000    Y=             -0.0000    Z=             -0.9048  Tot=              0.9048
 Quadrupole moment (field-independent basis, Debye-Ang):
   XX=            -26.9970   YY=            -19.9422   ZZ=            -23.6845
   XY=              0.0000   XZ=             -0.0000   YZ=              0.0000

 -153.5648054\MP4SDQ=-153.5684447\CCSD=-153.5699511\CCSD(T)=-153.595721
 Normal termination of Gaussian 09 at Tue Oct 10 09:45:38 2017.
