 Gaussian 09, Revision E.01,
 Gaussian 09:  ES64L-G09RevE.01 30-Nov-2015

 -----------------------------------
 #p ccsd(t,maxcyc=200)/6-311++G(d,p)
 -----------------------------------

 -------------
 ccsd(t) iener
 -------------
 Symbolic Z-matrix:
 Charge =  0 Multiplicity = 2

                         Standard orientation:
 ---------------------------------------------------------------------
 Center     Atomic      Atomic             Coordinates (Angstroms)
 Number     Number       Type             X           Y           Z
 ---------------------------------------------------------------------
      1          6           0       -0.821574   -1.008316    0.000000
      2          6           0       -0.000000    1.100610    0.000000
      3          8           0       -1.126334    0.355761    0.000000
      4          6           0        1.133046    0.289651    0.000000
      5          6           0        0.646275   -1.005845    0.000000
      6          1           0       -0.117276    2.175288    0.000000
      7          1           0        2.154436    0.639038    0.000000
      8          1           0        1.227031   -1.917011    0.000000
 ---------------------------------------------------------------------

 SCF Done:  E(UHF) =  -228.005664667     A.U. after   23 cycles
 E2 =    -0.6932624509D+00 EUMP2 =    -0.22869892711813D+03
 CCSD(T)
 CCSD(T)= -0.22877272972D+03

 The electronic state is 2-A".
 Alpha  occ. eigenvalues --  -20.62942 -11.33440 -11.30396 -11.27234 -11.25901
 Alpha  occ. eigenvalues --   -1.46820  -1.11460  -1.02341  -0.81937  -0.79658
 Alpha  occ. eigenvalues --   -0.73519  -0.65396  -0.61161  -0.58819  -0.55452
 Alpha  occ. eigenvalues --   -0.43886  -0.38443  -0.36941
 Alpha virt. eigenvalues --    0.03356   0.04643   0.05837   0.09211   0.10915
 Alpha virt. eigenvalues --    0.11219   0.12343   0.13907   0.14182   0.14992
 Alpha virt. eigenvalues --    0.15876   0.16285   0.17625   0.17860   0.18357

  Beta  occ. eigenvalues --  -20.63217 -11.31763 -11.30033 -11.26952 -11.25976
  Beta  occ. eigenvalues --   -1.46401  -1.10564  -0.97441  -0.80865  -0.78467
  Beta  occ. eigenvalues --   -0.72517  -0.61366  -0.61069  -0.58041  -0.55388
  Beta  occ. eigenvalues --   -0.42165  -0.37535
  Beta virt. eigenvalues --    0.01300   0.03373   0.04687   0.05865   0.10051
  Beta virt. eigenvalues --    0.11326   0.12422   0.12978   0.14187   0.15865
  Beta virt. eigenvalues --    0.15992   0.16340   0.16923   0.17652   0.18493

 Mulliken charges and spin densities:
               1          2
     1  C   -0.162620   0.233333
     2  C   -0.157761   0.819291
     3  O   -0.116189  -0.105078
     4  C   -0.059635  -0.580527
     5  C   -0.137550   0.722162
     6  H    0.209552  -0.076222
     7  H    0.216036   0.037816
     8  H    0.208167  -0.050775
 Sum of Mulliken charges =  -0.00000   1.00000

 Dipole moment (field-independent basis, Debye):
    X=              3.6629    Y=              2.1390    Z=              0.0000  Tot=              4.2418
 Quadrupole moment (field-independent basis, Debye-Ang):
   XX=            -31.7015   YY=            -27.2392   ZZ=            -30.2909
   XY=             -3.3023   XZ=              0.0000   YZ=              0.0000

 9775\CCSD(T)=-228.7727297\S2=0.883698\S2-1=0.83538\S2A=0.754167\RMSD=3
 Normal termination of Gaussian 09 at Tue Oct 10 07:47:48 2017.
