 Gaussian 09, Revision E.01,
 Gaussian 09:  ES64L-G09RevE.01 30-Nov-2015

 -----------------------------------
 #p ccsd(t,maxcyc=200)/6-311++G(d,p)
 -----------------------------------

 -------------
 ccsd(t) iener
 -------------
 Symbolic Z-matrix:
 Charge =  0 Multiplicity = 2

                         Standard orientation:
 ---------------------------------------------------------------------
 Center     Atomic      Atomic             Coordinates (Angstroms)
 Number     Number       Type             X           Y           Z
 ---------------------------------------------------------------------
      1          6           0       -0.368706    1.830981   -0.000000
      2          1           0       -0.707976    2.837911   -0.000000
      3          6           0       -0.000000    0.684285   -0.000000
      4          6           0        0.490357   -0.652467    0.000000
      5          1           0        1.581091   -0.760834    0.000000
      6          6           0       -0.252975   -1.741054    0.000000
      7          1           0       -0.085176   -2.807547    0.000000
 ---------------------------------------------------------------------

 SCF Done:  E(UHF) =  -153.106239626     A.U. after   25 cycles
 E2 =    -0.4802345954D+00 EUMP2 =    -0.15358647422148D+03
 CCSD(T)
 CCSD(T)= -0.15366268865D+03

 The electronic state is 2-A'.
 Alpha  occ. eigenvalues --  -11.27476 -11.25935 -11.25034 -11.22571  -1.10431
 Alpha  occ. eigenvalues --   -1.01647  -0.84283  -0.71818  -0.66875  -0.65216
 Alpha  occ. eigenvalues --   -0.47876  -0.43053  -0.40161  -0.37927
 Alpha virt. eigenvalues --    0.04046   0.04707   0.06169   0.08932   0.11115
 Alpha virt. eigenvalues --    0.11995   0.12106   0.13463   0.14029   0.14727
 Alpha virt. eigenvalues --    0.17397   0.18146   0.18410   0.19262   0.19924

  Beta  occ. eigenvalues --  -11.27534 -11.24101 -11.23548 -11.23405  -1.08746
  Beta  occ. eigenvalues --   -1.00660  -0.79614  -0.71502  -0.64194  -0.62607
  Beta  occ. eigenvalues --   -0.48495  -0.40526  -0.36678
  Beta virt. eigenvalues --    0.03977   0.04726   0.06229   0.07486   0.09563
  Beta virt. eigenvalues --    0.11889   0.12651   0.13487   0.14528   0.14971
  Beta virt. eigenvalues --    0.16746   0.17421   0.18176   0.18595   0.19629

 Mulliken charges and spin densities:
               1          2
     1  C   -2.005796  -0.829486
     2  H    0.148544   0.055457
     3  C    1.842492   0.723145
     4  C   -0.023309  -0.775562
     5  H    0.182562   0.133915
     6  C   -0.327769   1.753408
     7  H    0.183276  -0.060877
 Sum of Mulliken charges =   0.00000   1.00000

 Dipole moment (field-independent basis, Debye):
    X=              0.6347    Y=             -0.5014    Z=              0.0000  Tot=              0.8088
 Quadrupole moment (field-independent basis, Debye-Ang):
   XX=            -23.8150   YY=            -16.3716   ZZ=            -26.4782
   XY=             -2.5299   XZ=             -0.0000   YZ=              0.0000

 324665\MP4SDQ=-153.6243013\CCSD=-153.6370762\CCSD(T)=-153.6626886\S2=1
 Normal termination of Gaussian 09 at Tue Oct 10 09:35:24 2017.
