 Gaussian 09, Revision E.01,
 Gaussian 09:  ES64L-G09RevE.01 30-Nov-2015

 -----------------------------------
 #p ccsd(t,maxcyc=200)/6-311++G(d,p)
 -----------------------------------

 -------------
 ccsd(t) iener
 -------------
 Symbolic Z-matrix:
 Charge =  1 Multiplicity = 3

                         Standard orientation:
 ---------------------------------------------------------------------
 Center     Atomic      Atomic             Coordinates (Angstroms)
 Number     Number       Type             X           Y           Z
 ---------------------------------------------------------------------
      1          6           0        1.044304   -0.007324    0.102638
      2          6           0       -0.074110   -0.905111   -0.280296
      3          6           0       -1.168932   -0.212078    0.199210
      4          1           0        1.440556   -0.138260    1.106758
      5          1           0        1.792916    0.220121   -0.660139
      6          6           0       -0.274907    0.814979   -0.009824
      7          1           0       -0.391601    1.775345   -0.516984
 ---------------------------------------------------------------------

 SCF Done:  E(UHF) =  -152.744717567     A.U. after   26 cycles
 E2 =    -0.4711444349D+00 EUMP2 =    -0.15321586200156D+03
 CCSD(T)
 CCSD(T)= -0.15327686183D+03

 The electronic state is 3-A.
 Alpha  occ. eigenvalues --  -11.61232 -11.58550 -11.58229 -11.52705  -1.53080
 Alpha  occ. eigenvalues --   -1.21242  -1.12539  -0.95871  -0.93784  -0.85684
 Alpha  occ. eigenvalues --   -0.82860  -0.76095  -0.69822  -0.67793
 Alpha virt. eigenvalues --   -0.15146  -0.13387  -0.09183  -0.07475  -0.06695
 Alpha virt. eigenvalues --   -0.05902  -0.02713  -0.01993  -0.01665  -0.01009
 Alpha virt. eigenvalues --   -0.00187   0.02404   0.02784   0.04257   0.04565

  Beta  occ. eigenvalues --  -11.58279 -11.57911 -11.55476 -11.52397  -1.48540
  Beta  occ. eigenvalues --   -1.17655  -1.07633  -0.89960  -0.85773  -0.83354
  Beta  occ. eigenvalues --   -0.78149  -0.67794
  Beta virt. eigenvalues --   -0.21274  -0.18529  -0.11579  -0.09997  -0.08029
  Beta virt. eigenvalues --   -0.06554  -0.05569  -0.04302  -0.01983  -0.01479
  Beta virt. eigenvalues --   -0.01104  -0.00202   0.00848   0.02809   0.03201

 Mulliken charges and spin densities:
               1          2
     1  C   -0.604944   0.083474
     2  C    0.520038   0.926737
     3  C    0.118502   0.780029
     4  H    0.251626  -0.014398
     5  H    0.237971   0.039578
     6  C    0.175667   0.149940
     7  H    0.301141   0.034640
 Sum of Mulliken charges =   1.00000   2.00000

 Dipole moment (field-independent basis, Debye):
    X=              0.5151    Y=              1.0427    Z=             -0.4605  Tot=              1.2508
 Quadrupole moment (field-independent basis, Debye-Ang):
   XX=            -15.9194   YY=            -16.7501   ZZ=            -19.9455
   XY=             -0.4115   XZ=              0.4219   YZ=             -1.0356

 605\CCSD=-153.250803\CCSD(T)=-153.2768618\S2=2.017928\S2-1=2.005158\S2
 Normal termination of Gaussian 09 at Tue Oct 10 10:23:17 2017.
