 Gaussian 09, Revision E.01,
 Gaussian 09:  ES64L-G09RevE.01 30-Nov-2015

 -----------------------------------
 #p ccsd(t,maxcyc=200)/6-311++G(d,p)
 -----------------------------------

 -------------
 ccsd(t) iener
 -------------
 Symbolic Z-matrix:
 Charge =  1 Multiplicity = 3

                         Standard orientation:
 ---------------------------------------------------------------------
 Center     Atomic      Atomic             Coordinates (Angstroms)
 Number     Number       Type             X           Y           Z
 ---------------------------------------------------------------------
      1          6           0       -0.091714    1.740734   -0.000000
      2          1           0       -1.178610    1.969038   -0.000000
      3          1           0        0.325350    2.187669    0.911645
      4          1           0        0.325350    2.187669   -0.911645
      5          6           0        0.000000    0.333735   -0.000000
      6          6           0        0.057018   -0.935245    0.000000
      7          6           0        0.122682   -2.196620    0.000000
 ---------------------------------------------------------------------

 SCF Done:  E(UHF) =  -152.754537059     A.U. after   22 cycles
 E2 =    -0.4244356740D+00 EUMP2 =    -0.15317897273318D+03
 CCSD(T)
 CCSD(T)= -0.15325948471D+03

 The electronic state is 3-A".
 Alpha  occ. eigenvalues --  -11.60316 -11.59776 -11.51990 -11.47751  -1.37540
 Alpha  occ. eigenvalues --   -1.30515  -1.17589  -0.90814  -0.87832  -0.85901
 Alpha  occ. eigenvalues --   -0.80380  -0.77061  -0.72491  -0.63002
 Alpha virt. eigenvalues --   -0.24734  -0.09543  -0.05620  -0.05563  -0.05363
 Alpha virt. eigenvalues --   -0.03114  -0.02336  -0.02269   0.00289   0.00648
 Alpha virt. eigenvalues --    0.00761   0.01253   0.03296   0.04060   0.04406

  Beta  occ. eigenvalues --  -11.58266 -11.53699 -11.53113 -11.47932  -1.36695
  Beta  occ. eigenvalues --   -1.25664  -1.11243  -0.88757  -0.82782  -0.81792
  Beta  occ. eigenvalues --   -0.70680  -0.70095
  Beta virt. eigenvalues --   -0.19500  -0.17891  -0.14765  -0.09400  -0.05515
  Beta virt. eigenvalues --   -0.05367  -0.04334  -0.02755  -0.02496  -0.01399
  Beta virt. eigenvalues --    0.00785   0.00990   0.01465   0.03512   0.04138

 Mulliken charges and spin densities:
               1          2
     1  C   -0.570137  -0.061801
     2  H    0.247187  -0.027756
     3  H    0.237121   0.033647
     4  H    0.237121   0.033647
     5  C    0.441073   0.603533
     6  C    0.494220  -0.841542
     7  C   -0.086585   2.260270
 Sum of Mulliken charges =   1.00000   2.00000

 Dipole moment (field-independent basis, Debye):
    X=             -0.1754    Y=              0.0495    Z=             -0.0000  Tot=              0.1822
 Quadrupole moment (field-independent basis, Debye-Ang):
   XX=            -19.9281   YY=             -3.0539   ZZ=            -21.3345
   XY=             -1.3057   XZ=             -0.0000   YZ=             -0.0000

 -153.2359602\CCSD(T)=-153.2594847\S2=2.560215\S2-1=2.455501\S2A=2.1149
 Normal termination of Gaussian 09 at Tue Oct 10 10:29:48 2017.
