 Gaussian 09, Revision E.01,
 Gaussian 09:  ES64L-G09RevE.01 30-Nov-2015

 -----------------------------------
 #p ccsd(t,maxcyc=200)/6-311++G(d,p)
 -----------------------------------

 -------------
 ccsd(t) iener
 -------------
 Symbolic Z-matrix:
 Charge =  1 Multiplicity = 3

                         Standard orientation:
 ---------------------------------------------------------------------
 Center     Atomic      Atomic             Coordinates (Angstroms)
 Number     Number       Type             X           Y           Z
 ---------------------------------------------------------------------
      1          6           0        0.756958    0.465368   -0.006152
      2          1           0        1.064164    1.159377   -0.807345
      3          1           0        1.120377    0.887021    0.964296
      4          6           0        1.766504   -0.672948   -0.021435
      5          6           0       -0.616379    0.125709    0.006100
      6          6           0       -1.798044   -0.185518   -0.003700
      7          1           0       -2.838779   -0.442066   -0.005828
 ---------------------------------------------------------------------

 SCF Done:  E(UHF) =  -152.684433263     A.U. after   46 cycles
 E2 =    -0.4562268105D+00 EUMP2 =    -0.15314066007298D+03
 CCSD(T)
 CCSD(T)= -0.15321419599D+03

 The electronic state is 3-A.
 Alpha  occ. eigenvalues --  -11.69085 -11.56476 -11.47018 -11.44960  -1.37889
 Alpha  occ. eigenvalues --   -1.23987  -1.10337  -0.95969  -0.89647  -0.87504
 Alpha  occ. eigenvalues --   -0.84578  -0.73217  -0.62015  -0.60839
 Alpha virt. eigenvalues --   -0.24129  -0.10090  -0.07058  -0.06459  -0.05815
 Alpha virt. eigenvalues --   -0.03925  -0.03261  -0.02992  -0.01111  -0.01089
 Alpha virt. eigenvalues --    0.00198   0.00759   0.01420   0.03623   0.05066

  Beta  occ. eigenvalues --  -11.64118 -11.55980 -11.46009 -11.45521  -1.33527
  Beta  occ. eigenvalues --   -1.19809  -0.99056  -0.90882  -0.87473  -0.86999
  Beta  occ. eigenvalues --   -0.60210  -0.59810
  Beta virt. eigenvalues --   -0.28390  -0.18852  -0.14675  -0.09342  -0.06969
  Beta virt. eigenvalues --   -0.05952  -0.04737  -0.03046  -0.02888  -0.02020
  Beta virt. eigenvalues --   -0.00479   0.00461   0.00801   0.01476   0.02218

 Mulliken charges and spin densities:
               1          2
     1  C   -0.012122   0.017859
     2  H    0.276422   0.017379
     3  H    0.254162  -0.009409
     4  C    0.555315   1.687497
     5  C    1.460462  -0.396204
     6  C   -1.773436   0.726318
     7  H    0.239196  -0.043441
 Sum of Mulliken charges =   1.00000   2.00000

 Dipole moment (field-independent basis, Debye):
    X=              3.3217    Y=             -0.4035    Z=              0.0989  Tot=              3.3476
 Quadrupole moment (field-independent basis, Debye-Ang):
   XX=             -3.0996   YY=            -19.3476   ZZ=            -20.6690
   XY=              0.5401   XZ=              0.3939   YZ=              0.2618

 98612\CCSD=-153.1878433\CCSD(T)=-153.214196\S2=2.128299\S2-1=2.088109\
 Normal termination of Gaussian 09 at Tue Oct 10 10:46:51 2017.
