 Gaussian 09, Revision E.01,
 Gaussian 09:  ES64L-G09RevE.01 30-Nov-2015

 -----------------------------------
 #p ccsd(t,maxcyc=200)/6-311++G(d,p)
 -----------------------------------

 -------------
 ccsd(t) iener
 -------------
 Symbolic Z-matrix:
 Charge =  0 Multiplicity = 4

                         Standard orientation:
 ---------------------------------------------------------------------
 Center     Atomic      Atomic             Coordinates (Angstroms)
 Number     Number       Type             X           Y           Z
 ---------------------------------------------------------------------
      1          6           0        1.819288   -0.232366    0.008008
      2          1           0        2.832992   -0.550643   -0.016678
      3          6           0        0.646544    0.144368    0.009851
      4          6           0       -0.653514    0.536614   -0.013454
      5          1           0       -0.896183    1.576891    0.197990
      6          6           0       -1.758444   -0.448256   -0.140206
      7          1           0       -2.260057   -1.028406    0.633489
 ---------------------------------------------------------------------

 SCF Done:  E(UHF) =  -153.046051770     A.U. after   24 cycles
 E2 =    -0.4483082396D+00 EUMP2 =    -0.15349436000924D+03
 CCSD(T)
 CCSD(T)= -0.15356738303D+03

 The electronic state is 4-A.
 Alpha  occ. eigenvalues --  -11.27870 -11.27571 -11.25458 -11.23877  -1.10838
 Alpha  occ. eigenvalues --   -1.02277  -0.88637  -0.73479  -0.66981  -0.62403
 Alpha  occ. eigenvalues --   -0.54320  -0.45412  -0.41265  -0.39884  -0.32873
 Alpha virt. eigenvalues --    0.03959   0.05138   0.06101   0.10835   0.11269
 Alpha virt. eigenvalues --    0.12232   0.12855   0.14328   0.15305   0.15761
 Alpha virt. eigenvalues --    0.16522   0.17855   0.18016   0.19437   0.20237

  Beta  occ. eigenvalues --  -11.25734 -11.25588 -11.23139 -11.23081  -1.07110
  Beta  occ. eigenvalues --   -0.93020  -0.76757  -0.70730  -0.64291  -0.58867
  Beta  occ. eigenvalues --   -0.43034  -0.39450
  Beta virt. eigenvalues --    0.02770   0.04146   0.05315   0.06286   0.08898
  Beta virt. eigenvalues --    0.09412   0.11139   0.12652   0.13644   0.14905
  Beta virt. eigenvalues --    0.16139   0.17814   0.18111   0.19231   0.19305

 Mulliken charges and spin densities:
               1          2
     1  C   -2.140913   1.152273
     2  H    0.159628  -0.087256
     3  C    1.705191  -1.018979
     4  C    0.181883   1.013567
     5  H    0.183024  -0.056144
     6  C   -0.198201   2.069516
     7  H    0.109388  -0.072976
 Sum of Mulliken charges =  -0.00000   3.00000

 Dipole moment (field-independent basis, Debye):
    X=              0.2748    Y=              0.1064    Z=              0.6292  Tot=              0.6948
 Quadrupole moment (field-independent basis, Debye-Ang):
   XX=            -19.6407   YY=            -23.8329   ZZ=            -25.7079
   XY=             -1.6058   XZ=             -1.5372   YZ=             -0.4071

 27\CCSD=-153.5455154\CCSD(T)=-153.567383\S2=3.972464\S2-1=3.896409\S2A
 Normal termination of Gaussian 09 at Tue Oct 10 09:54:04 2017.
