 Gaussian 09, Revision E.01,
 Gaussian 09:  ES64L-G09RevE.01 30-Nov-2015

 -----------------------------------
 #p ccsd(t,maxcyc=200)/6-311++G(d,p)
 -----------------------------------

 -------------
 ccsd(t) iener
 -------------
 Symbolic Z-matrix:
 Charge =  1 Multiplicity = 3

                         Standard orientation:
 ---------------------------------------------------------------------
 Center     Atomic      Atomic             Coordinates (Angstroms)
 Number     Number       Type             X           Y           Z
 ---------------------------------------------------------------------
      1          6           0        1.387449    0.782494    0.000000
      2          1           0        1.992196   -0.118940    0.000000
      3          1           0        1.892403    1.743618    0.000000
      4          6           0        0.000000    0.720742    0.000000
      5          1           0       -0.597989    1.629724    0.000000
      6          6           0       -0.658015   -0.489380    0.000000
      7          6           0       -1.277202   -1.556256    0.000000
 ---------------------------------------------------------------------

 SCF Done:  E(UHF) =  -152.780877108     A.U. after   22 cycles
 E2 =    -0.4291015759D+00 EUMP2 =    -0.15320997868382D+03
 CCSD(T)
 CCSD(T)= -0.15328719048D+03

 The electronic state is 3-A".
 Alpha  occ. eigenvalues --  -11.57075 -11.54789 -11.54556 -11.51224  -1.37130
 Alpha  occ. eigenvalues --   -1.30789  -1.12028  -0.95617  -0.88879  -0.85934
 Alpha  occ. eigenvalues --   -0.80350  -0.75103  -0.69659  -0.65969
 Alpha virt. eigenvalues --   -0.18166  -0.09756  -0.07103  -0.06545  -0.05068
 Alpha virt. eigenvalues --   -0.03985  -0.02879  -0.01855  -0.01766  -0.00727
 Alpha virt. eigenvalues --    0.00595   0.01259   0.03110   0.03962   0.04311

  Beta  occ. eigenvalues --  -11.54218 -11.53835 -11.52663 -11.50496  -1.35868
  Beta  occ. eigenvalues --   -1.22034  -1.08783  -0.94921  -0.88505  -0.80834
  Beta  occ. eigenvalues --   -0.68077  -0.65332
  Beta virt. eigenvalues --   -0.24863  -0.18205  -0.09203  -0.09058  -0.07212
  Beta virt. eigenvalues --   -0.05726  -0.02927  -0.02888  -0.00966  -0.00824
  Beta virt. eigenvalues --   -0.00484  -0.00077   0.01760   0.02933   0.04318

 Mulliken charges and spin densities:
               1          2
     1  C   -0.331368   0.561553
     2  H    0.243493  -0.035906
     3  H    0.267247  -0.044173
     4  C    0.105337   0.311239
     5  H    0.299408  -0.025767
     6  C    0.412266  -0.765741
     7  C    0.003617   1.998796
 Sum of Mulliken charges =   1.00000   2.00000

 Dipole moment (field-independent basis, Debye):
    X=              1.3014    Y=              0.8942    Z=              0.0000  Tot=              1.5790
 Quadrupole moment (field-independent basis, Debye-Ang):
   XX=            -11.6217   YY=            -11.6672   ZZ=            -22.0093
   XY=              6.1541   XZ=              0.0000   YZ=              0.0000

 -153.2574473\MP4SDQ=-153.2531561\CCSD=-153.26479\CCSD(T)=-153.2871905\
 Normal termination of Gaussian 09 at Tue Oct 10 10:34:02 2017.
