 Gaussian 09, Revision E.01,
 Gaussian 09:  ES64L-G09RevE.01 30-Nov-2015

 -----------------------------------
 #p ccsd(t,maxcyc=200)/6-311++G(d,p)
 -----------------------------------

 -------------
 ccsd(t) iener
 -------------
 Symbolic Z-matrix:
 Charge =  1 Multiplicity = 1

                         Standard orientation:
 ---------------------------------------------------------------------
 Center     Atomic      Atomic             Coordinates (Angstroms)
 Number     Number       Type             X           Y           Z
 ---------------------------------------------------------------------
      1          6           0        0.000000    0.000000   -1.168851
      2          1           0       -0.920633    0.000000   -1.750919
      3          1           0        0.920633   -0.000000   -1.750919
      4          6           0        0.000000    0.783215    0.089454
      5          6           0        0.000000   -0.000000    1.194522
      6          1           0        0.000000   -0.000000    2.274354
      7          6           0       -0.000000   -0.783215    0.089454
 ---------------------------------------------------------------------

 SCF Done:  E(RHF) =  -152.804254055     A.U. after   13 cycles
 E2 =    -0.5236656107D+00 EUMP2 =    -0.15332791966554D+03
 CCSD(T)
 CCSD(T)= -0.15337636758D+03

 The electronic state is 1-A1.
 Alpha  occ. eigenvalues --  -11.59681 -11.59604 -11.57478 -11.56939  -1.56841
 Alpha  occ. eigenvalues --   -1.26045  -1.02416  -1.01427  -0.91036  -0.89435
 Alpha  occ. eigenvalues --   -0.81591  -0.71920  -0.66678
 Alpha virt. eigenvalues --   -0.15987  -0.13760  -0.10510  -0.09493  -0.07561
 Alpha virt. eigenvalues --   -0.06567  -0.05928  -0.03734  -0.02099  -0.01689
 Alpha virt. eigenvalues --   -0.01029   0.01774   0.02427   0.03304   0.03946

 Mulliken charges:
               1
     1  C   -0.726305
     2  H    0.263995
     3  H    0.263995
     4  C    0.647859
     5  C   -0.398081
     6  H    0.300679
     7  C    0.647859
 Sum of Mulliken charges =   1.00000

 Dipole moment (field-independent basis, Debye):
    X=             -0.0000    Y=             -0.0000    Z=             -0.0887  Tot=              0.0887
 Quadrupole moment (field-independent basis, Debye-Ang):
   XX=            -19.6330   YY=            -23.0742   ZZ=             -8.6148
   XY=             -0.0000   XZ=              0.0000   YZ=              0.0000

 5264\MP4SDQ=-153.3465293\CCSD=-153.3460311\CCSD(T)=-153.3763676\RMSD=4
 Normal termination of Gaussian 09 at Tue Oct 10 10:07:21 2017.
