 Gaussian 09, Revision E.01,
 Gaussian 09:  ES64L-G09RevE.01 30-Nov-2015

 -----------------------------------
 #p ccsd(t,maxcyc=200)/6-311++G(d,p)
 -----------------------------------

 -------------
 ccsd(t) iener
 -------------
 Symbolic Z-matrix:
 Charge =  0 Multiplicity = 4

                         Standard orientation:
 ---------------------------------------------------------------------
 Center     Atomic      Atomic             Coordinates (Angstroms)
 Number     Number       Type             X           Y           Z
 ---------------------------------------------------------------------
      1          6           0       -1.151805    1.315944    0.000000
      2          1           0       -1.455838    2.353367    0.000000
      3          6           0        0.000000    0.611711    0.000000
      4          1           0        0.955010    1.146735    0.000000
      5          6           0        0.066742   -0.803764    0.000000
      6          1           0       -0.886686   -1.344737    0.000000
      7          6           0        1.316316   -1.483119    0.000000
 ---------------------------------------------------------------------

 SCF Done:  E(UHF) =  -153.015769440     A.U. after   19 cycles
 E2 =    -0.4314130936D+00 EUMP2 =    -0.15344718253371D+03
 CCSD(T)
 CCSD(T)= -0.15352538502D+03

 The electronic state is 4-A".
 Alpha  occ. eigenvalues --  -11.29986 -11.28333 -11.27399 -11.27223  -1.13970
 Alpha  occ. eigenvalues --   -1.03796  -0.83900  -0.76215  -0.66866  -0.62209
 Alpha  occ. eigenvalues --   -0.50819  -0.46156  -0.44264  -0.40449  -0.36573
 Alpha virt. eigenvalues --    0.03439   0.05489   0.06105   0.07059   0.11018
 Alpha virt. eigenvalues --    0.11363   0.11930   0.12294   0.14794   0.14807
 Alpha virt. eigenvalues --    0.15655   0.16712   0.17747   0.19568   0.20180

  Beta  occ. eigenvalues --  -11.28627 -11.27140 -11.25788 -11.24708  -1.10055
  Beta  occ. eigenvalues --   -0.92772  -0.75579  -0.71748  -0.63037  -0.57792
  Beta  occ. eigenvalues --   -0.44847  -0.39941
  Beta virt. eigenvalues --    0.00641   0.03396   0.04748   0.06095   0.07290
  Beta virt. eigenvalues --    0.09061   0.11537   0.12367   0.12910   0.14711
  Beta virt. eigenvalues --    0.15569   0.16127   0.16301   0.16708   0.17947

 Mulliken charges and spin densities:
               1          2
     1  C   -0.285336   1.943699
     2  H    0.205244  -0.070578
     3  C    0.000850  -0.793221
     4  H    0.200939   0.108159
     5  C   -0.075723   0.570365
     6  H    0.177035  -0.011411
     7  C   -0.223009   1.252987
 Sum of Mulliken charges =  -0.00000   3.00000

 Dipole moment (field-independent basis, Debye):
    X=             -2.6472    Y=              2.8829    Z=              0.0000  Tot=              3.9139
 Quadrupole moment (field-independent basis, Debye-Ang):
   XX=            -29.3413   YY=            -24.7274   ZZ=            -25.3570
   XY=              4.2931   XZ=              0.0000   YZ=              0.0000

 963391\MP4SDQ=-153.4980806\CCSD=-153.5050279\CCSD(T)=-153.525385\S2=3.
 Normal termination of Gaussian 09 at Tue Oct 10 09:53:27 2017.
