 Gaussian 09, Revision E.01,
 Gaussian 09:  ES64L-G09RevE.01 30-Nov-2015

 -----------------------------------
 #p ccsd(t,maxcyc=200)/6-311++G(d,p)
 -----------------------------------

 -------------
 ccsd(t) iener
 -------------
 Symbolic Z-matrix:
 Charge =  0 Multiplicity = 4

                         Standard orientation:
 ---------------------------------------------------------------------
 Center     Atomic      Atomic             Coordinates (Angstroms)
 Number     Number       Type             X           Y           Z
 ---------------------------------------------------------------------
      1          6           0       -0.405928   -0.838043   -0.000000
      2          1           0       -0.983569   -1.132660    0.886036
      3          1           0       -0.983569   -1.132660   -0.886036
      4          6           0        0.892269   -1.642662   -0.000000
      5          6           0       -0.185364    0.598204    0.000000
      6          6           0        0.000000    1.787118    0.000000
      7          1           0        0.161271    2.837616    0.000000
 ---------------------------------------------------------------------

 SCF Done:  E(UHF) =  -153.019501004     A.U. after   22 cycles
 E2 =    -0.4645946407D+00 EUMP2 =    -0.15348409564475D+03
 CCSD(T)
 CCSD(T)= -0.15353971168D+03

 The electronic state is 4-A".
 Alpha  occ. eigenvalues --  -11.29675 -11.29408 -11.24548 -11.23230  -1.10602
 Alpha  occ. eigenvalues --   -1.00772  -0.85759  -0.72880  -0.65788  -0.63958
 Alpha  occ. eigenvalues --   -0.55488  -0.42193  -0.41914  -0.39164  -0.38649
 Alpha virt. eigenvalues --    0.04112   0.05209   0.06740   0.09368   0.11157
 Alpha virt. eigenvalues --    0.12285   0.12340   0.14261   0.14329   0.14697
 Alpha virt. eigenvalues --    0.16182   0.17447   0.18176   0.19966   0.21138

  Beta  occ. eigenvalues --  -11.29239 -11.24407 -11.23167 -11.22116  -1.07487
  Beta  occ. eigenvalues --   -0.97526  -0.73176  -0.65161  -0.62392  -0.60981
  Beta  occ. eigenvalues --   -0.39716  -0.39448
  Beta virt. eigenvalues --    0.02069   0.04517   0.05916   0.06752   0.09649
  Beta virt. eigenvalues --    0.10923   0.11916   0.12362   0.12441   0.14132
  Beta virt. eigenvalues --    0.14507   0.16017   0.17602   0.18509   0.20567

 Mulliken charges and spin densities:
               1          2
     1  C    0.037579  -0.078317
     2  H    0.148046   0.052790
     3  H    0.148046   0.052790
     4  C   -0.014424   2.910616
     5  C    1.626627   0.028278
     6  C   -2.098286   0.034380
     7  H    0.152410  -0.000538
 Sum of Mulliken charges =   0.00000   3.00000

 Dipole moment (field-independent basis, Debye):
    X=             -0.7896    Y=             -0.0587    Z=             -0.0000  Tot=              0.7918
 Quadrupole moment (field-independent basis, Debye-Ang):
   XX=            -24.9943   YY=            -20.2283   ZZ=            -25.0930
   XY=              1.9871   XZ=              0.0000   YZ=              0.0000

 9\CCSD=-153.518045\CCSD(T)=-153.5397117\S2=3.757955\S2-1=3.752637\S2A=
 Normal termination of Gaussian 09 at Tue Oct 10 10:02:16 2017.
