 Gaussian 09, Revision E.01,
 Gaussian 09:  ES64L-G09RevE.01 30-Nov-2015

 -----------------------------------
 #p ccsd(t,maxcyc=200)/6-311++G(d,p)
 -----------------------------------

 -------------
 ccsd(t) iener
 -------------
 Symbolic Z-matrix:
 Charge =  1 Multiplicity = 1

                         Standard orientation:
 ---------------------------------------------------------------------
 Center     Atomic      Atomic             Coordinates (Angstroms)
 Number     Number       Type             X           Y           Z
 ---------------------------------------------------------------------
      1          6           0       -1.514582    0.031365    0.000238
      2          1           0       -2.062314    0.103883   -0.939194
      3          6           0       -0.188022   -0.125265    0.000022
      4          1           0       -2.062021    0.103776    0.939848
      5          6           0        1.050670    0.562021   -0.000132
      6          1           0        1.355345    1.601794   -0.000121
      7          6           0        1.113433   -0.769696   -0.000217
 ---------------------------------------------------------------------

 SCF Done:  E(RHF) =  -152.776953380     A.U. after   15 cycles
 E2 =    -0.5088170810D+00 EUMP2 =    -0.15328577046148D+03
 CCSD(T)
 CCSD(T)= -0.15334795280D+03

 The electronic state is 1-A.
 Alpha  occ. eigenvalues --  -11.58515 -11.57510 -11.56080 -11.52820  -1.48868
 Alpha  occ. eigenvalues --   -1.29923  -1.03322  -0.99674  -0.90864  -0.85444
 Alpha  occ. eigenvalues --   -0.78129  -0.72086  -0.60898
 Alpha virt. eigenvalues --   -0.22320  -0.13656  -0.10308  -0.07785  -0.07508
 Alpha virt. eigenvalues --   -0.06762  -0.04609  -0.03889  -0.02194  -0.01646
 Alpha virt. eigenvalues --   -0.00562   0.02058   0.02565   0.03781   0.04000

 Mulliken charges:
               1
     1  C   -0.283323
     2  H    0.255664
     3  C    0.245583
     4  H    0.255664
     5  C    0.172796
     6  H    0.345674
     7  C    0.007943
 Sum of Mulliken charges =   1.00000

 Dipole moment (field-independent basis, Debye):
    X=             -3.2231    Y=              3.0848    Z=              0.0007  Tot=              4.4614
 Quadrupole moment (field-independent basis, Debye-Ang):
   XX=             -8.9194   YY=            -20.4931   ZZ=            -19.6228
   XY=              4.0064   XZ=             -0.0014   YZ=             -0.0007

 Q=-153.303125\MP4SDQ=-153.3132595\CCSD=-153.3147909\CCSD(T)=-153.34795
 Normal termination of Gaussian 09 at Tue Oct 10 10:12:20 2017.
