 Gaussian 09, Revision E.01,
 Gaussian 09:  ES64L-G09RevE.01 30-Nov-2015

 -----------------------------------
 #p ccsd(t,maxcyc=200)/6-311++G(d,p)
 -----------------------------------

 -------------
 ccsd(t) iener
 -------------
 Symbolic Z-matrix:
 Charge =  1 Multiplicity = 1

                         Standard orientation:
 ---------------------------------------------------------------------
 Center     Atomic      Atomic             Coordinates (Angstroms)
 Number     Number       Type             X           Y           Z
 ---------------------------------------------------------------------
      1          6           0       -0.000016   -1.035754   -0.408331
      2          6           0       -0.896774   -0.081013    0.200269
      3          1           0       -1.801016   -0.170842    0.795496
      4          6           0       -0.000006    0.937833   -0.149676
      5          1           0       -0.000026    1.901365   -0.645608
      6          6           0        0.896790   -0.081013    0.200197
      7          1           0        1.801080   -0.170842    0.795352
 ---------------------------------------------------------------------

 SCF Done:  E(RHF) =  -152.799273119     A.U. after   14 cycles
 E2 =    -0.4971147384D+00 EUMP2 =    -0.15329638785732D+03
 CCSD(T)
 CCSD(T)= -0.15335496590D+03

 The electronic state is 1-A.
 Alpha  occ. eigenvalues --  -11.58169 -11.58120 -11.57917 -11.53420  -1.54026
 Alpha  occ. eigenvalues --   -1.14633  -1.14516  -1.00302  -0.94556  -0.83656
 Alpha  occ. eigenvalues --   -0.79299  -0.73775  -0.62774
 Alpha virt. eigenvalues --   -0.15872  -0.14016  -0.11572  -0.08875  -0.07847
 Alpha virt. eigenvalues --   -0.07265  -0.04433  -0.02611  -0.01900  -0.01144
 Alpha virt. eigenvalues --   -0.00461   0.00858   0.02652   0.02905   0.03268

 Mulliken charges:
               1
     1  C   -0.047846
     2  C    0.181555
     3  H    0.319561
     4  C   -0.267314
     5  H    0.312929
     6  C    0.181555
     7  H    0.319561
 Sum of Mulliken charges =   1.00000

 Dipole moment (field-independent basis, Debye):
    X=              0.0001    Y=              2.7723    Z=              1.7479  Tot=              3.2773
 Quadrupole moment (field-independent basis, Debye-Ang):
   XX=            -13.1475   YY=            -19.3662   ZZ=            -20.2489
   XY=             -0.0001   XZ=             -0.0003   YZ=             -3.7391

 53.3268049\CCSD(T)=-153.3549659\RMSD=8.512e-09\PG=C01 [X(C4H3)]\\@
 Normal termination of Gaussian 09 at Tue Oct 10 10:08:21 2017.
