 Gaussian 09, Revision E.01,
 Gaussian 09:  ES64L-G09RevE.01 30-Nov-2015

 -----------------------------------
 #p ccsd(t,maxcyc=200)/6-311++G(d,p)
 -----------------------------------

 -------------
 ccsd(t) iener
 -------------
 Symbolic Z-matrix:
 Charge =  1 Multiplicity = 1

                         Standard orientation:
 ---------------------------------------------------------------------
 Center     Atomic      Atomic             Coordinates (Angstroms)
 Number     Number       Type             X           Y           Z
 ---------------------------------------------------------------------
      1          6           0        1.401754   -0.636002   -0.247088
      2          6           0       -1.008487   -0.000144    0.118333
      3          8           0       -2.052778    0.000162   -0.292979
      4          6           0        0.296136   -0.000542    0.632185
      5          6           0        1.401522    0.636463   -0.246454
      6          1           0        1.775038   -1.624070   -0.460819
      7          1           0        0.327677   -0.000982    1.721786
      8          1           0        1.773962    1.625107   -0.458992
 ---------------------------------------------------------------------

 SCF Done:  E(RHF) =  -227.768306776     A.U. after   15 cycles
 E2 =    -0.7197458907D+00 EUMP2 =    -0.22848805266662D+03
 CCSD(T)
 CCSD(T)= -0.22854045583D+03

 The electronic state is 1-A.
 Alpha  occ. eigenvalues --  -20.92842 -11.67180 -11.53300 -11.51273 -11.51026
 Alpha  occ. eigenvalues --   -1.78103  -1.43826  -1.21722  -1.02316  -1.01254
 Alpha  occ. eigenvalues --   -0.94076  -0.93317  -0.90430  -0.87856  -0.77556
 Alpha  occ. eigenvalues --   -0.67592  -0.63837
 Alpha virt. eigenvalues --   -0.12544  -0.11909  -0.09625  -0.08463  -0.06896
 Alpha virt. eigenvalues --   -0.06390  -0.06093  -0.02331  -0.02281  -0.01429
 Alpha virt. eigenvalues --   -0.00276   0.01259   0.01775   0.02831   0.04130

 Mulliken charges:
               1
     1  C   -0.122059
     2  C    0.249176
     3  O   -0.082780
     4  C    0.161505
     5  C   -0.121790
     6  H    0.317297
     7  H    0.281292
     8  H    0.317358
 Sum of Mulliken charges =   1.00000

 Dipole moment (field-independent basis, Debye):
    X=              1.7724    Y=              0.0001    Z=              0.6952  Tot=              1.9039
 Quadrupole moment (field-independent basis, Debye-Ang):
   XX=            -18.6804   YY=            -20.4282   ZZ=            -23.9440
   XY=              0.0004   XZ=             -2.1456   YZ=              0.0018

 381\CCSD(T)=-228.5404558\RMSD=2.644e-09\PG=C01 [X(C4H3O1)]\\@
 Normal termination of Gaussian 09 at Tue Oct 10 09:12:15 2017.
