 Gaussian 09, Revision E.01,
 Gaussian 09:  ES64L-G09RevE.01 30-Nov-2015

 -----------------------------------
 #p ccsd(t,maxcyc=200)/6-311++G(d,p)
 -----------------------------------

 -------------
 ccsd(t) iener
 -------------
 Symbolic Z-matrix:
 Charge =  0 Multiplicity = 2

                         Standard orientation:
 ---------------------------------------------------------------------
 Center     Atomic      Atomic             Coordinates (Angstroms)
 Number     Number       Type             X           Y           Z
 ---------------------------------------------------------------------
      1          6           0        0.463094   -0.886796   -0.000000
      2          6           0       -0.157118   -0.117366    1.046627
      3          6           0       -0.157118    0.854781    0.000000
      4          1           0        0.335359    1.829680    0.000000
      5          6           0       -0.157118   -0.117366   -1.046627
      6          1           0       -0.142898   -0.114595   -2.124182
      7          1           0       -0.142898   -0.114595    2.124182
 ---------------------------------------------------------------------

 SCF Done:  E(UHF) =  -153.060533993     A.U. after   23 cycles
 E2 =    -0.4859961526D+00 EUMP2 =    -0.15354653014569D+03
 CCSD(T)
 CCSD(T)= -0.15362486965D+03

 The electronic state is 2-A".
 Alpha  occ. eigenvalues --  -11.27771 -11.26729 -11.26726 -11.25619  -1.22634
 Alpha  occ. eigenvalues --   -0.93724  -0.82613  -0.74132  -0.64480  -0.57098
 Alpha  occ. eigenvalues --   -0.54694  -0.50886  -0.35919  -0.35324
 Alpha virt. eigenvalues --    0.04162   0.04850   0.05988   0.08546   0.11374
 Alpha virt. eigenvalues --    0.12042   0.12952   0.13385   0.14610   0.16006
 Alpha virt. eigenvalues --    0.16489   0.18742   0.18880   0.19144   0.19635

  Beta  occ. eigenvalues --  -11.29344 -11.25907 -11.24508 -11.24505  -1.20789
  Beta  occ. eigenvalues --   -0.86491  -0.84869  -0.71110  -0.62449  -0.56316
  Beta  occ. eigenvalues --   -0.52731  -0.45993  -0.35279
  Beta virt. eigenvalues --    0.04217   0.04871   0.05762   0.08026   0.08328
  Beta virt. eigenvalues --    0.10589   0.13435   0.13654   0.13836   0.15331
  Beta virt. eigenvalues --    0.16177   0.18239   0.18352   0.19569   0.19755

 Mulliken charges and spin densities:
               1          2
     1  C   -0.063282  -0.262588
     2  C   -0.192917   1.035063
     3  C   -0.086091  -0.770048
     4  H    0.154591   0.058556
     5  C   -0.192917   1.035063
     6  H    0.190308  -0.048023
     7  H    0.190308  -0.048023
 Sum of Mulliken charges =  -0.00000   1.00000

 Dipole moment (field-independent basis, Debye):
    X=             -0.7797    Y=              2.0639    Z=              0.0000  Tot=              2.2062
 Quadrupole moment (field-independent basis, Debye-Ang):
   XX=            -27.2594   YY=            -25.1502   ZZ=            -19.4835
   XY=              2.6376   XZ=              0.0000   YZ=             -0.0000

 Normal termination of Gaussian 09 at Tue Oct 10 09:14:46 2017.
