 Gaussian 09, Revision E.01,
 Gaussian 09:  ES64L-G09RevE.01 30-Nov-2015

 -----------------------------------
 #p ccsd(t,maxcyc=200)/6-311++G(d,p)
 -----------------------------------

 -------------
 ccsd(t) iener
 -------------
 Symbolic Z-matrix:
 Charge =  1 Multiplicity = 1

                         Standard orientation:
 ---------------------------------------------------------------------
 Center     Atomic      Atomic             Coordinates (Angstroms)
 Number     Number       Type             X           Y           Z
 ---------------------------------------------------------------------
      1          6           0        0.072982   -0.620773    0.487966
      2          6           0       -0.768529    0.676214    0.080119
      3          8           0       -1.048127   -0.545348   -0.467413
      4          6           0        0.631968    0.910930   -0.069484
      5          6           0        1.352452   -0.182661   -0.144305
      6          1           0       -0.112290   -0.971475    1.497956
      7          1           0       -1.497828    1.248288    0.644259
      8          1           0        2.261890   -0.616288   -0.528692
 ---------------------------------------------------------------------

 SCF Done:  E(RHF) =  -227.631865028     A.U. after   17 cycles
 E2 =    -0.7349141050D+00 EUMP2 =    -0.22836677913275D+03
 CCSD(T)
 CCSD(T)= -0.22842364543D+03

 The electronic state is 1-A.
 Alpha  occ. eigenvalues --  -20.86639 -11.62864 -11.61852 -11.56789 -11.56352
 Alpha  occ. eigenvalues --   -1.73107  -1.44808  -1.19968  -1.11561  -1.02572
 Alpha  occ. eigenvalues --   -0.93961  -0.91155  -0.88142  -0.84784  -0.77601
 Alpha  occ. eigenvalues --   -0.69620  -0.63820
 Alpha virt. eigenvalues --   -0.20177  -0.10192  -0.09281  -0.07910  -0.07527
 Alpha virt. eigenvalues --   -0.05111  -0.03899  -0.02818  -0.02144  -0.01024
 Alpha virt. eigenvalues --   -0.00632   0.00263   0.02476   0.03025   0.03874

 Mulliken charges:
               1
     1  C   -0.064653
     2  C   -0.204061
     3  O    0.028117
     4  C    0.479031
     5  C   -0.133427
     6  H    0.291221
     7  H    0.279542
     8  H    0.324229
 Sum of Mulliken charges =   1.00000

 Dipole moment (field-independent basis, Debye):
    X=              1.7072    Y=              0.6997    Z=              1.7087  Tot=              2.5147
 Quadrupole moment (field-independent basis, Debye-Ang):
   XX=            -17.8116   YY=            -22.7151   ZZ=            -24.1124
   XY=             -5.3626   XZ=             -3.7531   YZ=             -1.4737

 CCSD(T)=-228.4236454\RMSD=3.252e-09\PG=C01 [X(C4H3O1)]\\@
 Normal termination of Gaussian 09 at Tue Oct 10 09:08:33 2017.
