 Gaussian 09, Revision E.01,
 Gaussian 09:  ES64L-G09RevE.01 30-Nov-2015

 -----------------------------------
 #p ccsd(t,maxcyc=200)/6-311++G(d,p)
 -----------------------------------

 -------------
 ccsd(t) iener
 -------------
 Symbolic Z-matrix:
 Charge =  1 Multiplicity = 1

                         Standard orientation:
 ---------------------------------------------------------------------
 Center     Atomic      Atomic             Coordinates (Angstroms)
 Number     Number       Type             X           Y           Z
 ---------------------------------------------------------------------
      1          6           0        0.637930   -0.988865    0.000000
      2          1           0        1.656584   -1.346516    0.000000
      3          6           0       -0.633020   -0.991838    0.000000
      4          1           0       -1.650413   -1.353001    0.000000
      5          6           0        0.000000    0.374201    0.000000
      6          6           0       -0.004496    1.609380    0.000000
      7          1           0       -0.008656    2.682247    0.000000
 ---------------------------------------------------------------------

 SCF Done:  E(RHF) =  -152.802985088     A.U. after   13 cycles
 E2 =    -0.5037537949D+00 EUMP2 =    -0.15330673888283D+03
 CCSD(T)
 CCSD(T)= -0.15336368446D+03

 The electronic state is 1-A'.
 Alpha  occ. eigenvalues --  -11.55056 -11.54805 -11.53899 -11.52520  -1.45826
 Alpha  occ. eigenvalues --   -1.26141  -1.03745  -0.98827  -0.95612  -0.83598
 Alpha  occ. eigenvalues --   -0.77034  -0.71092  -0.60246
 Alpha virt. eigenvalues --   -0.18272  -0.09763  -0.08949  -0.07023  -0.06787
 Alpha virt. eigenvalues --   -0.05489  -0.04293  -0.02488  -0.01633  -0.01359
 Alpha virt. eigenvalues --    0.00681   0.01946   0.02784   0.03499   0.03759

 Mulliken charges:
               1
     1  C    0.088764
     2  H    0.324480
     3  C    0.088446
     4  H    0.324664
     5  C    0.251608
     6  C   -0.378576
     7  H    0.300613
 Sum of Mulliken charges =   1.00000

 Dipole moment (field-independent basis, Debye):
    X=             -0.0051    Y=              0.4321    Z=              0.0000  Tot=              0.4321
 Quadrupole moment (field-independent basis, Debye-Ang):
   XX=            -13.9269   YY=             -5.8776   ZZ=            -23.4390
   XY=             -0.0284   XZ=              0.0000   YZ=              0.0000

 6004\MP4DQ=-153.3260965\MP4SDQ=-153.3339982\CCSD=-153.3356185\CCSD(T)=
 Normal termination of Gaussian 09 at Tue Oct 10 10:10:32 2017.
