 Gaussian 09, Revision E.01,
 Gaussian 09:  ES64L-G09RevE.01 30-Nov-2015

 -----------------------------------
 #p ccsd(t,maxcyc=200)/6-311++G(d,p)
 -----------------------------------

 -------------
 ccsd(t) iener
 -------------
 Symbolic Z-matrix:
 Charge =  1 Multiplicity = 1

                         Standard orientation:
 ---------------------------------------------------------------------
 Center     Atomic      Atomic             Coordinates (Angstroms)
 Number     Number       Type             X           Y           Z
 ---------------------------------------------------------------------
      1          6           0        1.466509   -0.677060   -0.090404
      2          6           0       -1.183643   -0.000840    0.465276
      3          8           0       -1.852691    0.000901   -0.521089
      4          6           0        0.319196   -0.000261    0.240696
      5          6           0        1.466343    0.677349   -0.089266
      6          1           0        1.977364   -1.618016   -0.248943
      7          1           0       -1.543704   -0.002985    1.504671
      8          1           0        1.977440    1.618669   -0.244827
 ---------------------------------------------------------------------

 SCF Done:  E(RHF) =  -227.768707663     A.U. after   15 cycles
 E2 =    -0.6940724190D+00 EUMP2 =    -0.22846278008161D+03
 CCSD(T)
 CCSD(T)= -0.22851970312D+03

 The electronic state is 1-A.
 Alpha  occ. eigenvalues --  -20.78494 -11.57396 -11.57079 -11.57057 -11.56951
 Alpha  occ. eigenvalues --   -1.62830  -1.51806  -1.15245  -1.06971  -1.01777
 Alpha  occ. eigenvalues --   -0.95049  -0.87015  -0.81146  -0.80850  -0.76150
 Alpha  occ. eigenvalues --   -0.72266  -0.65468
 Alpha virt. eigenvalues --   -0.12881  -0.12567  -0.09869  -0.09693  -0.07431
 Alpha virt. eigenvalues --   -0.06979  -0.04965  -0.03679  -0.02587  -0.02479
 Alpha virt. eigenvalues --    0.00412   0.01781   0.02270   0.02282   0.04235

 Mulliken charges:
               1
     1  C    0.139882
     2  C   -0.204893
     3  O   -0.176742
     4  C    0.252745
     5  C    0.139503
     6  H    0.322995
     7  H    0.203611
     8  H    0.322899
 Sum of Mulliken charges =   1.00000

 Dipole moment (field-independent basis, Debye):
    X=              5.8610    Y=             -0.0039    Z=              2.1285  Tot=              6.2355
 Quadrupole moment (field-independent basis, Debye-Ang):
   XX=            -16.7725   YY=            -19.3075   ZZ=            -24.2969
   XY=              0.0094   XZ=             -5.4073   YZ=              0.0051

 Normal termination of Gaussian 09 at Tue Oct 10 09:12:27 2017.
