 Gaussian 09, Revision E.01,
 Gaussian 09:  ES64L-G09RevE.01 30-Nov-2015

 -----------------------------------
 #p ccsd(t,maxcyc=200)/6-311++G(d,p)
 -----------------------------------

 -------------
 ccsd(t) iener
 -------------
 Symbolic Z-matrix:
 Charge =  1 Multiplicity = 3

                         Standard orientation:
 ---------------------------------------------------------------------
 Center     Atomic      Atomic             Coordinates (Angstroms)
 Number     Number       Type             X           Y           Z
 ---------------------------------------------------------------------
      1          6           0       -0.017860    0.000351   -0.007790
      2          6           0        1.203339   -0.678824    0.000967
      3          6           0        1.203799    0.678624    0.001240
      4          6           0       -1.470789    0.000476   -0.005091
      5          1           0       -1.853690   -0.889695   -0.511986
      6          1           0       -1.801659   -0.027717    1.043068
      7          1           0       -1.855579    0.913646   -0.467027
 ---------------------------------------------------------------------

 SCF Done:  E(UHF) =  -152.757051964     A.U. after   19 cycles
 E2 =    -0.4673995067D+00 EUMP2 =    -0.15322445147086D+03
 CCSD(T)
 CCSD(T)= -0.15328397385D+03

 The electronic state is 3-A.
 Alpha  occ. eigenvalues --  -11.62672 -11.62501 -11.59970 -11.46690  -1.54280
 Alpha  occ. eigenvalues --   -1.25643  -1.03947  -0.99541  -0.88285  -0.82998
 Alpha  occ. eigenvalues --   -0.81654  -0.78193  -0.74535  -0.69498
 Alpha virt. eigenvalues --   -0.14940  -0.12492  -0.09232  -0.06409  -0.05786
 Alpha virt. eigenvalues --   -0.05486  -0.03282  -0.02784  -0.02474  -0.01034
 Alpha virt. eigenvalues --    0.00143   0.02258   0.02845   0.03634   0.04783

  Beta  occ. eigenvalues --  -11.59818 -11.59195 -11.59091 -11.46708  -1.50036
  Beta  occ. eigenvalues --   -1.24813  -0.94154  -0.89252  -0.82911  -0.79584
  Beta  occ. eigenvalues --   -0.76810  -0.72494
  Beta virt. eigenvalues --   -0.24614  -0.19465  -0.11719  -0.08903  -0.08346
  Beta virt. eigenvalues --   -0.05675  -0.05617  -0.04273  -0.02695  -0.02260
  Beta virt. eigenvalues --   -0.02113  -0.00795   0.01142   0.03089   0.03243

 Mulliken charges and spin densities:
               1          2
     1  C    0.492268   0.179082
     2  C    0.265929   0.922969
     3  C    0.263879   0.923330
     4  C   -0.700317  -0.038515
     5  H    0.223794   0.009029
     6  H    0.230136  -0.005748
     7  H    0.224311   0.009853
 Sum of Mulliken charges =   1.00000   2.00000

 Dipole moment (field-independent basis, Debye):
    X=              0.2792    Y=             -0.0055    Z=              0.0756  Tot=              0.2893
 Quadrupole moment (field-independent basis, Debye-Ang):
   XX=            -12.5641   YY=            -18.4027   ZZ=            -20.1624
   XY=              0.0101   XZ=             -0.1360   YZ=             -0.0001

 51\CCSD=-153.2582243\CCSD(T)=-153.2839738\S2=2.025392\S2-1=2.009463\S2
 Normal termination of Gaussian 09 at Tue Oct 10 10:14:06 2017.
