 Gaussian 09, Revision E.01,
 Gaussian 09:  ES64L-G09RevE.01 30-Nov-2015

 -----------------------------------
 #p ccsd(t,maxcyc=200)/6-311++G(d,p)
 -----------------------------------

 -------------
 ccsd(t) iener
 -------------
 Symbolic Z-matrix:
 Charge =  0 Multiplicity = 4

                         Standard orientation:
 ---------------------------------------------------------------------
 Center     Atomic      Atomic             Coordinates (Angstroms)
 Number     Number       Type             X           Y           Z
 ---------------------------------------------------------------------
      1          6           0       -0.145157   -0.000149    0.482643
      2          1           0       -0.140301   -0.000821    1.576666
      3          6           0        1.130112   -0.646818   -0.203427
      4          6           0        1.130137    0.646897   -0.202399
      5          6           0       -1.447287    0.000156   -0.187178
      6          1           0       -1.933832   -0.931386   -0.456254
      7          1           0       -1.932698    0.931685   -0.458243
 ---------------------------------------------------------------------

 SCF Done:  E(UHF) =  -152.954198472     A.U. after   66 cycles
 E2 =    -0.4908560211D+00 EUMP2 =    -0.15344505449308D+03
 CCSD(T)
 CCSD(T)= -0.15351040390D+03

 The electronic state is 4-A.
 Alpha  occ. eigenvalues --  -11.30545 -11.30298 -11.30197 -11.25126  -1.19834
 Alpha  occ. eigenvalues --   -1.01005  -0.80943  -0.70443  -0.63034  -0.60239
 Alpha  occ. eigenvalues --   -0.59276  -0.51732  -0.40421  -0.37987  -0.37814
 Alpha virt. eigenvalues --    0.04627   0.06126   0.06324   0.08867   0.09747
 Alpha virt. eigenvalues --    0.11359   0.11684   0.13670   0.14097   0.16574
 Alpha virt. eigenvalues --    0.17240   0.17478   0.18375   0.18828   0.20707

  Beta  occ. eigenvalues --  -11.29248 -11.28030 -11.27861 -11.22870  -1.13728
  Beta  occ. eigenvalues --   -0.92277  -0.74835  -0.60054  -0.59806  -0.52134
  Beta  occ. eigenvalues --   -0.48272  -0.37583
  Beta virt. eigenvalues --   -0.00951   0.04923   0.04981   0.06244   0.06939
  Beta virt. eigenvalues --    0.08346   0.10692   0.10932   0.12734   0.12844
  Beta virt. eigenvalues --    0.14216   0.17239   0.18035   0.18519   0.18761

 Mulliken charges and spin densities:
               1          2
     1  C    0.145869   0.311567
     2  H    0.151665  -0.018845
     3  C   -0.042326   0.779315
     4  C   -0.042093   0.768028
     5  C   -0.474926   1.320333
     6  H    0.130841  -0.080226
     7  H    0.130969  -0.080172
 Sum of Mulliken charges =  -0.00000   3.00000

 Dipole moment (field-independent basis, Debye):
    X=             -1.4197    Y=             -0.0034    Z=              0.0837  Tot=              1.4222
 Quadrupole moment (field-independent basis, Debye-Ang):
   XX=            -25.5469   YY=            -24.2070   ZZ=            -24.4560
   XY=             -0.0041   XZ=              0.0917   YZ=             -0.0019

 831\CCSD=-153.4835276\CCSD(T)=-153.5104039\S2=3.791491\S2-1=3.761786\S
 Normal termination of Gaussian 09 at Tue Oct 10 10:04:26 2017.
