 Gaussian 09, Revision E.01,
 Gaussian 09:  ES64L-G09RevE.01 30-Nov-2015

 -----------------------------------
 #p ccsd(t,maxcyc=200)/6-311++G(d,p)
 -----------------------------------

 -------------
 ccsd(t) iener
 -------------
 Symbolic Z-matrix:
 Charge =  0 Multiplicity = 4

                         Standard orientation:
 ---------------------------------------------------------------------
 Center     Atomic      Atomic             Coordinates (Angstroms)
 Number     Number       Type             X           Y           Z
 ---------------------------------------------------------------------
      1          6           0        0.941447   -0.282275    0.000000
      2          6           0       -0.381752   -1.045414    0.000000
      3          6           0       -1.109778    0.156170   -0.000000
      4          1           0        1.544317   -0.389770    0.904766
      5          1           0        1.544317   -0.389770   -0.904766
      6          6           0       -0.000000    0.964110   -0.000000
      7          1           0        0.211864    2.023997   -0.000000
 ---------------------------------------------------------------------

 SCF Done:  E(UHF) =  -153.020681335     A.U. after   18 cycles
 E2 =    -0.4665358414D+00 EUMP2 =    -0.15348721717654D+03
 CCSD(T)
 CCSD(T)= -0.15355845488D+03

 The electronic state is 4-A".
 Alpha  occ. eigenvalues --  -11.28616 -11.27624 -11.26374 -11.26206  -1.20920
 Alpha  occ. eigenvalues --   -0.91468  -0.90457  -0.68302  -0.64527  -0.63780
 Alpha  occ. eigenvalues --   -0.56944  -0.44716  -0.44283  -0.42102  -0.34666
 Alpha virt. eigenvalues --    0.04237   0.05846   0.06529   0.09147   0.10700
 Alpha virt. eigenvalues --    0.12980   0.13430   0.13718   0.14674   0.15579
 Alpha virt. eigenvalues --    0.16534   0.17252   0.19172   0.20940   0.21631

  Beta  occ. eigenvalues --  -11.26249 -11.26147 -11.24136 -11.23719  -1.13715
  Beta  occ. eigenvalues --   -0.88205  -0.79396  -0.59963  -0.58918  -0.55811
  Beta  occ. eigenvalues --   -0.50577  -0.38841
  Beta virt. eigenvalues --    0.03814   0.04580   0.05141   0.06606   0.08612
  Beta virt. eigenvalues --    0.09157   0.12265   0.13285   0.14045   0.14337
  Beta virt. eigenvalues --    0.14811   0.16422   0.17189   0.18138   0.19619

 Mulliken charges and spin densities:
               1          2
     1  C   -0.496398  -0.267883
     2  C    0.144678   2.057605
     3  C   -0.020424  -0.083276
     4  H    0.124466   0.036025
     5  H    0.124466   0.036025
     6  C   -0.061116   1.221584
     7  H    0.184327  -0.000080
 Sum of Mulliken charges =  -0.00000   3.00000

 Dipole moment (field-independent basis, Debye):
    X=              1.4272    Y=              0.6514    Z=             -0.0000  Tot=              1.5689
 Quadrupole moment (field-independent basis, Debye-Ang):
   XX=            -24.1691   YY=            -23.2656   ZZ=            -25.0131
   XY=             -0.0368   XZ=             -0.0000   YZ=              0.0000

 -0=-153.5248192\MP4SDQ=-153.5281941\CCSD=-153.5343209\CCSD(T)=-153.558
 Normal termination of Gaussian 09 at Tue Oct 10 09:48:19 2017.
