 Gaussian 09, Revision E.01,
 Gaussian 09:  ES64L-G09RevE.01 30-Nov-2015

 -----------------------------------
 #p ccsd(t,maxcyc=200)/6-311++G(d,p)
 -----------------------------------

 -------------
 ccsd(t) iener
 -------------
 Symbolic Z-matrix:
 Charge =  1 Multiplicity = 1

                         Standard orientation:
 ---------------------------------------------------------------------
 Center     Atomic      Atomic             Coordinates (Angstroms)
 Number     Number       Type             X           Y           Z
 ---------------------------------------------------------------------
      1          6           0        0.651513    0.818731    0.000053
      2          1           0        0.710303    1.366176   -0.937626
      3          1           0        0.710099    1.366216    0.937720
      4          6           0        0.875224   -0.620304    0.000108
      5          1           0        1.664938   -1.365946    0.000210
      6          6           0       -0.444948   -0.534346   -0.000037
      7          6           0       -1.596012    0.108178   -0.000175
 ---------------------------------------------------------------------

 SCF Done:  E(RHF) =  -152.726600090     A.U. after   15 cycles
 E2 =    -0.5054542956D+00 EUMP2 =    -0.15323205438516D+03
 CCSD(T)
 CCSD(T)= -0.15329274057D+03

 The electronic state is 1-A.
 Alpha  occ. eigenvalues --  -11.61044 -11.60028 -11.57675 -11.51632  -1.46642
 Alpha  occ. eigenvalues --   -1.23145  -1.12249  -0.99181  -0.90142  -0.85864
 Alpha  occ. eigenvalues --   -0.72227  -0.67616  -0.67592
 Alpha virt. eigenvalues --   -0.24620  -0.16442  -0.10036  -0.07745  -0.07478
 Alpha virt. eigenvalues --   -0.07455  -0.02820  -0.02457  -0.01907  -0.01370
 Alpha virt. eigenvalues --   -0.00728   0.00103   0.00606   0.02107   0.04072

 Mulliken charges:
               1
     1  C   -0.397470
     2  H    0.243435
     3  H    0.243435
     4  C    0.159777
     5  H    0.366782
     6  C   -0.128654
     7  C    0.512694
 Sum of Mulliken charges =   1.00000

 Dipole moment (field-independent basis, Debye):
    X=              3.3042    Y=             -0.1144    Z=              0.0004  Tot=              3.3062
 Quadrupole moment (field-independent basis, Debye-Ang):
   XX=            -16.9260   YY=            -16.4418   ZZ=            -19.9827
   XY=             -0.4159   XZ=              0.0003   YZ=             -0.0001

 Q=-153.2521478\MP4SDQ=-153.260588\CCSD=-153.260722\CCSD(T)=-153.292740
 Normal termination of Gaussian 09 at Tue Oct 10 10:10:57 2017.
