 Gaussian 09, Revision E.01,
 Gaussian 09:  ES64L-G09RevE.01 30-Nov-2015

 -----------------------------------
 #p ccsd(t,maxcyc=200)/6-311++G(d,p)
 -----------------------------------

 -------------
 ccsd(t) iener
 -------------
 Symbolic Z-matrix:
 Charge =  1 Multiplicity = 3

                         Standard orientation:
 ---------------------------------------------------------------------
 Center     Atomic      Atomic             Coordinates (Angstroms)
 Number     Number       Type             X           Y           Z
 ---------------------------------------------------------------------
      1          6           0       -0.142305    1.132343   -0.000000
      2          1           0       -1.035607    1.752748   -0.000000
      3          1           0        0.800879    1.674546   -0.000000
      4          6           0       -0.142305   -0.126726    0.842212
      5          6           0        0.361641   -1.093228    0.000000
      6          1           0        0.626367   -2.141271    0.000000
      7          6           0       -0.142305   -0.126726   -0.842212
 ---------------------------------------------------------------------

 SCF Done:  E(UHF) =  -152.756682281     A.U. after   19 cycles
 E2 =    -0.4544472084D+00 EUMP2 =    -0.15321112948963D+03
 CCSD(T)
 CCSD(T)= -0.15327849393D+03

 The electronic state is 3-A".
 Alpha  occ. eigenvalues --  -11.60457 -11.60423 -11.53876 -11.52907  -1.53078
 Alpha  occ. eigenvalues --   -1.20700  -1.10372  -0.99326  -0.92421  -0.84846
 Alpha  occ. eigenvalues --   -0.81132  -0.80435  -0.70764  -0.64142
 Alpha virt. eigenvalues --   -0.15492  -0.11349  -0.08591  -0.07287  -0.06565
 Alpha virt. eigenvalues --   -0.06270  -0.03112  -0.02001  -0.01358  -0.00274
 Alpha virt. eigenvalues --    0.00039   0.01961   0.03997   0.04392   0.04473

  Beta  occ. eigenvalues --  -11.56536 -11.56512 -11.55166 -11.53192  -1.48969
  Beta  occ. eigenvalues --   -1.21825  -0.99453  -0.94324  -0.86889  -0.83532
  Beta  occ. eigenvalues --   -0.78681  -0.69587
  Beta virt. eigenvalues --   -0.24057  -0.11658  -0.10469  -0.07899  -0.07658
  Beta virt. eigenvalues --   -0.07066  -0.06389  -0.03552  -0.02352  -0.01713
  Beta virt. eigenvalues --   -0.01156  -0.00380   0.02316   0.02695   0.04401

 Mulliken charges and spin densities:
               1          2
     1  C   -0.540296  -0.105414
     2  H    0.238713   0.024906
     3  H    0.247606   0.037814
     4  C    0.410352   1.252964
     5  C   -0.084181  -0.507071
     6  H    0.317453   0.043837
     7  C    0.410352   1.252964
 Sum of Mulliken charges =   1.00000   2.00000

 Dipole moment (field-independent basis, Debye):
    X=              0.4389    Y=             -0.2811    Z=             -0.0000  Tot=              0.5211
 Quadrupole moment (field-independent basis, Debye-Ang):
   XX=            -20.0740   YY=            -11.4144   ZZ=            -19.1019
   XY=             -2.2738   XZ=              0.0000   YZ=              0.0000

 MP3-0=-153.2503246\MP4SDQ=-153.2484904\CCSD=-153.2543754\CCSD(T)=-153.
 Normal termination of Gaussian 09 at Tue Oct 10 10:25:35 2017.
