 Gaussian 09, Revision E.01,
 Gaussian 09:  ES64L-G09RevE.01 30-Nov-2015

 -----------------------------------
 #p ccsd(t,maxcyc=200)/6-311++G(d,p)
 -----------------------------------

 -------------
 ccsd(t) iener
 -------------
 Symbolic Z-matrix:
 Charge =  1 Multiplicity = 1

                         Standard orientation:
 ---------------------------------------------------------------------
 Center     Atomic      Atomic             Coordinates (Angstroms)
 Number     Number       Type             X           Y           Z
 ---------------------------------------------------------------------
      1          6           0       -0.601875    0.855511   -0.026564
      2          6           0        1.097032   -0.497428   -0.046071
      3          8           0        0.793186    0.797434    0.015430
      4          6           0       -0.118168   -1.105680    0.175488
      5          6           0       -1.232966   -0.382153   -0.139463
      6          1           0       -1.030403    1.790850    0.314409
      7          1           0        2.109643   -0.829352   -0.221283
      8          1           0       -2.288866   -0.562474    0.003099
 ---------------------------------------------------------------------

 SCF Done:  E(RHF) =  -227.669256287     A.U. after   22 cycles
 E2 =    -0.7191128713D+00 EUMP2 =    -0.22838836915790D+03
 CCSD(T)
 CCSD(T)= -0.22845593636D+03

 The electronic state is 1-A.
 Alpha  occ. eigenvalues --  -20.90526 -11.61167 -11.58847 -11.57387 -11.51401
 Alpha  occ. eigenvalues --   -1.74789  -1.38201  -1.27319  -1.07357  -1.03976
 Alpha  occ. eigenvalues --   -0.96968  -0.91631  -0.86885  -0.85169  -0.81018
 Alpha  occ. eigenvalues --   -0.68581  -0.58961
 Alpha virt. eigenvalues --   -0.24058  -0.11641  -0.09119  -0.07342  -0.06339
 Alpha virt. eigenvalues --   -0.05848  -0.04138  -0.02935  -0.02850  -0.00595
 Alpha virt. eigenvalues --   -0.00307   0.00943   0.02216   0.03008   0.04190

 Mulliken charges:
               1
     1  C    0.018307
     2  C   -0.107810
     3  O   -0.035231
     4  C    0.474616
     5  C   -0.234529
     6  H    0.304219
     7  H    0.320938
     8  H    0.259489
 Sum of Mulliken charges =   1.00000

 Dipole moment (field-independent basis, Debye):
    X=             -0.3863    Y=             -1.0926    Z=             -0.4067  Tot=              1.2282
 Quadrupole moment (field-independent basis, Debye-Ang):
   XX=            -14.5293   YY=            -20.4694   ZZ=            -28.0854
   XY=             -4.1262   XZ=             -1.1665   YZ=              1.9717

 Normal termination of Gaussian 09 at Tue Oct 10 09:03:07 2017.
