 Gaussian 09, Revision E.01,
 Gaussian 09:  ES64L-G09RevE.01 30-Nov-2015

 -----------------------------------
 #p ccsd(t,maxcyc=200)/6-311++G(d,p)
 -----------------------------------

 -------------
 ccsd(t) iener
 -------------
 Symbolic Z-matrix:
 Charge =  0 Multiplicity = 2

                         Standard orientation:
 ---------------------------------------------------------------------
 Center     Atomic      Atomic             Coordinates (Angstroms)
 Number     Number       Type             X           Y           Z
 ---------------------------------------------------------------------
      1          6           0       -0.003494    0.000442   -0.004443
      2          6           0        1.197839   -0.681355    0.000638
      3          6           0        1.198585    0.681050    0.000647
      4          6           0       -1.470146    0.000538   -0.003241
      5          1           0       -1.855200   -0.872706   -0.535241
      6          1           0       -1.823954   -0.046646    1.031419
      7          1           0       -1.857548    0.915306   -0.457784
 ---------------------------------------------------------------------

 SCF Done:  E(UHF) =  -153.056329867     A.U. after   25 cycles
 E2 =    -0.5155759799D+00 EUMP2 =    -0.15357190584658D+03
 CCSD(T)
 CCSD(T)= -0.15362741924D+03

 The electronic state is 2-A.
 Alpha  occ. eigenvalues --  -11.34037 -11.28106 -11.27948 -11.27419  -1.25410
 Alpha  occ. eigenvalues --   -1.04186  -0.74587  -0.72504  -0.62458  -0.59990
 Alpha  occ. eigenvalues --   -0.59900  -0.48209  -0.42924  -0.40361
 Alpha virt. eigenvalues --    0.03517   0.06314   0.06700   0.09948   0.10542
 Alpha virt. eigenvalues --    0.10708   0.10757   0.11467   0.13297   0.15035
 Alpha virt. eigenvalues --    0.15943   0.17833   0.17990   0.18049   0.20207

  Beta  occ. eigenvalues --  -11.32938 -11.27543 -11.26850 -11.26678  -1.23229
  Beta  occ. eigenvalues --   -1.03798  -0.71381  -0.65942  -0.62288  -0.57439
  Beta  occ. eigenvalues --   -0.52850  -0.47438  -0.36178
  Beta virt. eigenvalues --    0.01444   0.03561   0.06344   0.06993   0.10311
  Beta virt. eigenvalues --    0.10672   0.11183   0.11384   0.12090   0.13317
  Beta virt. eigenvalues --    0.15268   0.16282   0.17887   0.18083   0.18447

 Mulliken charges and spin densities:
               1          2
     1  C    0.774073   0.946380
     2  C   -0.342527  -0.037585
     3  C   -0.343559  -0.039321
     4  C   -0.615137   0.083504
     5  H    0.175023   0.020650
     6  H    0.176073   0.004049
     7  H    0.176054   0.022323
 Sum of Mulliken charges =  -0.00000   1.00000

 Dipole moment (field-independent basis, Debye):
    X=             -3.4979    Y=             -0.0120    Z=              0.0411  Tot=              3.4982
 Quadrupole moment (field-independent basis, Debye-Ang):
   XX=            -24.5138   YY=            -28.1900   ZZ=            -23.5343
   XY=             -0.0101   XZ=             -0.0497   YZ=             -0.0002

 6\CCSD=-153.5999304\CCSD(T)=-153.6274192\S2=0.780751\S2-1=0.758886\S2A
 Normal termination of Gaussian 09 at Tue Oct 10 09:16:08 2017.
