 Gaussian 09, Revision E.01,
 Gaussian 09:  ES64L-G09RevE.01 30-Nov-2015

 -----------------------------------
 #p ccsd(t,maxcyc=200)/6-311++G(d,p)
 -----------------------------------

 -------------
 ccsd(t) iener
 -------------
 Symbolic Z-matrix:
 Charge =  1 Multiplicity = 3

                         Standard orientation:
 ---------------------------------------------------------------------
 Center     Atomic      Atomic             Coordinates (Angstroms)
 Number     Number       Type             X           Y           Z
 ---------------------------------------------------------------------
      1          6           0        0.007368   -1.059030   -0.000000
      2          6           0        1.050297    0.025634    0.000000
      3          6           0        0.000000    0.908351    0.000000
      4          1           0       -0.077812    1.994675    0.000000
      5          6           0       -1.045340   -0.181698   -0.000000
      6          1           0       -2.126257   -0.220708   -0.000000
      7          1           0        2.130117    0.066491    0.000000
 ---------------------------------------------------------------------

 SCF Done:  E(UHF) =  -152.786490251     A.U. after   24 cycles
 E2 =    -0.4632004738D+00 EUMP2 =    -0.15324969072463D+03
 CCSD(T)
 CCSD(T)= -0.15331643647D+03

 The electronic state is 3-A".
 Alpha  occ. eigenvalues --  -11.60557 -11.56519 -11.53598 -11.52354  -1.49669
 Alpha  occ. eigenvalues --   -1.20581  -1.12025  -0.97243  -0.93172  -0.84758
 Alpha  occ. eigenvalues --   -0.81497  -0.79834  -0.69841  -0.58711
 Alpha virt. eigenvalues --   -0.20415  -0.09132  -0.07532  -0.07109  -0.04627
 Alpha virt. eigenvalues --   -0.03904  -0.03656  -0.02260  -0.02073  -0.00066
 Alpha virt. eigenvalues --    0.00318   0.01210   0.01563   0.04427   0.04869

  Beta  occ. eigenvalues --  -11.57694 -11.56898 -11.52171 -11.50568  -1.44567
  Beta  occ. eigenvalues --   -1.13691  -1.08293  -0.94728  -0.85797  -0.81659
  Beta  occ. eigenvalues --   -0.78710  -0.68953
  Beta virt. eigenvalues --   -0.20871  -0.17396  -0.15276  -0.08987  -0.07295
  Beta virt. eigenvalues --   -0.06246  -0.04223  -0.02570  -0.01974  -0.01679
  Beta virt. eigenvalues --    0.01002   0.01018   0.01486   0.01885   0.02083

 Mulliken charges and spin densities:
               1          2
     1  C    0.659555   0.568652
     2  C   -0.480429   1.023742
     3  C    0.374094  -0.478596
     4  H    0.334747   0.049533
     5  C   -0.461339   0.902474
     6  H    0.288783  -0.021173
     7  H    0.284589  -0.044633
 Sum of Mulliken charges =   1.00000   2.00000

 Dipole moment (field-independent basis, Debye):
    X=             -0.3079    Y=              0.8395    Z=              0.0000  Tot=              0.8942
 Quadrupole moment (field-independent basis, Debye-Ang):
   XX=            -12.7960   YY=            -15.3378   ZZ=            -22.0563
   XY=              0.2710   XZ=              0.0000   YZ=             -0.0000

 -153.2831254\MP4SDQ=-153.2860311\CCSD=-153.2912406\CCSD(T)=-153.316436
 Normal termination of Gaussian 09 at Tue Oct 10 10:16:10 2017.
