 Gaussian 09, Revision E.01,
 Gaussian 09:  ES64L-G09RevE.01 30-Nov-2015

 -----------------------------------
 #p ccsd(t,maxcyc=200)/6-311++G(d,p)
 -----------------------------------

 -------------
 ccsd(t) iener
 -------------
 Symbolic Z-matrix:
 Charge =  1 Multiplicity = 3

                         Standard orientation:
 ---------------------------------------------------------------------
 Center     Atomic      Atomic             Coordinates (Angstroms)
 Number     Number       Type             X           Y           Z
 ---------------------------------------------------------------------
      1          6           0       -0.445182   -0.333011   -0.000672
      2          6           0        0.790288    0.277274   -0.000334
      3          1           0        0.908154    1.384976   -0.000576
      4          6           0        2.040451   -0.243396    0.000554
      5          6           0       -1.765943    0.016101    0.000303
      6          1           0       -2.084906    1.061896    0.001046
      7          1           0       -2.540933   -0.748680    0.000426
 ---------------------------------------------------------------------

 SCF Done:  E(UHF) =  -152.733111562     A.U. after   33 cycles
 E2 =    -0.4312879761D+00 EUMP2 =    -0.15316439953847D+03
 CCSD(T)
 CCSD(T)= -0.15324230704D+03

 The electronic state is 3-A.
 Alpha  occ. eigenvalues --  -11.58349 -11.57953 -11.56203 -11.50688  -1.39832
 Alpha  occ. eigenvalues --   -1.30112  -1.10582  -0.96549  -0.91343  -0.88029
 Alpha  occ. eigenvalues --   -0.75395  -0.71853  -0.66753  -0.63705
 Alpha virt. eigenvalues --   -0.19215  -0.16854  -0.09476  -0.07491  -0.06031
 Alpha virt. eigenvalues --   -0.05316  -0.03309  -0.02877  -0.01675  -0.00685
 Alpha virt. eigenvalues --    0.00191   0.01589   0.03349   0.04152   0.04602

  Beta  occ. eigenvalues --  -11.57284 -11.55196 -11.54926 -11.51198  -1.34447
  Beta  occ. eigenvalues --   -1.23641  -1.05988  -0.91153  -0.88235  -0.85159
  Beta  occ. eigenvalues --   -0.68937  -0.67407
  Beta virt. eigenvalues --   -0.25621  -0.16197  -0.14854  -0.09514  -0.08812
  Beta virt. eigenvalues --   -0.07314  -0.05507  -0.03185  -0.02316  -0.02021
  Beta virt. eigenvalues --   -0.01275  -0.00157   0.01085   0.02216   0.03653

 Mulliken charges and spin densities:
               1          2
     1  C    0.556662   0.986720
     2  C   -0.492699  -0.186281
     3  H    0.299525   0.075757
     4  C    0.488757   0.508773
     5  C   -0.361171   0.622301
     6  H    0.240483   0.016314
     7  H    0.268443  -0.023585
 Sum of Mulliken charges =   1.00000   2.00000

 Dipole moment (field-independent basis, Debye):
    X=             -3.2505    Y=              1.1859    Z=              0.0000  Tot=              3.4600
 Quadrupole moment (field-independent basis, Debye-Ang):
   XX=             -9.8195   YY=            -17.9123   ZZ=            -22.7865
   XY=              1.7321   XZ=             -0.0047   YZ=             -0.0004

 53.2148932\CCSD=-153.2201936\CCSD(T)=-153.242307\S2=2.122392\S2-1=2.08
 Normal termination of Gaussian 09 at Tue Oct 10 10:19:55 2017.
