 Gaussian 09, Revision E.01,
 Gaussian 09:  ES64L-G09RevE.01 30-Nov-2015

 -----------------------------------
 #p ccsd(t,maxcyc=200)/6-311++G(d,p)
 -----------------------------------

 -------------
 ccsd(t) iener
 -------------
 Symbolic Z-matrix:
 Charge =  1 Multiplicity = 1

                         Standard orientation:
 ---------------------------------------------------------------------
 Center     Atomic      Atomic             Coordinates (Angstroms)
 Number     Number       Type             X           Y           Z
 ---------------------------------------------------------------------
      1          6           0        0.000000    0.302431   -0.000000
      2          6           0        1.346164    0.368779   -0.000000
      3          6           0       -0.803405    1.380783    0.000000
      4          6           0       -0.342216   -1.265096    0.000000
      5          1           0        0.593471   -1.833521   -0.000000
      6          1           0       -0.898368   -1.443931    0.919776
      7          1           0       -0.898368   -1.443931   -0.919776
 ---------------------------------------------------------------------

 SCF Done:  E(RHF) =  -152.671777115     A.U. after   15 cycles
 E2 =    -0.4715704551D+00 EUMP2 =    -0.15314334756967D+03
 CCSD(T)
 CCSD(T)= -0.15322242343D+03

 The electronic state is 1-A'.
 Alpha  occ. eigenvalues --  -11.66174 -11.66148 -11.51907 -11.51070  -1.42071
 Alpha  occ. eigenvalues --   -1.20443  -1.15589  -0.85313  -0.84391  -0.80762
 Alpha  occ. eigenvalues --   -0.76738  -0.74243  -0.69917
 Alpha virt. eigenvalues --   -0.25156  -0.23765  -0.18764  -0.09261  -0.07348
 Alpha virt. eigenvalues --   -0.05492  -0.04028  -0.03512  -0.02659  -0.02106
 Alpha virt. eigenvalues --   -0.01348  -0.00213   0.00893   0.01316   0.03935

 Mulliken charges:
               1
     1  C   -0.317062
     2  C    0.548567
     3  C    0.750375
     4  C   -0.673308
     5  H    0.231476
     6  H    0.229976
     7  H    0.229976
 Sum of Mulliken charges =   1.00000

 Dipole moment (field-independent basis, Debye):
    X=             -0.3206    Y=             -0.3932    Z=             -0.0000  Tot=              0.5073
 Quadrupole moment (field-independent basis, Debye-Ang):
   XX=            -20.0828   YY=            -15.5917   ZZ=            -21.1148
   XY=              1.4959   XZ=              0.0000   YZ=              0.0000

 53.1904526\CCSD=-153.1934091\CCSD(T)=-153.2224234\RMSD=8.100e-09\PG=CS
 Normal termination of Gaussian 09 at Tue Oct 10 10:06:50 2017.
