 Gaussian 09, Revision E.01,
 Gaussian 09:  ES64L-G09RevE.01 30-Nov-2015

 -----------------------------------
 #p ccsd(t,maxcyc=200)/6-311++G(d,p)
 -----------------------------------

 -------------
 ccsd(t) iener
 -------------
 Symbolic Z-matrix:
 Charge =  0 Multiplicity = 2

                         Standard orientation:
 ---------------------------------------------------------------------
 Center     Atomic      Atomic             Coordinates (Angstroms)
 Number     Number       Type             X           Y           Z
 ---------------------------------------------------------------------
      1          6           0       -0.165172   -0.036374   -0.004134
      2          6           0        1.056558   -0.825833   -0.066724
      3          6           0        1.072460    0.545567    0.036482
      4          1           0        1.627870    1.461893    0.172954
      5          6           0       -1.538163    0.046856    0.002388
      6          1           0       -2.132796   -0.748370    0.436407
      7          1           0       -2.049166    0.905180   -0.417435
 ---------------------------------------------------------------------

 SCF Done:  E(UHF) =  -153.077052217     A.U. after   29 cycles
 E2 =    -0.4961300524D+00 EUMP2 =    -0.15357318226979D+03
 CCSD(T)
 CCSD(T)= -0.15363411109D+03

 The electronic state is 2-A.
 Alpha  occ. eigenvalues --  -11.28554 -11.28182 -11.28101 -11.24861  -1.21735
 Alpha  occ. eigenvalues --   -1.04108  -0.79041  -0.73194  -0.65497  -0.59950
 Alpha  occ. eigenvalues --   -0.52606  -0.47940  -0.39503  -0.35141
 Alpha virt. eigenvalues --    0.03647   0.05103   0.06041   0.09468   0.10541
 Alpha virt. eigenvalues --    0.11264   0.11884   0.13696   0.15244   0.15769
 Alpha virt. eigenvalues --    0.16448   0.17185   0.18314   0.20214   0.20418

  Beta  occ. eigenvalues --  -11.29131 -11.27619 -11.26050 -11.24659  -1.20664
  Beta  occ. eigenvalues --   -0.97421  -0.77835  -0.71594  -0.64092  -0.58763
  Beta  occ. eigenvalues --   -0.48196  -0.46464  -0.35747
  Beta virt. eigenvalues --    0.02620   0.03792   0.05228   0.06093   0.09594
  Beta virt. eigenvalues --    0.10774   0.11759   0.12147   0.15053   0.15513
  Beta virt. eigenvalues --    0.16461   0.17147   0.18433   0.19106   0.20594

 Mulliken charges and spin densities:
               1          2
     1  C    0.229126  -0.418996
     2  C   -0.235584   0.077019
     3  C   -0.008253   0.300820
     4  H    0.197648  -0.009301
     5  C   -0.488789   1.237288
     6  H    0.151419  -0.094375
     7  H    0.154434  -0.092456
 Sum of Mulliken charges =  -0.00000   1.00000

 Dipole moment (field-independent basis, Debye):
    X=             -2.1921    Y=              3.1232    Z=              0.3540  Tot=              3.8321
 Quadrupole moment (field-independent basis, Debye-Ang):
   XX=            -22.6735   YY=            -26.1737   ZZ=            -24.5234
   XY=              5.1182   XZ=              0.5178   YZ=             -0.9385

 44\CCSD=-153.6086413\CCSD(T)=-153.6341111\S2=0.816865\S2-1=0.790475\S2
 Normal termination of Gaussian 09 at Tue Oct 10 09:36:27 2017.
