 Gaussian 09, Revision E.01,
 Gaussian 09:  ES64L-G09RevE.01 30-Nov-2015

 -----------------------------------
 #p ccsd(t,maxcyc=200)/6-311++G(d,p)
 -----------------------------------

 -------------
 ccsd(t) iener
 -------------
 Symbolic Z-matrix:
 Charge =  1 Multiplicity = 3

                         Standard orientation:
 ---------------------------------------------------------------------
 Center     Atomic      Atomic             Coordinates (Angstroms)
 Number     Number       Type             X           Y           Z
 ---------------------------------------------------------------------
      1          6           0       -0.767284    1.350422    0.000000
      2          1           0       -1.850407    1.299257    0.000000
      3          1           0       -0.270973    2.315662    0.000000
      4          6           0       -0.000000    0.185586    0.000000
      5          6           0        0.036693   -1.243481    0.000000
      6          1           0       -0.547450   -2.155367    0.000000
      7          6           0        1.175396   -0.535785    0.000000
 ---------------------------------------------------------------------

 SCF Done:  E(UHF) =  -152.804595789     A.U. after   20 cycles
 E2 =    -0.4608267730D+00 EUMP2 =    -0.15326542256218D+03
 CCSD(T)
 CCSD(T)= -0.15332446752D+03

 The electronic state is 3-A".
 Alpha  occ. eigenvalues --  -11.58881 -11.57321 -11.57022 -11.50578  -1.51341
 Alpha  occ. eigenvalues --   -1.27406  -1.05760  -0.98340  -0.91242  -0.84976
 Alpha  occ. eigenvalues --   -0.79984  -0.79956  -0.68762  -0.62571
 Alpha virt. eigenvalues --   -0.13213  -0.09267  -0.07934  -0.07263  -0.06340
 Alpha virt. eigenvalues --   -0.03626  -0.03391  -0.03331  -0.01331  -0.00139
 Alpha virt. eigenvalues --    0.01151   0.02378   0.02586   0.04104   0.04725

  Beta  occ. eigenvalues --  -11.57383 -11.56662 -11.55435 -11.48697  -1.48555
  Beta  occ. eigenvalues --   -1.19808  -1.03457  -0.92838  -0.85935  -0.79379
  Beta  occ. eigenvalues --   -0.75300  -0.74276
  Beta virt. eigenvalues --   -0.20267  -0.19892  -0.08913  -0.08800  -0.06939
  Beta virt. eigenvalues --   -0.05778  -0.05443  -0.03390  -0.02487  -0.00978
  Beta virt. eigenvalues --    0.00040   0.01650   0.02791   0.03306   0.04028

 Mulliken charges and spin densities:
               1          2
     1  C   -0.345640   1.142876
     2  H    0.246251  -0.083218
     3  H    0.233810  -0.072642
     4  C    0.324669  -0.061648
     5  C   -0.067389   0.234933
     6  H    0.314005  -0.005790
     7  C    0.294294   0.845490
 Sum of Mulliken charges =   1.00000   2.00000

 Dipole moment (field-independent basis, Debye):
    X=             -0.8410    Y=             -0.8320    Z=              0.0000  Tot=              1.1830
 Quadrupole moment (field-independent basis, Debye-Ang):
   XX=            -16.6399   YY=             -9.5693   ZZ=            -21.7453
   XY=             -1.3896   XZ=              0.0000   YZ=              0.0000

 =-153.2952992\MP4SDQ=-153.2987025\CCSD=-153.3008618\CCSD(T)=-153.32446
 Normal termination of Gaussian 09 at Tue Oct 10 10:42:47 2017.
