 Gaussian 09, Revision E.01,
 Gaussian 09:  ES64L-G09RevE.01 30-Nov-2015

 -----------------------------------
 #p ccsd(t,maxcyc=200)/6-311++G(d,p)
 -----------------------------------

 -------------
 ccsd(t) iener
 -------------
 Symbolic Z-matrix:
 Charge =  0 Multiplicity = 2

                         Standard orientation:
 ---------------------------------------------------------------------
 Center     Atomic      Atomic             Coordinates (Angstroms)
 Number     Number       Type             X           Y           Z
 ---------------------------------------------------------------------
      1          6           0        1.118997   -0.521756    0.000035
      2          1           0       -2.215067   -0.414154    0.000080
      3          6           0        0.750100    0.790297    0.000017
      4          6           0       -1.142496   -0.343747    0.000079
      5          6           0       -0.119035   -1.221081   -0.000083
      6          1           0        2.121314   -0.916831    0.000029
      7          1           0        1.309493    1.710943    0.000020
      8          8           0       -0.607642    0.924720   -0.000053
 ---------------------------------------------------------------------

 SCF Done:  E(UHF) =  -228.026918076     A.U. after   26 cycles
 E2 =    -0.6935105533D+00 EUMP2 =    -0.22872042862949D+03
 CCSD(T)
 CCSD(T)= -0.22879733539D+03

 The electronic state is 2-A.
 Alpha  occ. eigenvalues --  -20.62149 -11.30302 -11.28337 -11.27371 -11.23989
 Alpha  occ. eigenvalues --   -1.46117  -1.10723  -1.01461  -0.80617  -0.78682
 Alpha  occ. eigenvalues --   -0.73372  -0.63641  -0.61343  -0.59223  -0.55314
 Alpha  occ. eigenvalues --   -0.46813  -0.42848  -0.34169
 Alpha virt. eigenvalues --    0.04209   0.04990   0.05653   0.10282   0.10356
 Alpha virt. eigenvalues --    0.11552   0.12532   0.14833   0.14964   0.15754
 Alpha virt. eigenvalues --    0.16067   0.16758   0.18071   0.18907   0.19614

  Beta  occ. eigenvalues --  -20.61962 -11.29585 -11.29126 -11.24890 -11.23517
  Beta  occ. eigenvalues --   -1.45371  -1.07641  -1.00527  -0.80063  -0.76950
  Beta  occ. eigenvalues --   -0.69006  -0.63738  -0.60867  -0.58391  -0.54064
  Beta  occ. eigenvalues --   -0.40785  -0.34563
  Beta virt. eigenvalues --    0.03938   0.04583   0.05292   0.07154   0.10480
  Beta virt. eigenvalues --    0.11545   0.13011   0.13040   0.14854   0.15137
  Beta virt. eigenvalues --    0.16229   0.16392   0.16971   0.18139   0.19399

 Mulliken charges and spin densities:
               1          2
     1  C   -0.365524  -0.364623
     2  H    0.196098   0.058473
     3  C   -0.044391   0.501884
     4  C   -0.329229  -0.564562
     5  C    0.304232   1.331100
     6  H    0.178000   0.047128
     7  H    0.212564  -0.043350
     8  O   -0.151750   0.033950
 Sum of Mulliken charges =  -0.00000   1.00000

 Dipole moment (field-independent basis, Debye):
    X=              0.7017    Y=             -0.1566    Z=              0.0001  Tot=              0.7190
 Quadrupole moment (field-independent basis, Debye-Ang):
   XX=            -23.8238   YY=            -29.0440   ZZ=            -31.6526
   XY=              1.8390   XZ=             -0.0002   YZ=              0.0001

 3-0=-228.754124\MP4SDQ=-228.7537285\CCSD=-228.7626367\CCSD(T)=-228.797
 Normal termination of Gaussian 09 at Tue Oct 10 08:53:31 2017.
