 Gaussian 09, Revision E.01,
 Gaussian 09:  ES64L-G09RevE.01 30-Nov-2015

 -----------------------------------
 #p ccsd(t,maxcyc=200)/6-311++G(d,p)
 -----------------------------------

 -------------
 ccsd(t) iener
 -------------
 Symbolic Z-matrix:
 Charge =  0 Multiplicity = 2

                         Standard orientation:
 ---------------------------------------------------------------------
 Center     Atomic      Atomic             Coordinates (Angstroms)
 Number     Number       Type             X           Y           Z
 ---------------------------------------------------------------------
      1          6           0        1.087377   -0.085479    0.095521
      2          6           0       -0.181094   -0.776145   -0.292679
      3          6           0       -1.273445   -0.155333    0.184133
      4          1           0        1.455314   -0.312557    1.091055
      5          1           0        1.871039    0.035986   -0.650585
      6          6           0       -0.149501    0.778194    0.028408
      7          1           0       -0.226376    1.709149   -0.532768
 ---------------------------------------------------------------------

 SCF Done:  E(UHF) =  -153.028790708     A.U. after   26 cycles
 E2 =    -0.5149718228D+00 EUMP2 =    -0.15354376253047D+03
 CCSD(T)
 CCSD(T)= -0.15360479493D+03

 The electronic state is 2-A.
 Alpha  occ. eigenvalues --  -11.31534 -11.30846 -11.29833 -11.24904  -1.26638
 Alpha  occ. eigenvalues --   -0.96447  -0.84950  -0.71095  -0.68322  -0.59907
 Alpha  occ. eigenvalues --   -0.52756  -0.47154  -0.40774  -0.37033
 Alpha virt. eigenvalues --    0.03669   0.05275   0.05873   0.08574   0.10864
 Alpha virt. eigenvalues --    0.11334   0.12222   0.13261   0.13545   0.15436
 Alpha virt. eigenvalues --    0.15593   0.18071   0.18880   0.20017   0.20055

  Beta  occ. eigenvalues --  -11.30297 -11.29927 -11.28603 -11.25151  -1.24717
  Beta  occ. eigenvalues --   -0.96815  -0.80220  -0.69422  -0.64574  -0.54771
  Beta  occ. eigenvalues --   -0.52051  -0.42967  -0.38499
  Beta virt. eigenvalues --    0.03436   0.04582   0.05574   0.05992   0.08705
  Beta virt. eigenvalues --    0.11343   0.11943   0.12814   0.13891   0.15025
  Beta virt. eigenvalues --    0.15195   0.17265   0.18178   0.19065   0.20119

 Mulliken charges and spin densities:
               1          2
     1  C   -0.508362  -0.043167
     2  C    0.273681   0.731584
     3  C   -0.274355  -0.247195
     4  H    0.165852   0.007393
     5  H    0.133389   0.014850
     6  C    0.030490   0.527762
     7  H    0.179304   0.008772
 Sum of Mulliken charges =  -0.00000   1.00000

 Dipole moment (field-independent basis, Debye):
    X=              3.8515    Y=              0.9841    Z=             -0.4767  Tot=              4.0037
 Quadrupole moment (field-independent basis, Debye-Ang):
   XX=            -28.7532   YY=            -23.1589   ZZ=            -23.9629
   XY=             -0.7648   XZ=              0.9206   YZ=             -1.2630

 CCSD=-153.5766604\CCSD(T)=-153.6047949\S2=0.856489\S2-1=0.819668\S2A=0
 Normal termination of Gaussian 09 at Tue Oct 10 09:22:16 2017.
