 Gaussian 09, Revision E.01,
 Gaussian 09:  ES64L-G09RevE.01 30-Nov-2015

 -----------------------------------
 #p ccsd(t,maxcyc=200)/6-311++G(d,p)
 -----------------------------------

 -------------
 ccsd(t) iener
 -------------
 Symbolic Z-matrix:
 Charge =  1 Multiplicity = 3

                         Standard orientation:
 ---------------------------------------------------------------------
 Center     Atomic      Atomic             Coordinates (Angstroms)
 Number     Number       Type             X           Y           Z
 ---------------------------------------------------------------------
      1          6           0       -0.915707   -0.351414   -0.000000
      2          6           0        0.203412   -0.291010    0.870267
      3          1           0        0.776931   -0.782970    1.643471
      4          6           0        0.203412    0.869701    0.000000
      5          1           0        0.278959    1.948344    0.000000
      6          6           0        0.203412   -0.291010   -0.870267
      7          1           0        0.776931   -0.782970   -1.643471
 ---------------------------------------------------------------------

 SCF Done:  E(UHF) =  -152.715455631     A.U. after   18 cycles
 E2 =    -0.4895704492D+00 EUMP2 =    -0.15320502608024D+03
 CCSD(T)
 CCSD(T)= -0.15325806201D+03

 The electronic state is 3-A'.
 Alpha  occ. eigenvalues --  -11.59633 -11.57328 -11.56335 -11.56310  -1.58325
 Alpha  occ. eigenvalues --   -1.13959  -1.12369  -1.05475  -0.95658  -0.86868
 Alpha  occ. eigenvalues --   -0.80580  -0.74339  -0.72909  -0.55692
 Alpha virt. eigenvalues --   -0.10392  -0.09417  -0.08764  -0.07630  -0.05980
 Alpha virt. eigenvalues --   -0.04290  -0.02343  -0.02207  -0.01128  -0.00853
 Alpha virt. eigenvalues --   -0.00607   0.01996   0.02187   0.03017   0.03854

  Beta  occ. eigenvalues --  -11.56651 -11.55940 -11.55648 -11.55643  -1.54931
  Beta  occ. eigenvalues --   -1.10246  -1.06940  -0.99853  -0.88533  -0.84747
  Beta  occ. eigenvalues --   -0.72050  -0.71972
  Beta virt. eigenvalues --   -0.21155  -0.15981  -0.08831  -0.08683  -0.07880
  Beta virt. eigenvalues --   -0.06733  -0.04452  -0.02277  -0.01270  -0.00048
  Beta virt. eigenvalues --    0.00017   0.01028   0.01672   0.02788   0.02799

 Mulliken charges and spin densities:
               1          2
     1  C    0.092844   1.084613
     2  C    0.002436   0.268459
     3  H    0.327126  -0.014366
     4  C   -0.083295   0.422758
     5  H    0.331325  -0.015557
     6  C    0.002436   0.268459
     7  H    0.327126  -0.014366
 Sum of Mulliken charges =   1.00000   2.00000

 Dipole moment (field-independent basis, Debye):
    X=              1.1254    Y=              0.1069    Z=              0.0000  Tot=              1.1304
 Quadrupole moment (field-independent basis, Debye-Ang):
   XX=            -19.4920   YY=            -15.6623   ZZ=            -15.3211
   XY=             -0.0264   XZ=              0.0000   YZ=             -0.0000

 2321884\CCSD(T)=-153.258062\S2=2.023199\S2-1=2.006201\S2A=2.000296\RMS
 Normal termination of Gaussian 09 at Tue Oct 10 10:27:28 2017.
