 Gaussian 09, Revision E.01,
 Gaussian 09:  ES64L-G09RevE.01 30-Nov-2015

 -----------------------------------
 #p ccsd(t,maxcyc=200)/6-311++G(d,p)
 -----------------------------------

 -------------
 ccsd(t) iener
 -------------
 Symbolic Z-matrix:
 Charge =  0 Multiplicity = 4

                         Standard orientation:
 ---------------------------------------------------------------------
 Center     Atomic      Atomic             Coordinates (Angstroms)
 Number     Number       Type             X           Y           Z
 ---------------------------------------------------------------------
      1          6           0        1.201792   -0.657491    0.105793
      2          6           0        1.200800    0.657722    0.105870
      3          6           0       -0.051625   -0.000018   -0.431512
      4          6           0       -1.445190   -0.000205    0.104055
      5          1           0       -1.467251   -0.007878    1.202723
      6          1           0       -1.981189    0.886205   -0.247696
      7          1           0       -1.986223   -0.878376   -0.260271
 ---------------------------------------------------------------------

 SCF Done:  E(UHF) =  -152.966924939     A.U. after   35 cycles
 E2 =    -0.4947658885D+00 EUMP2 =    -0.15346169082736D+03
 CCSD(T)
 CCSD(T)= -0.15352361683D+03

 The electronic state is 4-A.
 Alpha  occ. eigenvalues --  -11.32043 -11.31824 -11.29842 -11.23994  -1.22186
 Alpha  occ. eigenvalues --   -1.00653  -0.77309  -0.72593  -0.61356  -0.60201
 Alpha  occ. eigenvalues --   -0.57992  -0.53327  -0.48469  -0.39575  -0.32570
 Alpha virt. eigenvalues --    0.04486   0.07056   0.07064   0.08749   0.09167
 Alpha virt. eigenvalues --    0.10062   0.10469   0.13248   0.14318   0.16250
 Alpha virt. eigenvalues --    0.16992   0.17763   0.18421   0.19259   0.20471

  Beta  occ. eigenvalues --  -11.29275 -11.29080 -11.26528 -11.24003  -1.14715
  Beta  occ. eigenvalues --   -0.98135  -0.67157  -0.58923  -0.57638  -0.51988
  Beta  occ. eigenvalues --   -0.49434  -0.41764
  Beta virt. eigenvalues --   -0.01406   0.04714   0.05548   0.07240   0.07678
  Beta virt. eigenvalues --    0.09699   0.10576   0.11506   0.11815   0.12756
  Beta virt. eigenvalues --    0.13644   0.16162   0.17122   0.18373   0.18585

 Mulliken charges and spin densities:
               1          2
     1  C   -0.099015   0.860253
     2  C   -0.101842   0.909607
     3  C    0.473572   1.166062
     4  C   -0.684538  -0.033982
     5  H    0.125095   0.063245
     6  H    0.143299   0.017396
     7  H    0.143429   0.017419
 Sum of Mulliken charges =  -0.00000   3.00000

 Dipole moment (field-independent basis, Debye):
    X=             -1.2031    Y=              0.0062    Z=              0.6406  Tot=              1.3630
 Quadrupole moment (field-independent basis, Debye-Ang):
   XX=            -24.3407   YY=            -23.9316   ZZ=            -25.5766
   XY=              0.0051   XZ=              0.3121   YZ=             -0.0031

 78\CCSD=-153.4963398\CCSD(T)=-153.5236168\S2=3.781594\S2-1=3.757123\S2
 Normal termination of Gaussian 09 at Tue Oct 10 09:44:20 2017.
