 Gaussian 09, Revision E.01,
 Gaussian 09:  ES64L-G09RevE.01 30-Nov-2015

 -----------------------------------
 #p ccsd(t,maxcyc=200)/6-311++G(d,p)
 -----------------------------------

 -------------
 ccsd(t) iener
 -------------
 Symbolic Z-matrix:
 Charge =  1 Multiplicity = 3

                         Standard orientation:
 ---------------------------------------------------------------------
 Center     Atomic      Atomic             Coordinates (Angstroms)
 Number     Number       Type             X           Y           Z
 ---------------------------------------------------------------------
      1          6           0       -0.000000    0.000000   -1.892186
      2          1           0        0.000000    0.934698   -2.454996
      3          1           0       -0.000000   -0.934698   -2.454996
      4          6           0       -0.000000    0.000000   -0.539503
      5          6           0        0.000000   -0.000000    0.736700
      6          6           0        0.000000   -0.000000    2.001017
      7          1           0        0.000000   -0.000000    3.073829
 ---------------------------------------------------------------------

 SCF Done:  E(UHF) =  -152.818246650     A.U. after   21 cycles
 E2 =    -0.4393965156D+00 EUMP2 =    -0.15325764316570D+03
 CCSD(T)
 CCSD(T)= -0.15333480492D+03

 The electronic state is 3-A2.
 Alpha  occ. eigenvalues --  -11.55772 -11.54599 -11.53167 -11.50217  -1.37080
 Alpha  occ. eigenvalues --   -1.30099  -1.15598  -0.96429  -0.93035  -0.89622
 Alpha  occ. eigenvalues --   -0.74556  -0.74052  -0.64957  -0.59830
 Alpha virt. eigenvalues --   -0.18847  -0.09253  -0.07081  -0.06060  -0.03894
 Alpha virt. eigenvalues --   -0.03636  -0.02326  -0.01793   0.00058   0.01162
 Alpha virt. eigenvalues --    0.02332   0.04378   0.04519   0.04776   0.06755

  Beta  occ. eigenvalues --  -11.54856 -11.52613 -11.52221 -11.49744  -1.33146
  Beta  occ. eigenvalues --   -1.22511  -1.10038  -0.93379  -0.90897  -0.85438
  Beta  occ. eigenvalues --   -0.69112  -0.68264
  Beta virt. eigenvalues --   -0.24438  -0.14303  -0.09374  -0.09039  -0.06795
  Beta virt. eigenvalues --   -0.05809  -0.03710  -0.02709  -0.01274  -0.01197
  Beta virt. eigenvalues --    0.00434   0.02873   0.03933   0.05139   0.05493

 Mulliken charges and spin densities:
               1          2
     1  C   -0.609739   0.701479
     2  H    0.230704  -0.007492
     3  H    0.230704  -0.007492
     4  C    0.587221   0.823850
     5  C    2.381074  -0.945882
     6  C   -2.064816   1.536160
     7  H    0.244853  -0.100622
 Sum of Mulliken charges =   1.00000   2.00000

 Dipole moment (field-independent basis, Debye):
    X=             -0.0000    Y=             -0.0000    Z=             -0.9049  Tot=              0.9049
 Quadrupole moment (field-independent basis, Debye-Ang):
   XX=            -21.8113   YY=            -21.0154   ZZ=              5.1657
   XY=              0.0000   XZ=              0.0000   YZ=              0.0000

 108961\CCSD(T)=-153.3348049\S2=2.350191\S2-1=2.239383\S2A=2.056594\RMS
 Normal termination of Gaussian 09 at Tue Oct 10 10:31:01 2017.
