 Gaussian 09, Revision E.01,
 Gaussian 09:  ES64L-G09RevE.01 30-Nov-2015

 -----------------------------------
 #p ccsd(t,maxcyc=200)/6-311++G(d,p)
 -----------------------------------

 -------------
 ccsd(t) iener
 -------------
 Symbolic Z-matrix:
 Charge =  0 Multiplicity = 2

                         Standard orientation:
 ---------------------------------------------------------------------
 Center     Atomic      Atomic             Coordinates (Angstroms)
 Number     Number       Type             X           Y           Z
 ---------------------------------------------------------------------
      1          6           0       -1.553577   -0.367659   -0.009679
      2          1           0       -1.377449   -1.435728    0.035750
      3          1           0       -2.579035   -0.019624   -0.059177
      4          6           0       -0.509614    0.512555   -0.003603
      5          1           0       -0.717180    1.579766   -0.057466
      6          6           0        0.814063    0.101550    0.078459
      7          6           0        2.028073   -0.267182   -0.051695
 ---------------------------------------------------------------------

 SCF Done:  E(UHF) =  -153.083031769     A.U. after   33 cycles
 E2 =    -0.4778464878D+00 EUMP2 =    -0.15356087825664D+03
 CCSD(T)
 CCSD(T)= -0.15363615458D+03

 The electronic state is 2-A.
 Alpha  occ. eigenvalues --  -11.28817 -11.28664 -11.27530 -11.26960  -1.13101
 Alpha  occ. eigenvalues --   -1.04082  -0.87458  -0.72289  -0.65596  -0.58040
 Alpha  occ. eigenvalues --   -0.51299  -0.45740  -0.40856  -0.40299
 Alpha virt. eigenvalues --    0.03292   0.05420   0.05974   0.06341   0.10906
 Alpha virt. eigenvalues --    0.11833   0.12529   0.12877   0.13666   0.13870
 Alpha virt. eigenvalues --    0.16136   0.16713   0.18027   0.19487   0.20073

  Beta  occ. eigenvalues --  -11.29997 -11.27250 -11.27179 -11.25496  -1.11651
  Beta  occ. eigenvalues --   -0.97802  -0.85843  -0.71881  -0.64846  -0.57357
  Beta  occ. eigenvalues --   -0.46288  -0.44123  -0.38986
  Beta virt. eigenvalues --   -0.00440   0.03347   0.05448   0.06174   0.08010
  Beta virt. eigenvalues --    0.11941   0.12499   0.12740   0.13739   0.14193
  Beta virt. eigenvalues --    0.15416   0.16979   0.18033   0.18462   0.20005

 Mulliken charges and spin densities:
               1          2
     1  C   -0.449713   0.863839
     2  H    0.169563  -0.062600
     3  H    0.161444  -0.068304
     4  C   -0.106258  -0.662752
     5  H    0.204395   0.058009
     6  C    0.064249   0.505653
     7  C   -0.043679   0.366155
 Sum of Mulliken charges =  -0.00000   1.00000

 Dipole moment (field-independent basis, Debye):
    X=             -4.3447    Y=              0.7344    Z=              0.2671  Tot=              4.4144
 Quadrupole moment (field-independent basis, Debye-Ang):
   XX=            -29.5178   YY=            -23.2723   ZZ=            -25.1660
   XY=              1.3517   XZ=              1.0286   YZ=             -0.2625

 477\CCSD=-153.6112839\CCSD(T)=-153.6361546\S2=1.009894\S2-1=0.941993\S
 Normal termination of Gaussian 09 at Tue Oct 10 09:31:34 2017.
