 Gaussian 09, Revision E.01,
 Gaussian 09:  ES64L-G09RevE.01 30-Nov-2015

 -----------------------------------
 #p ccsd(t,maxcyc=200)/6-311++G(d,p)
 -----------------------------------

 -------------
 ccsd(t) iener
 -------------
 Symbolic Z-matrix:
 Charge =  1 Multiplicity = 1

                         Standard orientation:
 ---------------------------------------------------------------------
 Center     Atomic      Atomic             Coordinates (Angstroms)
 Number     Number       Type             X           Y           Z
 ---------------------------------------------------------------------
      1          6           0       -0.786763    0.755416   -0.021957
      2          6           0        0.102795   -1.062285    0.247006
      3          8           0       -1.085520   -0.553107   -0.117446
      4          6           0        1.216660   -0.333580   -0.127901
      5          6           0        0.619028    0.931723    0.015635
      6          1           0       -1.605685    1.432756    0.187702
      7          1           0        2.256939   -0.620606   -0.161592
      8          1           0        1.122584    1.865058    0.236759
 ---------------------------------------------------------------------

 SCF Done:  E(RHF) =  -227.677628934     A.U. after   21 cycles
 E2 =    -0.7112646894D+00 EUMP2 =    -0.22838889362328D+03
 CCSD(T)
 CCSD(T)= -0.22845952805D+03

 The electronic state is 1-A.
 Alpha  occ. eigenvalues --  -20.91602 -11.62592 -11.60844 -11.54001 -11.52170
 Alpha  occ. eigenvalues --   -1.77069  -1.38927  -1.25768  -1.07911  -1.04570
 Alpha  occ. eigenvalues --   -0.98210  -0.91607  -0.87809  -0.84096  -0.82716
 Alpha  occ. eigenvalues --   -0.66516  -0.61231
 Alpha virt. eigenvalues --   -0.24445  -0.11529  -0.09205  -0.07461  -0.06562
 Alpha virt. eigenvalues --   -0.05829  -0.04504  -0.03013  -0.02262  -0.00991
 Alpha virt. eigenvalues --    0.00043   0.00944   0.01699   0.02761   0.03921

 Mulliken charges:
               1
     1  C   -0.121986
     2  C    0.279694
     3  O    0.050616
     4  C   -0.221644
     5  C    0.098106
     6  H    0.306393
     7  H    0.302082
     8  H    0.306740
 Sum of Mulliken charges =   1.00000

 Dipole moment (field-independent basis, Debye):
    X=              1.4084    Y=              2.3633    Z=             -0.4218  Tot=              2.7833
 Quadrupole moment (field-independent basis, Debye-Ang):
   XX=            -16.9555   YY=            -19.6423   ZZ=            -27.9418
   XY=             -3.6895   XZ=             -0.8171   YZ=              2.3707

 Normal termination of Gaussian 09 at Tue Oct 10 08:44:50 2017.
