 Gaussian 09, Revision E.01,
 Gaussian 09:  ES64L-G09RevE.01 30-Nov-2015

 -----------------------------------
 #p ccsd(t,maxcyc=200)/6-311++G(d,p)
 -----------------------------------

 -------------
 ccsd(t) iener
 -------------
 Symbolic Z-matrix:
 Charge =  1 Multiplicity = 1

                         Standard orientation:
 ---------------------------------------------------------------------
 Center     Atomic      Atomic             Coordinates (Angstroms)
 Number     Number       Type             X           Y           Z
 ---------------------------------------------------------------------
      1          6           0        0.000000   -0.000000   -1.850477
      2          1           0        0.000000    0.936686   -2.414907
      3          1           0       -0.000000   -0.936686   -2.414907
      4          6           0        0.000000   -0.000000   -0.569461
      5          6           0       -0.000000    0.000000    0.747614
      6          6           0       -0.000000    0.000000    1.970099
      7          1           0       -0.000000    0.000000    3.043170
 ---------------------------------------------------------------------

 SCF Done:  E(RHF) =  -152.831433615     A.U. after   15 cycles
 E2 =    -0.5032460771D+00 EUMP2 =    -0.15333467969220D+03
 CCSD(T)
 CCSD(T)= -0.15339223384D+03

 The electronic state is 1-A1.
 Alpha  occ. eigenvalues --  -11.58229 -11.54477 -11.51560 -11.49743  -1.36195
 Alpha  occ. eigenvalues --   -1.28272  -1.13455  -0.96486  -0.92438  -0.86224
 Alpha  occ. eigenvalues --   -0.74911  -0.67776  -0.60915
 Alpha virt. eigenvalues --   -0.22148  -0.14662  -0.09158  -0.07132  -0.05991
 Alpha virt. eigenvalues --   -0.03932  -0.03125  -0.02910  -0.01930   0.00180
 Alpha virt. eigenvalues --    0.02898   0.02918   0.04532   0.05219   0.06296

 Mulliken charges:
               1
     1  C   -0.793967
     2  H    0.252079
     3  H    0.252079
     4  C    0.713456
     5  C    2.424951
     6  C   -2.104177
     7  H    0.255579
 Sum of Mulliken charges =   1.00000

 Dipole moment (field-independent basis, Debye):
    X=             -0.0000    Y=             -0.0000    Z=             -0.2421  Tot=              0.2421
 Quadrupole moment (field-independent basis, Debye-Ang):
   XX=            -23.6713   YY=            -19.4685   ZZ=              5.5467
   XY=              0.0000   XZ=              0.0000   YZ=             -0.0000

 81\CCSD=-153.3628373\CCSD(T)=-153.3922338\RMSD=3.498e-09\PG=C02V [C2(C
 Normal termination of Gaussian 09 at Tue Oct 10 10:09:36 2017.
