 Gaussian 09, Revision E.01,
 Gaussian 09:  ES64L-G09RevE.01 30-Nov-2015

 -----------------------------------
 #p ccsd(t,maxcyc=200)/6-311++G(d,p)
 -----------------------------------

 -------------
 ccsd(t) iener
 -------------
 Symbolic Z-matrix:
 Charge =  1 Multiplicity = 3

                         Standard orientation:
 ---------------------------------------------------------------------
 Center     Atomic      Atomic             Coordinates (Angstroms)
 Number     Number       Type             X           Y           Z
 ---------------------------------------------------------------------
      1          6           0       -0.596957   -0.977065    0.000000
      2          1           0       -1.496674   -1.578027    0.000000
      3          6           0        0.747789   -0.885403    0.000000
      4          1           0        1.718198   -1.364374    0.000000
      5          6           0       -0.000000    0.287044   -0.000000
      6          6           0       -0.053055    1.660008   -0.000000
      7          1           0       -0.808181    2.434899   -0.000000
 ---------------------------------------------------------------------

 SCF Done:  E(UHF) =  -152.828479056     A.U. after   19 cycles
 E2 =    -0.4528782308D+00 EUMP2 =    -0.15328135728718D+03
 CCSD(T)
 CCSD(T)= -0.15333750843D+03

 The electronic state is 3-A".
 Alpha  occ. eigenvalues --  -11.56026 -11.55465 -11.55203 -11.52010  -1.50160
 Alpha  occ. eigenvalues --   -1.27400  -1.05759  -1.01007  -0.93311  -0.81525
 Alpha  occ. eigenvalues --   -0.79467  -0.78828  -0.64791  -0.63129
 Alpha virt. eigenvalues --   -0.12464  -0.09218  -0.07372  -0.07366  -0.06768
 Alpha virt. eigenvalues --   -0.03795  -0.02891  -0.02513  -0.02158   0.00064
 Alpha virt. eigenvalues --    0.01691   0.02500   0.02759   0.04333   0.05100

  Beta  occ. eigenvalues --  -11.56565 -11.54942 -11.54791 -11.47377  -1.48834
  Beta  occ. eigenvalues --   -1.15256  -1.04462  -0.99092  -0.89320  -0.78170
  Beta  occ. eigenvalues --   -0.76129  -0.74294
  Beta virt. eigenvalues --   -0.18896  -0.11894  -0.10360  -0.09051  -0.06980
  Beta virt. eigenvalues --   -0.06088  -0.05732  -0.03587  -0.02013  -0.01391
  Beta virt. eigenvalues --    0.00597   0.02262   0.03046   0.03320   0.04024

 Mulliken charges and spin densities:
               1          2
     1  C    0.050962   0.193053
     2  H    0.310112  -0.008045
     3  C    0.098737   0.149957
     4  H    0.308783   0.000475
     5  C    0.132445  -0.268461
     6  C   -0.150330   2.017515
     7  H    0.249291  -0.084494
 Sum of Mulliken charges =   1.00000   2.00000

 Dipole moment (field-independent basis, Debye):
    X=             -0.4717    Y=             -1.2075    Z=              0.0000  Tot=              1.2964
 Quadrupole moment (field-independent basis, Debye-Ang):
   XX=            -14.7099   YY=            -10.1890   ZZ=            -21.6002
   XY=             -2.1577   XZ=              0.0000   YZ=             -0.0000

 153.3113946\MP4SDQ=-153.3142366\CCSD=-153.315793\CCSD(T)=-153.3375084\
 Normal termination of Gaussian 09 at Tue Oct 10 10:35:43 2017.
