 Gaussian 09, Revision E.01,
 Gaussian 09:  ES64L-G09RevE.01 30-Nov-2015

 -----------------------------------
 #p ccsd(t,maxcyc=200)/6-311++G(d,p)
 -----------------------------------

 -------------
 ccsd(t) iener
 -------------
 Symbolic Z-matrix:
 Charge =  1 Multiplicity = 1

                         Standard orientation:
 ---------------------------------------------------------------------
 Center     Atomic      Atomic             Coordinates (Angstroms)
 Number     Number       Type             X           Y           Z
 ---------------------------------------------------------------------
      1          6           0       -0.517257   -0.544943    0.220574
      2          1           0       -0.805082   -1.303040    0.955326
      3          6           0       -1.283387    0.470226   -0.223656
      4          6           0        0.879711   -0.681929   -0.420369
      5          6           0        0.773524    0.586878    0.169364
      6          1           0        0.415394    1.399605   -0.511197
      7          1           0        1.274141    0.922044    1.080395
 ---------------------------------------------------------------------

 SCF Done:  E(RHF) =  -152.664430272     A.U. after   16 cycles
 E2 =    -0.4837999859D+00 EUMP2 =    -0.15314823025807D+03
 CCSD(T)
 CCSD(T)= -0.15322137688D+03

 The electronic state is 1-A.
 Alpha  occ. eigenvalues --  -11.61966 -11.59566 -11.58551 -11.54739  -1.48630
 Alpha  occ. eigenvalues --   -1.23720  -1.09964  -0.98441  -0.87667  -0.81359
 Alpha  occ. eigenvalues --   -0.78665  -0.73698  -0.64641
 Alpha virt. eigenvalues --   -0.20438  -0.19823  -0.14161  -0.09923  -0.08937
 Alpha virt. eigenvalues --   -0.06687  -0.06071  -0.04158  -0.02266  -0.01475
 Alpha virt. eigenvalues --   -0.00899   0.00106   0.00698   0.02997   0.03571

 Mulliken charges:
               1
     1  C   -0.035223
     2  H    0.351093
     3  C    0.150167
     4  C    0.337781
     5  C   -0.371033
     6  H    0.264470
     7  H    0.302746
 Sum of Mulliken charges =   1.00000

 Dipole moment (field-independent basis, Debye):
    X=              0.3424    Y=              1.0711    Z=              1.9916  Tot=              2.2872
 Quadrupole moment (field-independent basis, Debye-Ang):
   XX=            -18.8286   YY=            -19.0855   ZZ=            -19.5850
   XY=              5.0085   XZ=              0.3982   YZ=             -2.0901

 DQ=-153.1900511\CCSD=-153.1927048\CCSD(T)=-153.2213769\RMSD=5.877e-09\
 Normal termination of Gaussian 09 at Tue Oct 10 10:06:35 2017.
