 Gaussian 09, Revision E.01,
 Gaussian 09:  ES64L-G09RevE.01 30-Nov-2015

 -----------------------------------
 #p ccsd(t,maxcyc=200)/6-311++G(d,p)
 -----------------------------------

 -------------
 ccsd(t) iener
 -------------
 Symbolic Z-matrix:
 Charge =  1 Multiplicity = 3

                         Standard orientation:
 ---------------------------------------------------------------------
 Center     Atomic      Atomic             Coordinates (Angstroms)
 Number     Number       Type             X           Y           Z
 ---------------------------------------------------------------------
      1          6           0        1.232519    1.220707   -0.000000
      2          1           0        1.643802    2.224744   -0.000000
      3          6           0        0.000000    0.627238   -0.000000
      4          1           0       -0.898167    1.250215   -0.000000
      5          6           0       -0.137874   -0.780102    0.000000
      6          1           0        0.731013   -1.453978    0.000000
      7          6           0       -1.340753   -1.404673    0.000000
 ---------------------------------------------------------------------

 SCF Done:  E(UHF) =  -152.740958288     A.U. after   23 cycles
 E2 =    -0.4284651685D+00 EUMP2 =    -0.15316942345651D+03
 CCSD(T)
 CCSD(T)= -0.15324523083D+03

 The electronic state is 3-A".
 Alpha  occ. eigenvalues --  -11.60053 -11.55476 -11.55175 -11.52647  -1.39732
 Alpha  occ. eigenvalues --   -1.29842  -1.08023  -0.99362  -0.89894  -0.86480
 Alpha  occ. eigenvalues --   -0.74835  -0.72266  -0.68505  -0.65052
 Alpha virt. eigenvalues --   -0.18591  -0.18044  -0.09107  -0.07900  -0.06299
 Alpha virt. eigenvalues --   -0.06082  -0.04269  -0.02007  -0.01357  -0.00745
 Alpha virt. eigenvalues --   -0.00183   0.00979   0.03411   0.03681   0.04689

  Beta  occ. eigenvalues --  -11.59035 -11.55859 -11.52575 -11.51136  -1.37237
  Beta  occ. eigenvalues --   -1.21623  -1.01442  -0.97471  -0.87229  -0.83995
  Beta  occ. eigenvalues --   -0.70246  -0.68080
  Beta virt. eigenvalues --   -0.25520  -0.17470  -0.13476  -0.08672  -0.08169
  Beta virt. eigenvalues --   -0.07362  -0.06031  -0.04585  -0.01977  -0.01784
  Beta virt. eigenvalues --   -0.00886   0.00804   0.00841   0.01133   0.03592

 Mulliken charges and spin densities:
               1          2
     1  C   -0.108143   1.701824
     2  H    0.299524  -0.058088
     3  C    0.094335  -0.244400
     4  H    0.286519   0.060570
     5  C   -0.337264   0.044573
     6  H    0.308597   0.001778
     7  C    0.456432   0.493743
 Sum of Mulliken charges =   1.00000   2.00000

 Dipole moment (field-independent basis, Debye):
    X=              1.3518    Y=              1.3803    Z=             -0.0000  Tot=              1.9319
 Quadrupole moment (field-independent basis, Debye-Ang):
   XX=            -18.0301   YY=            -10.7781   ZZ=            -22.8308
   XY=              2.2399   XZ=             -0.0000   YZ=             -0.0000

 53.2153994\MP4SDQ=-153.2191454\CCSD=-153.2240004\CCSD(T)=-153.2452308\
 Normal termination of Gaussian 09 at Tue Oct 10 10:38:28 2017.
