 Gaussian 09, Revision E.01,
 Gaussian 09:  ES64L-G09RevE.01 30-Nov-2015

 -----------------------------------
 #p ccsd(t,maxcyc=200)/6-311++G(d,p)
 -----------------------------------

 -------------
 ccsd(t) iener
 -------------
 Symbolic Z-matrix:
 Charge =  0 Multiplicity = 4

                         Standard orientation:
 ---------------------------------------------------------------------
 Center     Atomic      Atomic             Coordinates (Angstroms)
 Number     Number       Type             X           Y           Z
 ---------------------------------------------------------------------
      1          6           0        0.000000    0.000000   -1.768009
      2          1           0        0.000000    1.021380   -2.165960
      3          1           0        0.884541   -0.510690   -2.165960
      4          1           0       -0.884541   -0.510690   -2.165960
      5          6           0        0.000000    0.000000   -0.318287
      6          6           0        0.000000    0.000000    0.939227
      7          6           0        0.000000    0.000000    2.230049
 ---------------------------------------------------------------------

 SCF Done:  E(UHF) =  -153.061443925     A.U. after   17 cycles
 E2 =    -0.4335525361D+00 EUMP2 =    -0.15349499646117D+03
 CCSD(T)
 CCSD(T)= -0.15356984134D+03

 The electronic state is 4-A1.
 Alpha  occ. eigenvalues --  -11.30417 -11.25984 -11.25532 -11.23101  -1.10404
 Alpha  occ. eigenvalues --   -1.03435  -0.92356  -0.66252  -0.61150  -0.61111
 Alpha  occ. eigenvalues --   -0.61111  -0.50102  -0.50102  -0.36211  -0.36211
 Alpha virt. eigenvalues --    0.03970   0.07278   0.07278   0.08776   0.10318
 Alpha virt. eigenvalues --    0.12535   0.12535   0.15397   0.15397   0.15448
 Alpha virt. eigenvalues --    0.18142   0.18142   0.18320   0.20942   0.22530

  Beta  occ. eigenvalues --  -11.26012 -11.25294 -11.23158 -11.22495  -1.05714
  Beta  occ. eigenvalues --   -0.99599  -0.80821  -0.62683  -0.58362  -0.58362
  Beta  occ. eigenvalues --   -0.42775  -0.42775
  Beta virt. eigenvalues --    0.02470   0.04139   0.07268   0.07268   0.10170
  Beta virt. eigenvalues --    0.10170   0.10399   0.12314   0.13508   0.13508
  Beta virt. eigenvalues --    0.15641   0.15641   0.16608   0.18555   0.20088

 Mulliken charges and spin densities:
               1          2
     1  C   -0.576560  -0.184623
     2  H    0.150843   0.049231
     3  H    0.150843   0.049231
     4  H    0.150843   0.049231
     5  C    0.152338   1.714399
     6  C    0.400513  -1.255276
     7  C   -0.428821   2.577807
 Sum of Mulliken charges =  -0.00000   3.00000

 Dipole moment (field-independent basis, Debye):
    X=             -0.0000    Y=              0.0000    Z=             -1.5040  Tot=              1.5040
 Quadrupole moment (field-independent basis, Debye-Ang):
   XX=            -24.6251   YY=            -24.6251   ZZ=            -19.9319
   XY=              0.0000   XZ=              0.0000   YZ=             -0.0000

 53.5389219\CCSD=-153.5489982\CCSD(T)=-153.5698413\S2=4.11162\S2-1=3.98
 Normal termination of Gaussian 09 at Tue Oct 10 09:48:20 2017.
