 Gaussian 09, Revision E.01,
 Gaussian 09:  ES64L-G09RevE.01 30-Nov-2015

 -----------------------------------
 #p ccsd(t,maxcyc=200)/6-311++G(d,p)
 -----------------------------------

 -------------
 ccsd(t) iener
 -------------
 Symbolic Z-matrix:
 Charge =  0 Multiplicity = 4

                         Standard orientation:
 ---------------------------------------------------------------------
 Center     Atomic      Atomic             Coordinates (Angstroms)
 Number     Number       Type             X           Y           Z
 ---------------------------------------------------------------------
      1          6           0        0.000135    1.081325   -0.000000
      2          6           0        0.000135   -0.101279    0.989835
      3          1           0       -0.896508    1.703427   -0.000000
      4          1           0        0.896722    1.703496   -0.000000
      5          6           0        0.000135   -0.101279   -0.989835
      6          6           0       -0.000339   -1.085608    0.000000
      7          1           0       -0.000611   -2.165879    0.000000
 ---------------------------------------------------------------------

 SCF Done:  E(UHF) =  -153.024828865     A.U. after   16 cycles
 E2 =    -0.4484947646D+00 EUMP2 =    -0.15347332362964D+03
 CCSD(T)
 CCSD(T)= -0.15354397052D+03

 The electronic state is 4-A'.
 Alpha  occ. eigenvalues --  -11.28013 -11.28012 -11.25167 -11.23986  -1.19812
 Alpha  occ. eigenvalues --   -0.91221  -0.88077  -0.71599  -0.63176  -0.59823
 Alpha  occ. eigenvalues --   -0.55936  -0.52088  -0.44585  -0.36694  -0.35601
 Alpha virt. eigenvalues --    0.04500   0.05463   0.06744   0.08828   0.10773
 Alpha virt. eigenvalues --    0.12205   0.13700   0.14035   0.15232   0.15939
 Alpha virt. eigenvalues --    0.16633   0.17381   0.19209   0.20884   0.21901

  Beta  occ. eigenvalues --  -11.25285 -11.25195 -11.23082 -11.23080  -1.13532
  Beta  occ. eigenvalues --   -0.91773  -0.71280  -0.68583  -0.58912  -0.50662
  Beta  occ. eigenvalues --   -0.50272  -0.40993
  Beta virt. eigenvalues --    0.01655   0.05260   0.06066   0.06874   0.07752
  Beta virt. eigenvalues --    0.11166   0.12313   0.13789   0.13901   0.14453
  Beta virt. eigenvalues --    0.15831   0.15954   0.16980   0.19438   0.20422

 Mulliken charges and spin densities:
               1          2
     1  C   -0.578938  -0.120798
     2  C    0.302248   1.836475
     3  H    0.119364   0.032564
     4  H    0.119381   0.032520
     5  C    0.302248   1.836475
     6  C   -0.421872  -0.668903
     7  H    0.157569   0.051666
 Sum of Mulliken charges =  -0.00000   3.00000

 Dipole moment (field-independent basis, Debye):
    X=             -0.0002    Y=              0.0342    Z=             -0.0000  Tot=              0.0342
 Quadrupole moment (field-independent basis, Debye-Ang):
   XX=            -24.8970   YY=            -20.5453   ZZ=            -26.1629
   XY=              0.0010   XZ=             -0.0000   YZ=             -0.0000

 Normal termination of Gaussian 09 at Tue Oct 10 09:46:28 2017.
