 Gaussian 09, Revision E.01,
 Gaussian 09:  ES64L-G09RevE.01 30-Nov-2015

 -----------------------------------
 #p ccsd(t,maxcyc=200)/6-311++G(d,p)
 -----------------------------------

 -------------
 ccsd(t) iener
 -------------
 Symbolic Z-matrix:
 Charge =  1 Multiplicity = 1

                         Standard orientation:
 ---------------------------------------------------------------------
 Center     Atomic      Atomic             Coordinates (Angstroms)
 Number     Number       Type             X           Y           Z
 ---------------------------------------------------------------------
      1          6           0        0.000000    0.000000   -1.741730
      2          1           0       -0.000000    1.036212   -2.117297
      3          1           0        0.897386   -0.518106   -2.117297
      4          1           0       -0.897386   -0.518106   -2.117297
      5          6           0        0.000000    0.000000   -0.336765
      6          6           0        0.000000    0.000000    0.907820
      7          6           0        0.000000    0.000000    2.229324
 ---------------------------------------------------------------------

 SCF Done:  E(RHF) =  -152.765849922     A.U. after   13 cycles
 E2 =    -0.5042424754D+00 EUMP2 =    -0.15327009239763D+03
 CCSD(T)
 CCSD(T)= -0.15332925147D+03

 The electronic state is 1-A1.
 Alpha  occ. eigenvalues --  -11.63777 -11.63541 -11.49493 -11.49280  -1.38274
 Alpha  occ. eigenvalues --   -1.28718  -1.16899  -0.91517  -0.84335  -0.84335
 Alpha  occ. eigenvalues --   -0.74525  -0.69116  -0.69116
 Alpha virt. eigenvalues --   -0.24369  -0.24369  -0.10160  -0.05953  -0.05953
 Alpha virt. eigenvalues --   -0.05423  -0.02488  -0.02488  -0.02123   0.00346
 Alpha virt. eigenvalues --    0.00346   0.00881   0.03070   0.03070   0.03540

 Mulliken charges:
               1
     1  C   -0.578531
     2  H    0.253942
     3  H    0.253942
     4  H    0.253942
     5  C    0.531601
     6  C   -0.032052
     7  C    0.317155
 Sum of Mulliken charges =   1.00000

 Dipole moment (field-independent basis, Debye):
    X=             -0.0000    Y=             -0.0000    Z=             -2.0509  Tot=              2.0509
 Quadrupole moment (field-independent basis, Debye-Ang):
   XX=            -20.4978   YY=            -20.4978   ZZ=             -8.5134
   XY=             -0.0000   XZ=             -0.0000   YZ=             -0.0000

 2867715\MP4SDQ=-153.2976308\CCSD=-153.2963383\CCSD(T)=-153.3292515\RMS
 Normal termination of Gaussian 09 at Tue Oct 10 10:09:11 2017.
