 Gaussian 09, Revision E.01,
 Gaussian 09:  ES64L-G09RevE.01 30-Nov-2015

 -----------------------------------
 #p ccsd(t,maxcyc=200)/6-311++G(d,p)
 -----------------------------------

 -------------
 ccsd(t) iener
 -------------
 Symbolic Z-matrix:
 Charge =  0 Multiplicity = 4

                         Standard orientation:
 ---------------------------------------------------------------------
 Center     Atomic      Atomic             Coordinates (Angstroms)
 Number     Number       Type             X           Y           Z
 ---------------------------------------------------------------------
      1          6           0        0.797582   -0.616845   -0.530427
      2          6           0       -0.275519   -0.282160    0.434422
      3          1           0       -0.316664   -0.769930    1.406632
      4          6           0        1.111344    0.474363    0.073877
      5          1           0        1.675060    1.364350    0.285765
      6          6           0       -1.552358    0.226161   -0.083461
      7          1           0       -1.844696    0.596467   -1.058860
 ---------------------------------------------------------------------

 SCF Done:  E(UHF) =  -152.978180084     A.U. after   28 cycles
 E2 =    -0.4703076335D+00 EUMP2 =    -0.15344848771761D+03
 CCSD(T)
 CCSD(T)= -0.15351649945D+03

 The electronic state is 4-A.
 Alpha  occ. eigenvalues --  -11.28817 -11.28706 -11.26375 -11.26090  -1.19232
 Alpha  occ. eigenvalues --   -0.99155  -0.79956  -0.76056  -0.62829  -0.61324
 Alpha  occ. eigenvalues --   -0.57321  -0.46740  -0.44314  -0.39184  -0.31469
 Alpha virt. eigenvalues --    0.04084   0.05655   0.06006   0.08893   0.10357
 Alpha virt. eigenvalues --    0.11997   0.12993   0.13737   0.14026   0.16540
 Alpha virt. eigenvalues --    0.17357   0.17769   0.18406   0.18957   0.19857

  Beta  occ. eigenvalues --  -11.28630 -11.26644 -11.25034 -11.21603  -1.15474
  Beta  occ. eigenvalues --   -0.88779  -0.75319  -0.71426  -0.58365  -0.52375
  Beta  occ. eigenvalues --   -0.46429  -0.38927
  Beta virt. eigenvalues --    0.02578   0.04871   0.05310   0.06189   0.07747
  Beta virt. eigenvalues --    0.09530   0.10713   0.11875   0.13522   0.15324
  Beta virt. eigenvalues --    0.16578   0.16829   0.17598   0.18448   0.18674

 Mulliken charges and spin densities:
               1          2
     1  C   -0.386977   1.231397
     2  C    0.254279  -0.013956
     3  H    0.168945  -0.002104
     4  C   -0.088693  -0.299346
     5  H    0.235840   0.020875
     6  C   -0.336387   2.163517
     7  H    0.152992  -0.100385
 Sum of Mulliken charges =  -0.00000   3.00000

 Dipole moment (field-independent basis, Debye):
    X=              0.4465    Y=              0.8310    Z=              0.3734  Tot=              1.0146
 Quadrupole moment (field-independent basis, Debye-Ang):
   XX=            -24.9637   YY=            -23.8318   ZZ=            -23.8687
   XY=              1.7036   XZ=              1.5004   YZ=             -0.7998

 \CCSD=-153.4923889\CCSD(T)=-153.5164995\S2=3.924068\S2-1=3.876084\S2A=
 Normal termination of Gaussian 09 at Tue Oct 10 09:57:47 2017.
