 Gaussian 09, Revision E.01,
 Gaussian 09:  ES64L-G09RevE.01 30-Nov-2015

 -----------------------------------
 #p ccsd(t,maxcyc=200)/6-311++G(d,p)
 -----------------------------------

 -------------
 ccsd(t) iener
 -------------
 Symbolic Z-matrix:
 Charge =  0 Multiplicity = 4

                         Standard orientation:
 ---------------------------------------------------------------------
 Center     Atomic      Atomic             Coordinates (Angstroms)
 Number     Number       Type             X           Y           Z
 ---------------------------------------------------------------------
      1          6           0        0.005176    1.922625   -0.000000
      2          1           0        0.019981    2.476719    0.931227
      3          1           0        0.019981    2.476719   -0.931227
      4          6           0       -0.000000    0.516471   -0.000000
      5          6           0        0.021221   -0.721189    0.000000
      6          6           0        0.072489   -2.063445    0.000000
      7          1           0       -0.633278   -2.880203    0.000000
 ---------------------------------------------------------------------

 SCF Done:  E(UHF) =  -153.064905122     A.U. after   20 cycles
 E2 =    -0.4569820473D+00 EUMP2 =    -0.15352188716966D+03
 CCSD(T)
 CCSD(T)= -0.15359266787D+03

 The electronic state is 4-A".
 Alpha  occ. eigenvalues --  -11.27882 -11.27624 -11.26302 -11.23608  -1.10913
 Alpha  occ. eigenvalues --   -1.03413  -0.92653  -0.70346  -0.66086  -0.64059
 Alpha  occ. eigenvalues --   -0.54384  -0.48995  -0.47259  -0.35356  -0.30184
 Alpha virt. eigenvalues --    0.04373   0.05406   0.06171   0.10414   0.11235
 Alpha virt. eigenvalues --    0.11979   0.12386   0.14518   0.17533   0.17575
 Alpha virt. eigenvalues --    0.18006   0.19525   0.20840   0.21239   0.21936

  Beta  occ. eigenvalues --  -11.25580 -11.25167 -11.24264 -11.23452  -1.05268
  Beta  occ. eigenvalues --   -0.94068  -0.83132  -0.66457  -0.63441  -0.60426
  Beta  occ. eigenvalues --   -0.42105  -0.41241
  Beta virt. eigenvalues --    0.01672   0.04586   0.05657   0.06135   0.08226
  Beta virt. eigenvalues --    0.08806   0.10597   0.13332   0.13523   0.14544
  Beta virt. eigenvalues --    0.16882   0.18287   0.18908   0.19668   0.20366

 Mulliken charges and spin densities:
               1          2
     1  C   -0.694129   1.330423
     2  H    0.142391  -0.072799
     3  H    0.142391  -0.072799
     4  C    0.427258   0.794942
     5  C    0.640847  -0.912824
     6  C   -0.799373   2.019122
     7  H    0.140614  -0.086065
 Sum of Mulliken charges =  -0.00000   3.00000

 Dipole moment (field-independent basis, Debye):
    X=             -0.5526    Y=              0.9314    Z=              0.0000  Tot=              1.0830
 Quadrupole moment (field-independent basis, Debye-Ang):
   XX=            -25.6288   YY=            -17.9451   ZZ=            -24.3934
   XY=              1.9238   XZ=              0.0000   YZ=              0.0000

 99\PMP3-0=-153.5591497\MP4SDQ=-153.5627706\CCSD=-153.5697421\CCSD(T)=-
 Normal termination of Gaussian 09 at Tue Oct 10 09:50:24 2017.
