 Gaussian 09, Revision E.01,
 Gaussian 09:  ES64L-G09RevE.01 30-Nov-2015

 -----------------------------------
 #p ccsd(t,maxcyc=200)/6-311++G(d,p)
 -----------------------------------

 -------------
 ccsd(t) iener
 -------------
 Symbolic Z-matrix:
 Charge =  0 Multiplicity = 2

                         Standard orientation:
 ---------------------------------------------------------------------
 Center     Atomic      Atomic             Coordinates (Angstroms)
 Number     Number       Type             X           Y           Z
 ---------------------------------------------------------------------
      1          6           0        0.132753   -0.121772    0.885752
      2          6           0        0.132753    1.100301   -0.000000
      3          1           0        1.007908    1.746266   -0.000000
      4          6           0        0.132753   -0.121772   -0.885752
      5          1           0       -0.802756    1.653404   -0.000000
      6          6           0       -0.336379   -1.070181    0.000000
      7          1           0       -0.576430   -2.119128    0.000000
 ---------------------------------------------------------------------

 SCF Done:  E(UHF) =  -153.049000028     A.U. after   19 cycles
 E2 =    -0.5288168291D+00 EUMP2 =    -0.15357781685740D+03
 CCSD(T)
 CCSD(T)= -0.15363568869D+03

 The electronic state is 2-A".
 Alpha  occ. eigenvalues --  -11.29213 -11.29184 -11.28532 -11.27292  -1.24412
 Alpha  occ. eigenvalues --   -0.95601  -0.79888  -0.75304  -0.65979  -0.58150
 Alpha  occ. eigenvalues --   -0.55124  -0.49554  -0.39795  -0.34324
 Alpha virt. eigenvalues --    0.04406   0.05163   0.06376   0.07606   0.10649
 Alpha virt. eigenvalues --    0.11467   0.11577   0.13645   0.14329   0.15815
 Alpha virt. eigenvalues --    0.16264   0.17009   0.18694   0.19731   0.20286

  Beta  occ. eigenvalues --  -11.28295 -11.27898 -11.27631 -11.27626  -1.21916
  Beta  occ. eigenvalues --   -0.95369  -0.75356  -0.73594  -0.63003  -0.57683
  Beta  occ. eigenvalues --   -0.52636  -0.43029  -0.35224
  Beta virt. eigenvalues --    0.04412   0.05170   0.06010   0.06470   0.09546
  Beta virt. eigenvalues --    0.10953   0.11964   0.12268   0.13786   0.14298
  Beta virt. eigenvalues --    0.15447   0.16988   0.18715   0.18746   0.20407

 Mulliken charges and spin densities:
               1          2
     1  C    0.066627   0.467317
     2  C   -0.543828   0.120886
     3  H    0.151330   0.012500
     4  C    0.066627   0.467317
     5  H    0.165322   0.010886
     6  C   -0.117672  -0.113342
     7  H    0.211594   0.034438
 Sum of Mulliken charges =  -0.00000   1.00000

 Dipole moment (field-independent basis, Debye):
    X=             -0.8097    Y=              0.4251    Z=             -0.0000  Tot=              0.9145
 Quadrupole moment (field-independent basis, Debye-Ang):
   XX=            -24.1775   YY=            -18.9063   ZZ=            -29.7971
   XY=              1.3541   XZ=              0.0000   YZ=             -0.0000

 .6007361\MP4SDQ=-153.6027766\CCSD=-153.605083\CCSD(T)=-153.6356887\S2=
 Normal termination of Gaussian 09 at Tue Oct 10 09:18:23 2017.
