 Gaussian 09, Revision E.01,
 Gaussian 09:  ES64L-G09RevE.01 30-Nov-2015

 -----------------------------------
 #p ccsd(t,maxcyc=200)/6-311++G(d,p)
 -----------------------------------

 -------------
 ccsd(t) iener
 -------------
 Symbolic Z-matrix:
 Charge =  1 Multiplicity = 3

                         Standard orientation:
 ---------------------------------------------------------------------
 Center     Atomic      Atomic             Coordinates (Angstroms)
 Number     Number       Type             X           Y           Z
 ---------------------------------------------------------------------
      1          6           0        0.020807    0.861061   -0.000000
      2          1           0        0.318392   -1.019130    0.820404
      3          1           0        0.318392   -1.019130   -0.820404
      4          1           0       -0.928089    1.400564    0.000000
      5          8           0        0.020807   -0.566084    0.000000
 ---------------------------------------------------------------------

 SCF Done:  E(UHF) =  -114.088876405     A.U. after   14 cycles
 E2 =    -0.2905510195D+00 EUMP2 =    -0.11437942742411D+03
 CCSD(T)
 CCSD(T)= -0.11440802557D+03

 The electronic state is 3-A".
 Alpha  occ. eigenvalues --  -20.98747 -11.60371  -1.79217  -1.25626  -1.13599
 Alpha  occ. eigenvalues --   -0.98371  -0.97250  -0.74406  -0.70122
 Alpha virt. eigenvalues --   -0.15119  -0.09589  -0.08185  -0.05169  -0.03801
 Alpha virt. eigenvalues --   -0.01247   0.00576   0.02521   0.05102   0.05672
 Alpha virt. eigenvalues --    0.07191   0.10714   0.11406   0.13561   0.18264

  Beta  occ. eigenvalues --  -20.98498 -11.54713  -1.77466  -1.15497  -1.11885
  Beta  occ. eigenvalues --   -0.93650  -0.90351
  Beta virt. eigenvalues --   -0.16207  -0.13234  -0.12034  -0.09091  -0.07571
  Beta virt. eigenvalues --   -0.03539  -0.02123   0.01548   0.02289   0.03501
  Beta virt. eigenvalues --    0.06185   0.06602   0.08629   0.12090   0.13919

 Mulliken charges and spin densities:
               1          2
     1  C    0.054033   2.088268
     2  H    0.410964   0.021880
     3  H    0.410964   0.021880
     4  H    0.249102  -0.028861
     5  O   -0.125064  -0.103167
 Sum of Mulliken charges =   1.00000   2.00000

 Dipole moment (field-independent basis, Debye):
    X=              0.5854    Y=             -1.8607    Z=             -0.0000  Tot=              1.9506
 Quadrupole moment (field-independent basis, Debye-Ang):
   XX=            -10.1304   YY=             -4.6929   ZZ=             -7.9830
   XY=             -3.1599   XZ=              0.0000   YZ=              0.0000

 000509\CCSD(T)=-114.4080256\S2=2.008549\S2-1=2.002244\S2A=2.000024\RMS
 Normal termination of Gaussian 09 at Tue Oct 10 10:48:33 2017.
