 Gaussian 09, Revision E.01,
 Gaussian 09:  ES64L-G09RevE.01 30-Nov-2015

 -----------------------------------
 #p ccsd(t,maxcyc=200)/6-311++G(d,p)
 -----------------------------------

 -------------
 ccsd(t) iener
 -------------
 Symbolic Z-matrix:
 Charge =  0 Multiplicity = 2

                         Standard orientation:
 ---------------------------------------------------------------------
 Center     Atomic      Atomic             Coordinates (Angstroms)
 Number     Number       Type             X           Y           Z
 ---------------------------------------------------------------------
      1          6           0        0.011177   -0.574409    0.000000
      2          1           0        0.451378   -1.008040    0.910268
      3          1           0       -1.059240   -0.865338    0.000000
      4          1           0        0.451378   -1.008040   -0.910268
      5          8           0        0.011177    0.790984   -0.000000
 ---------------------------------------------------------------------

 SCF Done:  E(UHF) =  -114.455996673     A.U. after   16 cycles
 E2 =    -0.3109286950D+00 EUMP2 =    -0.11476692536765D+03
 CCSD(T)
 CCSD(T)= -0.11480537386D+03

 The electronic state is 2-A'.
 Alpha  occ. eigenvalues --  -20.62149 -11.28572  -1.41071  -0.92353  -0.70718
 Alpha  occ. eigenvalues --   -0.65719  -0.63078  -0.51751  -0.48113
 Alpha virt. eigenvalues --    0.03983   0.07207   0.07258   0.09598   0.14512
 Alpha virt. eigenvalues --    0.15116   0.17882   0.26014   0.28284   0.29473
 Alpha virt. eigenvalues --    0.29565   0.31381   0.34429   0.35800   0.48167

  Beta  occ. eigenvalues --  -20.58112 -11.28871  -1.27948  -0.89199  -0.64096
  Beta  occ. eigenvalues --   -0.59553  -0.58151  -0.44587
  Beta virt. eigenvalues --    0.04006   0.07198   0.07224   0.09097   0.09810
  Beta virt. eigenvalues --    0.15172   0.15305   0.17948   0.26225   0.28454
  Beta virt. eigenvalues --    0.29523   0.31713   0.34551   0.35615   0.36993

 Mulliken charges and spin densities:
               1          2
     1  C   -0.264663  -0.145804
     2  H    0.125292   0.020650
     3  H    0.147470   0.093861
     4  H    0.125292   0.020650
     5  O   -0.133390   1.010642
 Sum of Mulliken charges =   0.00000   1.00000

 Dipole moment (field-independent basis, Debye):
    X=             -0.1286    Y=             -2.0314    Z=              0.0000  Tot=              2.0354
 Quadrupole moment (field-independent basis, Debye-Ang):
   XX=            -11.6744   YY=            -13.8160   ZZ=            -12.7347
   XY=              0.1543   XZ=              0.0000   YZ=             -0.0000

 2\CCSD(T)=-114.8053739\S2=0.759116\S2-1=0.752205\S2A=0.750065\RMSD=4.9
 Normal termination of Gaussian 09 at Tue Oct 10 10:47:16 2017.
