 Gaussian 09, Revision E.01,
 Gaussian 09:  ES64L-G09RevE.01 30-Nov-2015

 -----------------------------------
 #p ccsd(t,maxcyc=200)/6-311++G(d,p)
 -----------------------------------

 -------------
 ccsd(t) iener
 -------------
 Symbolic Z-matrix:
 Charge =  0 Multiplicity = 2

                         Standard orientation:
 ---------------------------------------------------------------------
 Center     Atomic      Atomic             Coordinates (Angstroms)
 Number     Number       Type             X           Y           Z
 ---------------------------------------------------------------------
      1          6           0       -0.685140    0.027783   -0.058839
      2          1           0        1.103037    0.729710   -0.062873
      3          1           0       -1.119016    0.996914    0.156942
      4          1           0       -1.236011   -0.888642    0.089441
      5          8           0        0.670354   -0.125585    0.021191
 ---------------------------------------------------------------------

 SCF Done:  E(UHF) =  -114.452538298     A.U. after   15 cycles
 E2 =    -0.3345290386D+00 EUMP2 =    -0.11478706733634D+03
 CCSD(T)
 CCSD(T)= -0.11481767458D+03

 The electronic state is 2-A.
 Alpha  occ. eigenvalues --  -20.58746 -11.28166  -1.40087  -0.92678  -0.72174
 Alpha  occ. eigenvalues --   -0.63029  -0.60635  -0.52750  -0.33858
 Alpha virt. eigenvalues --    0.04132   0.06217   0.07480   0.11923   0.13090
 Alpha virt. eigenvalues --    0.16126   0.17693   0.24965   0.27516   0.29165
 Alpha virt. eigenvalues --    0.29665   0.32063   0.34664   0.40589   0.46834

  Beta  occ. eigenvalues --  -20.58086 -11.25734  -1.38039  -0.85998  -0.70546
  Beta  occ. eigenvalues --   -0.61722  -0.52817  -0.51036
  Beta virt. eigenvalues --    0.04233   0.06327   0.07529   0.09019   0.13150
  Beta virt. eigenvalues --    0.16249   0.18094   0.21121   0.25698   0.28368
  Beta virt. eigenvalues --    0.29544   0.30561   0.32673   0.34893   0.41381

 Mulliken charges and spin densities:
               1          2
     1  C   -0.203385   1.196379
     2  H    0.262897  -0.007902
     3  H    0.108401  -0.089915
     4  H    0.124591  -0.095786
     5  O   -0.292503  -0.002777
 Sum of Mulliken charges =   0.00000   1.00000

 Dipole moment (field-independent basis, Debye):
    X=             -0.4175    Y=              1.7054    Z=              0.1625  Tot=              1.7632
 Quadrupole moment (field-independent basis, Debye-Ang):
   XX=            -11.7902   YY=            -10.9732   ZZ=            -14.3155
   XY=              2.3440   XZ=             -0.6318   YZ=             -0.0301

 114.8067927\CCSD=-114.807392\CCSD(T)=-114.8176746\S2=0.761739\S2-1=0.7
 Normal termination of Gaussian 09 at Tue Oct 10 10:47:14 2017.
