 Gaussian 09, Revision E.01,
 Gaussian 09:  ES64L-G09RevE.01 30-Nov-2015

 -----------------------------------
 #p ccsd(t,maxcyc=200)/6-311++G(d,p)
 -----------------------------------

 -------------
 ccsd(t) iener
 -------------
 Symbolic Z-matrix:
 Charge =  1 Multiplicity = 3

                         Standard orientation:
 ---------------------------------------------------------------------
 Center     Atomic      Atomic             Coordinates (Angstroms)
 Number     Number       Type             X           Y           Z
 ---------------------------------------------------------------------
      1          6           0       -0.007216    0.668543   -0.000000
      2          1           0       -0.898244   -1.084902    0.000000
      3          1           0        0.499633    1.122254    0.901669
      4          1           0        0.499633    1.122254   -0.901669
      5          8           0       -0.007216   -0.646358    0.000000
 ---------------------------------------------------------------------

 SCF Done:  E(UHF) =  -114.066696376     A.U. after   16 cycles
 E2 =    -0.2891485540D+00 EUMP2 =    -0.11435584492950D+03
 CCSD(T)
 CCSD(T)= -0.11439876264D+03

 The electronic state is 3-A".
 Alpha  occ. eigenvalues --  -21.06793 -11.59721  -1.87248  -1.29184  -1.10388
 Alpha  occ. eigenvalues --   -1.08937  -1.02663  -0.82972  -0.70876
 Alpha virt. eigenvalues --   -0.14315  -0.09707  -0.07036  -0.05989  -0.03448
 Alpha virt. eigenvalues --   -0.02463   0.00349   0.02631   0.05680   0.07023
 Alpha virt. eigenvalues --    0.07209   0.08744   0.14313   0.14897   0.21116

  Beta  occ. eigenvalues --  -21.02515 -11.57156  -1.73434  -1.21897  -0.98993
  Beta  occ. eigenvalues --   -0.95961  -0.84315
  Beta virt. eigenvalues --   -0.29547  -0.15704  -0.13501  -0.09216  -0.06757
  Beta virt. eigenvalues --   -0.04626  -0.02251  -0.01109   0.01378   0.03988
  Beta virt. eigenvalues --    0.06861   0.08152   0.08773   0.12621   0.15842

 Mulliken charges and spin densities:
               1          2
     1  C   -0.223109   1.007865
     2  H    0.398740  -0.020846
     3  H    0.281582   0.070680
     4  H    0.281582   0.070680
     5  O    0.261206   0.871622
 Sum of Mulliken charges =   1.00000   2.00000

 Dipole moment (field-independent basis, Debye):
    X=             -1.0602    Y=             -0.3051    Z=              0.0000  Tot=              1.1032
 Quadrupole moment (field-independent basis, Debye-Ang):
   XX=             -8.8324   YY=             -5.8907   ZZ=             -9.0029
   XY=              4.2859   XZ=             -0.0000   YZ=              0.0000

 44\CCSD(T)=-114.3987626\S2=2.014166\S2-1=2.001981\S2A=2.000103\RMSD=4.
 Normal termination of Gaussian 09 at Tue Oct 10 10:47:37 2017.
