 Gaussian 09, Revision E.01,
 Gaussian 09:  ES64L-G09RevE.01 30-Nov-2015

 -----------------------------------
 #p ccsd(t,maxcyc=200)/6-311++G(d,p)
 -----------------------------------

 -------------
 ccsd(t) iener
 -------------
 Symbolic Z-matrix:
 Charge =  1 Multiplicity = 1

                         Standard orientation:
 ---------------------------------------------------------------------
 Center     Atomic      Atomic             Coordinates (Angstroms)
 Number     Number       Type             X           Y           Z
 ---------------------------------------------------------------------
      1          6           0        0.057826    0.874051    0.000000
      2          1           0       -1.027297    1.097607    0.000000
      3          1           0        0.938438   -0.966808   -0.000000
      4          1           0       -0.720704   -1.142694   -0.000000
      5          8           0        0.057826   -0.529052   -0.000000
 ---------------------------------------------------------------------

 SCF Done:  E(RHF) =  -114.075148030     A.U. after   11 cycles
 E2 =    -0.3166404491D+00 EUMP2 =    -0.11439178847946D+03
 CCSD(T)
 CCSD(T)= -0.11442817988D+03

 The electronic state is 1-A'.
 Alpha  occ. eigenvalues --  -21.00918 -11.61898  -1.80699  -1.24376  -1.15412
 Alpha  occ. eigenvalues --   -0.94925  -0.94416  -0.68207
 Alpha virt. eigenvalues --   -0.17495  -0.15649  -0.10375  -0.07946  -0.03715
 Alpha virt. eigenvalues --   -0.03236  -0.00161   0.00175   0.02068   0.04503
 Alpha virt. eigenvalues --    0.06061   0.06232   0.10432   0.13582   0.15751

 Mulliken charges:
               1
     1  C    0.142346
     2  H    0.159953
     3  H    0.430688
     4  H    0.411535
     5  O   -0.144522
 Sum of Mulliken charges =   1.00000

 Dipole moment (field-independent basis, Debye):
    X=             -1.4288    Y=             -3.0294    Z=             -0.0000  Tot=              3.3494
 Quadrupole moment (field-independent basis, Debye-Ang):
   XX=             -7.6364   YY=             -6.1795   ZZ=            -10.9506
   XY=             -2.5792   XZ=             -0.0000   YZ=              0.0000

 Normal termination of Gaussian 09 at Tue Oct 10 10:48:14 2017.
