 Gaussian 09, Revision E.01,
 Gaussian 09:  ES64L-G09RevE.01 30-Nov-2015

 -----------------------------------
 #p ccsd(t,maxcyc=200)/6-311++G(d,p)
 -----------------------------------

 -------------
 ccsd(t) iener
 -------------
 Symbolic Z-matrix:
 Charge =  1 Multiplicity = 2

                         Standard orientation:
 ---------------------------------------------------------------------
 Center     Atomic      Atomic             Coordinates (Angstroms)
 Number     Number       Type             X           Y           Z
 ---------------------------------------------------------------------
      1          1           0       -0.000000    0.000000    1.355571
      2          1           0        0.000000    0.414828   -0.767183
      3          1           0       -0.000000    0.000000    0.178795
      4          1           0       -0.000000   -0.414828   -0.767183
 ---------------------------------------------------------------------

 SCF Done:  E(UHF) =  -1.79846818824     A.U. after   11 cycles
 E2 =    -0.3451727346D-01 EUMP2 =    -0.18329854617034D+01
 CCSD(T)
 CCSD(T)= -0.18430675603D+01

 The electronic state is 2-A1.
 Alpha  occ. eigenvalues --   -1.15391  -0.84100
 Alpha virt. eigenvalues --   -0.16353  -0.14952  -0.08467  -0.06998  -0.02355
 Alpha virt. eigenvalues --   -0.01333   0.18554   0.24776   0.33971   0.36353
 Alpha virt. eigenvalues --    0.72366   0.99174   1.06634   1.07716   1.35460

  Beta  occ. eigenvalues --   -1.09007
  Beta virt. eigenvalues --   -0.30575  -0.15576  -0.12739  -0.06316  -0.04071
  Beta virt. eigenvalues --   -0.01897   0.01339   0.19912   0.30737   0.37700
  Beta virt. eigenvalues --    0.38222   0.74190   1.06196   1.13282   1.17110

 Mulliken charges and spin densities:
               1          2
     1  H    0.250495   0.741781
     2  H    0.256713   0.094683
     3  H    0.236080   0.068852
     4  H    0.256713   0.094683
 Sum of Mulliken charges =   1.00000   1.00000

 Dipole moment (field-independent basis, Debye):
    X=             -0.0000    Y=              0.0000    Z=             -0.1310  Tot=              0.1310
 Quadrupole moment (field-independent basis, Debye-Ang):
   XX=             -2.5949   YY=             -1.5734   ZZ=              1.8853
   XY=              0.0000   XZ=             -0.0000   YZ=             -0.0000

 .8428396\CCSD(T)=-1.8430676\S2=0.755721\S2-1=0.751784\S2A=0.75\RMSD=8.
 Normal termination of Gaussian 09 at Tue Oct 10 15:46:33 2017.
