 Gaussian 09, Revision E.01,
 Gaussian 09:  ES64L-G09RevE.01 30-Nov-2015

 -----------------------------------
 #p ccsd(t,maxcyc=200)/6-311++G(d,p)
 -----------------------------------

 -------------
 ccsd(t) iener
 -------------
 Symbolic Z-matrix:
 Charge =  1 Multiplicity = 2

                         Standard orientation:
 ---------------------------------------------------------------------
 Center     Atomic      Atomic             Coordinates (Angstroms)
 Number     Number       Type             X           Y           Z
 ---------------------------------------------------------------------
      1          6           0        0.000000    0.000000    0.000000
      2          1           0       -0.000000    1.057520    0.375142
      3          1           0       -0.000000   -1.057520    0.375142
      4          1           0       -1.057520    0.000000   -0.375142
      5          1           0        1.057520   -0.000000   -0.375142
 ---------------------------------------------------------------------

 SCF Done:  E(UHF) =  -39.7691696600     A.U. after   11 cycles
 E2 =    -0.1422150372D+00 EUMP2 =    -0.39911384697243D+02
 CCSD(T)
 CCSD(T)= -0.39938112848D+02

 The electronic state is 2-B2.
 Alpha  occ. eigenvalues --  -11.60010  -1.32951  -0.95294  -0.95294  -0.82703
 Alpha virt. eigenvalues --   -0.13330  -0.11209  -0.08345  -0.08345  -0.06850
 Alpha virt. eigenvalues --   -0.01635  -0.01635   0.00334   0.01629   0.04038
 Alpha virt. eigenvalues --    0.07224   0.07224   0.24423   0.34787   0.34787

  Beta  occ. eigenvalues --  -11.58840  -1.23671  -0.90577  -0.90577
  Beta virt. eigenvalues --   -0.33798  -0.12783  -0.09186  -0.08240  -0.08240
  Beta virt. eigenvalues --   -0.05335  -0.01020  -0.01020   0.00837   0.04354
  Beta virt. eigenvalues --    0.05895   0.08251   0.08251   0.26276   0.37738

 Mulliken charges and spin densities:
               1          2
     1  C   -0.277932   0.624726
     2  H    0.319483   0.093819
     3  H    0.319483   0.093819
     4  H    0.319483   0.093819
     5  H    0.319483   0.093819
 Sum of Mulliken charges =   1.00000   1.00000

 Dipole moment (field-independent basis, Debye):
    X=             -0.0000    Y=             -0.0000    Z=             -0.0000  Tot=              0.0000
 Quadrupole moment (field-independent basis, Debye-Ang):
   XX=             -3.8401   YY=             -3.8401   ZZ=             -6.2268
   XY=             -0.0000   XZ=              0.0000   YZ=             -0.0000

 Normal termination of Gaussian 09 at Tue Oct 10 15:46:04 2017.
