 Gaussian 09, Revision E.01,
 Gaussian 09:  ES64L-G09RevE.01 30-Nov-2015

 -----------------------------------
 #p ccsd(t,maxcyc=200)/6-311++G(d,p)
 -----------------------------------

 -------------
 ccsd(t) iener
 -------------
 Symbolic Z-matrix:
 Charge =  0 Multiplicity = 1

                         Standard orientation:
 ---------------------------------------------------------------------
 Center     Atomic      Atomic             Coordinates (Angstroms)
 Number     Number       Type             X           Y           Z
 ---------------------------------------------------------------------
      1          6           0        0.000000    0.000000    0.000000
      2          1           0        0.629847    0.629847    0.629847
      3          1           0       -0.629847   -0.629847    0.629847
      4          1           0        0.629847   -0.629847   -0.629847
      5          1           0       -0.629847    0.629847   -0.629847
 ---------------------------------------------------------------------

 SCF Done:  E(RHF) =  -40.2090341244     A.U. after    9 cycles
 E2 =    -0.1706026848D+00 EUMP2 =    -0.40379636809241D+02
 CCSD(T)
 CCSD(T)= -0.40406264771D+02

 The electronic state is 1-A1.
 Alpha  occ. eigenvalues --  -11.20855  -0.94236  -0.54442  -0.54442  -0.54442
 Alpha virt. eigenvalues --    0.04188   0.07841   0.07841   0.07841   0.15272
 Alpha virt. eigenvalues --    0.15272   0.15272   0.18969   0.30865   0.30865
 Alpha virt. eigenvalues --    0.30865   0.38034   0.55077   0.55077   0.55077

 Mulliken charges:
               1
     1  C   -0.469559
     2  H    0.117390
     3  H    0.117390
     4  H    0.117390
     5  H    0.117390
 Sum of Mulliken charges =   0.00000

 Dipole moment (field-independent basis, Debye):
    X=              0.0000    Y=              0.0000    Z=              0.0000  Tot=              0.0000
 Quadrupole moment (field-independent basis, Debye-Ang):
   XX=             -8.4399   YY=             -8.4399   ZZ=             -8.4399
   XY=              0.0000   XZ=              0.0000   YZ=              0.0000

 146\CCSD(T)=-40.4062648\RMSD=8.015e-10\PG=TD [O(C1),4C3(H1)]\\@
 Normal termination of Gaussian 09 at Tue Oct 10 15:45:17 2017.
