 Gaussian 09, Revision E.01,
 Gaussian 09:  ES64L-G09RevE.01 30-Nov-2015

 -----------------------------------
 #p ccsd(t,maxcyc=200)/6-311++G(d,p)
 -----------------------------------

 -------------
 ccsd(t) iener
 -------------
 Symbolic Z-matrix:
 Charge =  1 Multiplicity = 2

                         Standard orientation:
 ---------------------------------------------------------------------
 Center     Atomic      Atomic             Coordinates (Angstroms)
 Number     Number       Type             X           Y           Z
 ---------------------------------------------------------------------
      1          6           0        0.000000   -0.000000    0.696197
      2          6           0       -0.000000   -0.000000   -0.696197
      3          1           0       -0.228686    0.905421    1.260580
      4          1           0        0.228686   -0.905421    1.260580
      5          1           0       -0.228686   -0.905421   -1.260580
      6          1           0        0.228686    0.905421   -1.260580
 ---------------------------------------------------------------------

 SCF Done:  E(UHF) =  -77.7291083571     A.U. after   12 cycles
 E2 =    -0.2368518688D+00 EUMP2 =    -0.77965960225942D+02
 CCSD(T)
 CCSD(T)= -0.78007103481D+02

 The electronic state is 2-B3.
 Alpha  occ. eigenvalues --  -11.58524 -11.58388  -1.37119  -1.11094  -0.94798
 Alpha  occ. eigenvalues --   -0.89823  -0.82940  -0.70941
 Alpha virt. eigenvalues --   -0.19451  -0.10852  -0.08193  -0.08018  -0.06138
 Alpha virt. eigenvalues --   -0.03126  -0.02783  -0.00216   0.00647   0.01444
 Alpha virt. eigenvalues --    0.03741   0.05017   0.05690   0.06705   0.07160

  Beta  occ. eigenvalues --  -11.57558 -11.57449  -1.30106  -1.08001  -0.92886
  Beta  occ. eigenvalues --   -0.88448  -0.82196
  Beta virt. eigenvalues --   -0.26530  -0.10616  -0.10349  -0.07980  -0.07870
  Beta virt. eigenvalues --   -0.05416  -0.02674  -0.02020   0.00833   0.01495
  Beta virt. eigenvalues --    0.02665   0.04053   0.05225   0.06271   0.06846

 Mulliken charges and spin densities:
               1          2
     1  C    0.028310   0.577284
     2  C    0.028310   0.577284
     3  H    0.235845  -0.038642
     4  H    0.235845  -0.038642
     5  H    0.235845  -0.038642
     6  H    0.235845  -0.038642
 Sum of Mulliken charges =   1.00000   1.00000

 Dipole moment (field-independent basis, Debye):
    X=              0.0000    Y=             -0.0000    Z=             -0.0000  Tot=              0.0000
 Quadrupole moment (field-independent basis, Debye-Ang):
   XX=            -11.4627   YY=             -8.6408   ZZ=             -5.4843
   XY=              0.0000   XZ=              0.0000   YZ=             -0.0000

 9\MP4SDQ=-77.9985205\CCSD=-77.9994648\CCSD(T)=-78.0071035\S2=0.759718\
 Normal termination of Gaussian 09 at Tue Oct 10 10:55:56 2017.
