 Gaussian 09, Revision E.01,
 Gaussian 09:  ES64L-G09RevE.01 30-Nov-2015

 -----------------------------------
 #p ccsd(t,maxcyc=200)/6-311++G(d,p)
 -----------------------------------

 -------------
 ccsd(t) iener
 -------------
 Symbolic Z-matrix:
 Charge =  0 Multiplicity = 1

                         Standard orientation:
 ---------------------------------------------------------------------
 Center     Atomic      Atomic             Coordinates (Angstroms)
 Number     Number       Type             X           Y           Z
 ---------------------------------------------------------------------
      1          6           0        0.000000    0.653386    0.000000
      2          6           0        1.085978   -0.370030   -0.000000
      3          1           0        1.724193   -0.191641    0.872518
      4          1           0        0.740900   -1.422737   -0.000000
      5          1           0        1.724193   -0.191641   -0.872518
      6          1           0       -1.192505   -0.867766    0.000000
      7          8           0       -1.189081    0.121706    0.000000
 ---------------------------------------------------------------------

 SCF Done:  E(RHF) =  -152.876077408     A.U. after   12 cycles
 E2 =    -0.4796184802D+00 EUMP2 =    -0.15335569588821D+03
 CCSD(T)
 CCSD(T)= -0.15340509126D+03

 The electronic state is 1-A'.
 Alpha  occ. eigenvalues --  -20.63200 -11.30253 -11.24087  -1.44968  -1.01964
 Alpha  occ. eigenvalues --   -0.85005  -0.69757  -0.62509  -0.61349  -0.55261
 Alpha  occ. eigenvalues --   -0.53791  -0.35559
 Alpha virt. eigenvalues --    0.03683   0.05795   0.07319   0.07630   0.10979
 Alpha virt. eigenvalues --    0.12586   0.13909   0.14162   0.14566   0.17853
 Alpha virt. eigenvalues --    0.18667   0.19275   0.21429   0.23497   0.28356

 Mulliken charges:
               1
     1  C   -0.023451
     2  C   -0.441428
     3  H    0.171994
     4  H    0.051736
     5  H    0.171994
     6  H    0.226249
     7  O   -0.157096
 Sum of Mulliken charges =  -0.00000

 Dipole moment (field-independent basis, Debye):
    X=              0.9817    Y=             -3.4244    Z=             -0.0000  Tot=              3.5623
 Quadrupole moment (field-independent basis, Debye-Ang):
   XX=            -19.0949   YY=            -21.8767   ZZ=            -18.4357
   XY=              1.9483   XZ=             -0.0000   YZ=             -0.0000

 65481\CCSD=-153.3867416\CCSD(T)=-153.4050913\RMSD=8.155e-09\PG=CS [SG(
 Normal termination of Gaussian 09 at Tue Oct 10 10:49:36 2017.
