 Gaussian 09, Revision E.01,
 Gaussian 09:  ES64L-G09RevE.01 30-Nov-2015

 -----------------------------------
 #p ccsd(t,maxcyc=200)/6-311++G(d,p)
 -----------------------------------

 -------------
 ccsd(t) iener
 -------------
 Symbolic Z-matrix:
 Charge =  0 Multiplicity = 1

                         Standard orientation:
 ---------------------------------------------------------------------
 Center     Atomic      Atomic             Coordinates (Angstroms)
 Number     Number       Type             X           Y           Z
 ---------------------------------------------------------------------
      1          6           0        0.126339   -0.608854   -0.000039
      2          6           0       -1.166120    0.137334   -0.000123
      3          1           0       -1.740569   -0.200844    0.870621
      4          1           0        1.948390   -0.200798   -0.000377
      5          1           0       -1.743172   -0.203669   -0.867935
      6          1           0       -1.079937    1.231093   -0.001737
      7          8           0        1.106747    0.275417    0.000050
 ---------------------------------------------------------------------

 SCF Done:  E(RHF) =  -152.885581307     A.U. after   13 cycles
 E2 =    -0.4780310088D+00 EUMP2 =    -0.15336361231557D+03
 CCSD(T)
 CCSD(T)= -0.15341230959D+03

 The electronic state is 1-A.
 Alpha  occ. eigenvalues --  -20.62706 -11.30132 -11.22356  -1.44449  -1.01619
 Alpha  occ. eigenvalues --   -0.82789  -0.68874  -0.61079  -0.60420  -0.54476
 Alpha  occ. eigenvalues --   -0.54113  -0.35741
 Alpha virt. eigenvalues --    0.04369   0.05586   0.07680   0.07747   0.10644
 Alpha virt. eigenvalues --    0.12705   0.13789   0.15766   0.16231   0.17649
 Alpha virt. eigenvalues --    0.17977   0.20054   0.21338   0.26866   0.29006

 Mulliken charges:
               1
     1  C   -0.055962
     2  C   -0.480591
     3  H    0.157034
     4  H    0.314176
     5  H    0.156921
     6  H    0.117481
     7  O   -0.209060
 Sum of Mulliken charges =  -0.00000

 Dipole moment (field-independent basis, Debye):
    X=              0.3695    Y=              0.6960    Z=             -0.0003  Tot=              0.7881
 Quadrupole moment (field-independent basis, Debye-Ang):
   XX=            -13.5581   YY=            -23.5051   ZZ=            -18.6049
   XY=             -1.0602   XZ=             -0.0024   YZ=              0.0006

 Q=-153.3944574\CCSD=-153.3944333\CCSD(T)=-153.4123096\RMSD=2.367e-09\P
 Normal termination of Gaussian 09 at Tue Oct 10 10:50:30 2017.
