 Gaussian 09, Revision E.01,
 Gaussian 09:  ES64L-G09RevE.01 30-Nov-2015

 -----------------------------------
 #p ccsd(t,maxcyc=200)/6-311++G(d,p)
 -----------------------------------

 -------------
 ccsd(t) iener
 -------------
 Symbolic Z-matrix:
 Charge =  0 Multiplicity = 1

                         Standard orientation:
 ---------------------------------------------------------------------
 Center     Atomic      Atomic             Coordinates (Angstroms)
 Number     Number       Type             X           Y           Z
 ---------------------------------------------------------------------
      1          6           0       -0.000000    0.442037    0.000000
      2          6           0        1.214553   -0.103714    0.000000
      3          1           0        2.090598    0.529719    0.000000
      4          1           0       -1.039235   -1.168134   -0.000000
      5          1           0       -0.160514    1.513797   -0.000000
      6          1           0        1.368455   -1.178073    0.000000
      7          8           0       -1.193328   -0.215906   -0.000000
 ---------------------------------------------------------------------

 SCF Done:  E(RHF) =  -152.940864733     A.U. after   12 cycles
 E2 =    -0.4895475814D+00 EUMP2 =    -0.15343041231484D+03
 CCSD(T)
 CCSD(T)= -0.15347344386D+03

 The electronic state is 1-A'.
 Alpha  occ. eigenvalues --  -20.59362 -11.30464 -11.22049  -1.40743  -1.02754
 Alpha  occ. eigenvalues --   -0.83621  -0.68353  -0.67263  -0.58012  -0.55033
 Alpha  occ. eigenvalues --   -0.54412  -0.35341
 Alpha virt. eigenvalues --    0.04514   0.05499   0.06530   0.08237   0.11768
 Alpha virt. eigenvalues --    0.12767   0.13294   0.15910   0.17340   0.19208
 Alpha virt. eigenvalues --    0.21134   0.22025   0.22337   0.25157   0.29006

 Mulliken charges:
               1
     1  C   -0.071161
     2  C   -0.293462
     3  H    0.114372
     4  H    0.250850
     5  H    0.171808
     6  H    0.106438
     7  O   -0.278845
 Sum of Mulliken charges =  -0.00000

 Dipole moment (field-independent basis, Debye):
    X=              0.8073    Y=             -0.8061    Z=              0.0000  Tot=              1.1408
 Quadrupole moment (field-independent basis, Debye-Ang):
   XX=            -20.7842   YY=            -14.1985   ZZ=            -21.4011
   XY=              1.2283   XZ=             -0.0000   YZ=             -0.0000

 547668\CCSD(T)=-153.4734439\RMSD=9.445e-09\PG=CS [SG(C2H4O1)]\\@
 Normal termination of Gaussian 09 at Tue Oct 10 10:50:14 2017.
