 Gaussian 09, Revision E.01,
 Gaussian 09:  ES64L-G09RevE.01 30-Nov-2015

 -----------------------------------
 #p ccsd(t,maxcyc=200)/6-311++G(d,p)
 -----------------------------------

 -------------
 ccsd(t) iener
 -------------
 Symbolic Z-matrix:
 Charge =  0 Multiplicity = 1

                         Standard orientation:
 ---------------------------------------------------------------------
 Center     Atomic      Atomic             Coordinates (Angstroms)
 Number     Number       Type             X           Y           Z
 ---------------------------------------------------------------------
      1          6           0        0.000000    0.415207    0.000000
      2          6           0        1.237217   -0.068541   -0.000000
      3          1           0        2.079015    0.609439   -0.000000
      4          1           0       -1.901656    0.136836    0.000000
      5          1           0        1.426894   -1.134796   -0.000000
      6          1           0       -0.203307    1.482987    0.000000
      7          8           0       -1.103031   -0.396808    0.000000
 ---------------------------------------------------------------------

 SCF Done:  E(RHF) =  -152.938374207     A.U. after   12 cycles
 E2 =    -0.4895998020D+00 EUMP2 =    -0.15342797400894D+03
 CCSD(T)
 CCSD(T)= -0.15347130761D+03

 The electronic state is 1-A'.
 Alpha  occ. eigenvalues --  -20.58956 -11.29971 -11.21441  -1.40220  -1.02743
 Alpha  occ. eigenvalues --   -0.79904  -0.74264  -0.62384  -0.57588  -0.57423
 Alpha  occ. eigenvalues --   -0.52080  -0.34758
 Alpha virt. eigenvalues --    0.03857   0.05954   0.06684   0.08161   0.11821
 Alpha virt. eigenvalues --    0.12666   0.14058   0.14875   0.17071   0.19602
 Alpha virt. eigenvalues --    0.21492   0.22393   0.22784   0.25924   0.29357

 Mulliken charges:
               1
     1  C   -0.054613
     2  C   -0.323960
     3  H    0.121762
     4  H    0.273213
     5  H    0.126376
     6  H    0.129960
     7  O   -0.272737
 Sum of Mulliken charges =  -0.00000

 Dipole moment (field-independent basis, Debye):
    X=             -0.8925    Y=              1.8774    Z=              0.0000  Tot=              2.0787
 Quadrupole moment (field-independent basis, Debye-Ang):
   XX=            -14.5210   YY=            -17.9184   ZZ=            -21.4048
   XY=             -2.6313   XZ=              0.0000   YZ=             -0.0000

 .4526492\CCSD(T)=-153.4713076\RMSD=6.804e-09\PG=CS [SG(C2H4O1)]\\@
 Normal termination of Gaussian 09 at Tue Oct 10 10:49:32 2017.
