 Gaussian 09, Revision E.01,
 Gaussian 09:  ES64L-G09RevE.01 30-Nov-2015

 -----------------------------------
 #p ccsd(t,maxcyc=200)/6-311++G(d,p)
 -----------------------------------

 -------------
 ccsd(t) iener
 -------------
 Symbolic Z-matrix:
 Charge =  1 Multiplicity = 4

                         Standard orientation:
 ---------------------------------------------------------------------
 Center     Atomic      Atomic             Coordinates (Angstroms)
 Number     Number       Type             X           Y           Z
 ---------------------------------------------------------------------
      1          6           0        0.923505    0.143869    0.000197
      2          6           0       -0.690997   -0.026326    0.000092
      3          1           0       -1.058746   -0.452575    0.933808
      4          1           0       -1.060264   -0.452143   -0.933242
      5          1           0       -0.594520    1.112320   -0.000789
      6          1           0        1.318482   -0.912857   -0.001514
 ---------------------------------------------------------------------

 SCF Done:  E(UHF) =  -77.5646948036     A.U. after   15 cycles
 E2 =    -0.2137577479D+00 EUMP2 =    -0.77778452551521D+02
 CCSD(T)
 CCSD(T)= -0.77820759245D+02

 The electronic state is 4-A.
 Alpha  occ. eigenvalues --  -11.61584 -11.59009  -1.38205  -1.15117  -0.95378
 Alpha  occ. eigenvalues --   -0.91098  -0.81287  -0.78233  -0.70994
 Alpha virt. eigenvalues --   -0.11683  -0.08756  -0.07619  -0.07212  -0.04010
 Alpha virt. eigenvalues --   -0.03227  -0.01915  -0.01251   0.00253   0.01354
 Alpha virt. eigenvalues --    0.02498   0.04802   0.05140   0.07805   0.08941

  Beta  occ. eigenvalues --  -11.57884 -11.55111  -1.23851  -0.96404  -0.87509
  Beta  occ. eigenvalues --   -0.86952
  Beta virt. eigenvalues --   -0.31084  -0.17744  -0.12837  -0.10503  -0.07945
  Beta virt. eigenvalues --   -0.06554  -0.06452  -0.02804  -0.02055  -0.00059
  Beta virt. eigenvalues --    0.00482   0.03010   0.03456   0.04300   0.06025

 Mulliken charges and spin densities:
               1          2
     1  C    0.221532   2.287442
     2  C   -0.289335   0.502193
     3  H    0.256291  -0.002013
     4  H    0.256440  -0.002037
     5  H    0.284171   0.116387
     6  H    0.270901   0.098028
 Sum of Mulliken charges =   1.00000   3.00000

 Dipole moment (field-independent basis, Debye):
    X=             -0.4804    Y=             -0.3455    Z=             -0.0015  Tot=              0.5918
 Quadrupole moment (field-independent basis, Debye-Ang):
   XX=             -6.8015   YY=             -8.8882   ZZ=            -11.1134
   XY=             -1.3655   XZ=             -0.0010   YZ=              0.0006

 P3-0=-77.8079724\MP4SDQ=-77.8120915\CCSD=-77.8136372\CCSD(T)=-77.82075
 Normal termination of Gaussian 09 at Tue Oct 10 10:53:05 2017.
