 Gaussian 09, Revision E.01,
 Gaussian 09:  ES64L-G09RevE.01 30-Nov-2015

 -----------------------------------
 #p ccsd(t,maxcyc=200)/6-311++G(d,p)
 -----------------------------------

 -------------
 ccsd(t) iener
 -------------
 Symbolic Z-matrix:
 Charge =  0 Multiplicity = 1

                         Standard orientation:
 ---------------------------------------------------------------------
 Center     Atomic      Atomic             Coordinates (Angstroms)
 Number     Number       Type             X           Y           Z
 ---------------------------------------------------------------------
      1          6           0       -0.847751   -0.190947   -0.037774
      2          6           0        0.591638    0.021517   -0.031471
      3          1           0        1.205196   -0.843009   -0.293677
      4          1           0        0.615686    0.076319    1.091770
      5          1           0        1.027247    0.966362   -0.385026
      6          1           0       -1.311447    0.816903    0.002406
 ---------------------------------------------------------------------

 SCF Done:  E(RHF) =  -77.9467799768     A.U. after   13 cycles
 E2 =    -0.2726043670D+00 EUMP2 =    -0.78219384343830D+02
 CCSD(T)
 CCSD(T)= -0.78265392412D+02

 The electronic state is 1-A.
 Alpha  occ. eigenvalues --  -11.26931 -11.24316  -1.04627  -0.78573  -0.61386
 Alpha  occ. eigenvalues --   -0.57402  -0.52155  -0.35871
 Alpha virt. eigenvalues --    0.04070   0.06135   0.06683   0.07162   0.08122
 Alpha virt. eigenvalues --    0.13120   0.14435   0.14654   0.17788   0.18689
 Alpha virt. eigenvalues --    0.19220   0.19803   0.22402   0.27438   0.29600

 Mulliken charges:
               1
     1  C   -0.017956
     2  C   -0.452429
     3  H    0.150346
     4  H    0.139226
     5  H    0.110799
     6  H    0.070014
 Sum of Mulliken charges =   0.00000

 Dipole moment (field-independent basis, Debye):
    X=              1.6614    Y=              1.8107    Z=              0.1554  Tot=              2.4623
 Quadrupole moment (field-independent basis, Debye-Ang):
   XX=            -16.2663   YY=            -15.4734   ZZ=            -13.0349
   XY=             -2.7410   XZ=              0.2551   YZ=              0.0459

 74102\MP4DQ=-78.2518209\MP4SDQ=-78.2538947\CCSD=-78.255453\CCSD(T)=-78
 Normal termination of Gaussian 09 at Tue Oct 10 10:50:46 2017.
