 Gaussian 09, Revision E.01,
 Gaussian 09:  ES64L-G09RevE.01 30-Nov-2015

 -----------------------------------
 #p ccsd(t,maxcyc=200)/6-311++G(d,p)
 -----------------------------------

 -------------
 ccsd(t) iener
 -------------
 Symbolic Z-matrix:
 Charge =  0 Multiplicity = 3

                         Standard orientation:
 ---------------------------------------------------------------------
 Center     Atomic      Atomic             Coordinates (Angstroms)
 Number     Number       Type             X           Y           Z
 ---------------------------------------------------------------------
      1          6           0        0.046867    0.852209    0.000000
      2          6           0        0.046867   -0.611855   -0.000000
      3          1           0       -0.456448   -1.027097    0.887201
      4          1           0        1.069975   -1.004469   -0.000000
      5          1           0       -0.456448   -1.027097   -0.887201
      6          1           0       -0.719488    1.616539    0.000000
 ---------------------------------------------------------------------

 SCF Done:  E(UHF) =  -77.9848717953     A.U. after   14 cycles
 E2 =    -0.2489748894D+00 EUMP2 =    -0.78233846684778D+02
 CCSD(T)
 CCSD(T)= -0.78274626656D+02

 The electronic state is 3-A".
 Alpha  occ. eigenvalues --  -11.25217 -11.23043  -1.04318  -0.83455  -0.60671
 Alpha  occ. eigenvalues --   -0.59018  -0.56208  -0.40775  -0.36560
 Alpha virt. eigenvalues --    0.04405   0.06065   0.07448   0.07752   0.13283
 Alpha virt. eigenvalues --    0.14344   0.14777   0.15589   0.16833   0.19298
 Alpha virt. eigenvalues --    0.19850   0.21076   0.28621   0.30087   0.30912

  Beta  occ. eigenvalues --  -11.23426 -11.20411  -0.98755  -0.71903  -0.56771
  Beta  occ. eigenvalues --   -0.55401  -0.53804
  Beta virt. eigenvalues --    0.04418   0.06220   0.07384   0.07596   0.09387
  Beta virt. eigenvalues --    0.10615   0.14115   0.15806   0.16722   0.18027
  Beta virt. eigenvalues --    0.19677   0.21360   0.23354   0.23722   0.30225

 Mulliken charges and spin densities:
               1          2
     1  C   -0.001898   2.153737
     2  C   -0.500525  -0.238319
     3  H    0.125378   0.075128
     4  H    0.135648   0.035241
     5  H    0.125378   0.075128
     6  H    0.116020  -0.100915
 Sum of Mulliken charges =   0.00000   2.00000

 Dipole moment (field-independent basis, Debye):
    X=             -0.5164    Y=             -0.5346    Z=             -0.0000  Tot=              0.7433
 Quadrupole moment (field-independent basis, Debye-Ang):
   XX=            -13.6956   YY=            -13.8303   ZZ=            -14.4682
   XY=             -1.1535   XZ=              0.0000   YZ=              0.0000

 4SDQ=-78.26569\CCSD=-78.2668444\CCSD(T)=-78.2746267\S2=2.01908\S2-1=2.
 Normal termination of Gaussian 09 at Tue Oct 10 10:52:14 2017.
