 Gaussian 09, Revision E.01,
 Gaussian 09:  ES64L-G09RevE.01 30-Nov-2015

 -----------------------------------
 #p ccsd(t,maxcyc=200)/6-311++G(d,p)
 -----------------------------------

 -------------
 ccsd(t) iener
 -------------
 Symbolic Z-matrix:
 Charge =  1 Multiplicity = 2

                         Standard orientation:
 ---------------------------------------------------------------------
 Center     Atomic      Atomic             Coordinates (Angstroms)
 Number     Number       Type             X           Y           Z
 ---------------------------------------------------------------------
      1          6           0       -0.787047   -0.127580   -0.000546
      2          6           0        0.584127    0.054236   -0.000405
      3          1           0        0.945916    1.091944   -0.001645
      4          1           0        1.002455   -0.543968   -0.846728
      5          1           0        0.996647   -0.538356    0.853338
      6          1           0       -1.727499    0.430441    0.000738
 ---------------------------------------------------------------------

 SCF Done:  E(UHF) =  -77.6770090313     A.U. after   17 cycles
 E2 =    -0.2391808444D+00 EUMP2 =    -0.77916189875758D+02
 CCSD(T)
 CCSD(T)= -0.77957503641D+02

 The electronic state is 2-A.
 Alpha  occ. eigenvalues --  -11.66160 -11.50438  -1.36749  -1.11483  -0.92753
 Alpha  occ. eigenvalues --   -0.88190  -0.82497  -0.72304
 Alpha virt. eigenvalues --   -0.24512  -0.11041  -0.08756  -0.07111  -0.06861
 Alpha virt. eigenvalues --   -0.03101  -0.01964  -0.01164  -0.00564   0.00204
 Alpha virt. eigenvalues --    0.02705   0.03022   0.04650   0.07153   0.09367

  Beta  occ. eigenvalues --  -11.63277 -11.50611  -1.32723  -1.06286  -0.89266
  Beta  occ. eigenvalues --   -0.83800  -0.82505
  Beta virt. eigenvalues --   -0.21236  -0.18821  -0.10776  -0.08509  -0.06801
  Beta virt. eigenvalues --   -0.06603  -0.02998  -0.01018  -0.00240  -0.00164
  Beta virt. eigenvalues --    0.00527   0.03100   0.03453   0.05001   0.08148

 Mulliken charges and spin densities:
               1          2
     1  C    0.597629   1.020888
     2  C   -0.687876  -0.105046
     3  H    0.235100   0.081256
     4  H    0.290691   0.006439
     5  H    0.290419   0.005702
     6  H    0.274036  -0.009239
 Sum of Mulliken charges =   1.00000   1.00000

 Dipole moment (field-independent basis, Debye):
    X=             -1.3130    Y=              0.1381    Z=              0.0057  Tot=              1.3202
 Quadrupole moment (field-independent basis, Debye-Ang):
   XX=             -5.0916   YY=            -10.5457   ZZ=            -10.0410
   XY=             -1.2259   XZ=              0.0017   YZ=             -0.0030

 PMP3-0=-77.9433563\MP4SDQ=-77.9472987\CCSD=-77.9485922\CCSD(T)=-77.957
 Normal termination of Gaussian 09 at Tue Oct 10 10:52:40 2017.
