 Gaussian 09, Revision E.01,
 Gaussian 09:  ES64L-G09RevE.01 30-Nov-2015

 -----------------------------------
 #p ccsd(t,maxcyc=200)/6-311++G(d,p)
 -----------------------------------

 -------------
 ccsd(t) iener
 -------------
 Symbolic Z-matrix:
 Charge =  1 Multiplicity = 2

                         Standard orientation:
 ---------------------------------------------------------------------
 Center     Atomic      Atomic             Coordinates (Angstroms)
 Number     Number       Type             X           Y           Z
 ---------------------------------------------------------------------
      1          6           0       -0.024300    1.070830   -0.000000
      2          6           0       -0.024300   -0.644004    0.000000
      3          1           0        0.290262   -0.065152    0.955594
      4          1           0        0.290262   -0.065152   -0.955594
      5          1           0       -1.052068   -1.008791    0.000000
      6          1           0        0.763142   -1.421860    0.000000
 ---------------------------------------------------------------------

 SCF Done:  E(UHF) =  -77.5418379511     A.U. after   15 cycles
 E2 =    -0.2494364517D+00 EUMP2 =    -0.77791274402806D+02
 CCSD(T)
 CCSD(T)= -0.77839890464D+02

 The electronic state is 2-A'.
 Alpha  occ. eigenvalues --  -11.68102 -11.58049  -1.38653  -1.07838  -0.91810
 Alpha  occ. eigenvalues --   -0.91140  -0.79334  -0.72449
 Alpha virt. eigenvalues --   -0.22394  -0.14385  -0.10903  -0.07767  -0.07406
 Alpha virt. eigenvalues --   -0.04269  -0.03307  -0.02275  -0.01470  -0.01224
 Alpha virt. eigenvalues --    0.00822   0.02019   0.04162   0.05249   0.08306

  Beta  occ. eigenvalues --  -11.65420 -11.58148  -1.35646  -1.01471  -0.91161
  Beta  occ. eigenvalues --   -0.89263  -0.75522
  Beta virt. eigenvalues --   -0.20307  -0.17634  -0.12664  -0.10166  -0.07718
  Beta virt. eigenvalues --   -0.07135  -0.04121  -0.02602  -0.01985  -0.01267
  Beta virt. eigenvalues --    0.01019   0.01453   0.02323   0.04408   0.05498

 Mulliken charges and spin densities:
               1          2
     1  C    0.416433   0.984577
     2  C   -0.453482  -0.010481
     3  H    0.234003  -0.018142
     4  H    0.234003  -0.018142
     5  H    0.277889   0.037170
     6  H    0.291153   0.025019
 Sum of Mulliken charges =   1.00000   1.00000

 Dipole moment (field-independent basis, Debye):
    X=              0.4225    Y=             -1.4161    Z=             -0.0000  Tot=              1.4778
 Quadrupole moment (field-independent basis, Debye-Ang):
   XX=            -11.1307   YY=             -9.5167   ZZ=             -9.3702
   XY=             -0.1628   XZ=             -0.0000   YZ=              0.0000

 05\MP4SDQ=-77.8271887\CCSD=-77.8289031\CCSD(T)=-77.8398905\S2=0.76368\
 Normal termination of Gaussian 09 at Tue Oct 10 10:52:37 2017.
