 Gaussian 09, Revision E.01,
 Gaussian 09:  ES64L-G09RevE.01 30-Nov-2015

 -----------------------------------
 #p ccsd(t,maxcyc=200)/6-311++G(d,p)
 -----------------------------------

 -------------
 ccsd(t) iener
 -------------
 Symbolic Z-matrix:
 Charge =  0 Multiplicity = 1

                         Standard orientation:
 ---------------------------------------------------------------------
 Center     Atomic      Atomic             Coordinates (Angstroms)
 Number     Number       Type             X           Y           Z
 ---------------------------------------------------------------------
      1          6           0        0.000000   -0.000000   -0.664377
      2          6           0       -0.000000   -0.000000    0.664377
      3          1           0       -0.000000    0.922658    1.235409
      4          1           0       -0.000000   -0.922658   -1.235409
      5          1           0       -0.000000   -0.922658    1.235409
      6          1           0        0.000000    0.922658   -1.235409
 ---------------------------------------------------------------------

 SCF Done:  E(RHF) =  -78.0557667382     A.U. after    9 cycles
 E2 =    -0.2906297808D+00 EUMP2 =    -0.78346396518932D+02
 CCSD(T)
 CCSD(T)= -0.78385793357D+02

 The electronic state is 1-AG.
 Alpha  occ. eigenvalues --  -11.23342 -11.23168  -1.03640  -0.79307  -0.64359
 Alpha  occ. eigenvalues --   -0.59086  -0.50625  -0.37803
 Alpha virt. eigenvalues --    0.04930   0.06189   0.06387   0.08205   0.10640
 Alpha virt. eigenvalues --    0.12941   0.14079   0.17605   0.18503   0.20616
 Alpha virt. eigenvalues --    0.22211   0.22664   0.23197   0.26428   0.28729

 Mulliken charges:
               1
     1  C   -0.224282
     2  C   -0.224282
     3  H    0.112141
     4  H    0.112141
     5  H    0.112141
     6  H    0.112141
 Sum of Mulliken charges =  -0.00000

 Dipole moment (field-independent basis, Debye):
    X=              0.0000    Y=              0.0000    Z=              0.0000  Tot=              0.0000
 Quadrupole moment (field-independent basis, Debye-Ang):
   XX=            -16.1639   YY=            -12.4128   ZZ=            -12.1958
   XY=              0.0000   XZ=              0.0000   YZ=              0.0000

 78.3709309\MP4SDQ=-78.3734226\CCSD=-78.3741476\CCSD(T)=-78.3857934\RMS
 Normal termination of Gaussian 09 at Tue Oct 10 10:50:42 2017.
