 Gaussian 09, Revision E.01,
 Gaussian 09:  ES64L-G09RevE.01 30-Nov-2015

 -----------------------------------
 #p ccsd(t,maxcyc=200)/6-311++G(d,p)
 -----------------------------------

 -------------
 ccsd(t) iener
 -------------
 Symbolic Z-matrix:
 Charge =  0 Multiplicity = 3

                         Standard orientation:
 ---------------------------------------------------------------------
 Center     Atomic      Atomic             Coordinates (Angstroms)
 Number     Number       Type             X           Y           Z
 ---------------------------------------------------------------------
      1          6           0        0.000000    0.000000    0.723770
      2          6           0        0.000000    0.000000   -0.723770
      3          1           0        0.924859    0.000000   -1.296674
      4          1           0        0.000000    0.924859    1.296674
      5          1           0       -0.924859   -0.000000   -1.296674
      6          1           0       -0.000000   -0.924859    1.296674
 ---------------------------------------------------------------------

 SCF Done:  E(UHF) =  -77.9869284241     A.U. after   12 cycles
 E2 =    -0.2509806840D+00 EUMP2 =    -0.78237909108101D+02
 CCSD(T)
 CCSD(T)= -0.78280289074D+02

 The electronic state is 3-A1.
 Alpha  occ. eigenvalues --  -11.23839 -11.23754  -1.04603  -0.83990  -0.60642
 Alpha  occ. eigenvalues --   -0.60642  -0.57756  -0.35848  -0.35848
 Alpha virt. eigenvalues --    0.04657   0.06446   0.06922   0.06922   0.14554
 Alpha virt. eigenvalues --    0.14554   0.14560   0.15073   0.20325   0.20377
 Alpha virt. eigenvalues --    0.21132   0.21132   0.25904   0.30811   0.33461

  Beta  occ. eigenvalues --  -11.21791 -11.21707  -0.94386  -0.75712  -0.56164
  Beta  occ. eigenvalues --   -0.56164  -0.54896
  Beta virt. eigenvalues --    0.04855   0.06689   0.06788   0.06788   0.09179
  Beta virt. eigenvalues --    0.09179   0.14695   0.15287   0.19671   0.19671
  Beta virt. eigenvalues --    0.21129   0.21412   0.22607   0.22607   0.28432

 Mulliken charges and spin densities:
               1          2
     1  C   -0.228905   1.107089
     2  C   -0.228905   1.107089
     3  H    0.114452  -0.053545
     4  H    0.114452  -0.053545
     5  H    0.114452  -0.053545
     6  H    0.114452  -0.053545
 Sum of Mulliken charges =  -0.00000   2.00000

 Dipole moment (field-independent basis, Debye):
    X=             -0.0000    Y=             -0.0000    Z=              0.0000  Tot=              0.0000
 Quadrupole moment (field-independent basis, Debye-Ang):
   XX=            -14.1388   YY=            -14.1388   ZZ=            -13.2907
   XY=             -0.0000   XZ=              0.0000   YZ=              0.0000

 MP4SDQ=-78.2712332\CCSD=-78.2725114\CCSD(T)=-78.2802891\S2=2.013218\S2
 Normal termination of Gaussian 09 at Tue Oct 10 10:51:02 2017.
