 Gaussian 09, Revision E.01,
 Gaussian 09:  ES64L-G09RevE.01 30-Nov-2015

 -----------------------------------
 #p ccsd(t,maxcyc=200)/6-311++G(d,p)
 -----------------------------------

 -------------
 ccsd(t) iener
 -------------
 Symbolic Z-matrix:
 Charge =  1 Multiplicity = 4

                         Standard orientation:
 ---------------------------------------------------------------------
 Center     Atomic      Atomic             Coordinates (Angstroms)
 Number     Number       Type             X           Y           Z
 ---------------------------------------------------------------------
      1          6           0        0.000000    1.350111   -0.092235
      2          1           0        0.000000    2.156907    0.635269
      3          1           0        0.000000    1.592083   -1.155901
      4          6           0        0.000000    0.000000    0.358013
      5          6           0       -0.000000   -1.350111   -0.092235
      6          1           0       -0.000000   -1.592083   -1.155901
      7          1           0       -0.000000   -2.156907    0.635269
 ---------------------------------------------------------------------

 SCF Done:  E(UHF) =  -115.522270679     A.U. after   14 cycles
 E2 =    -0.3186301292D+00 EUMP2 =    -0.11584090080849D+03
 CCSD(T)
 CCSD(T)= -0.11589638569D+03

 The electronic state is 4-B2.
 Alpha  occ. eigenvalues --  -11.61875 -11.53490 -11.53486  -1.39286  -1.24303
 Alpha  occ. eigenvalues --   -1.02168  -0.91790  -0.89344  -0.83731  -0.79080
 Alpha  occ. eigenvalues --   -0.68530  -0.60484
 Alpha virt. eigenvalues --   -0.14488  -0.09951  -0.07101  -0.07030  -0.04301
 Alpha virt. eigenvalues --   -0.04006  -0.03704  -0.00767  -0.00303   0.02243
 Alpha virt. eigenvalues --    0.02510   0.03024   0.04568   0.05009   0.06911

  Beta  occ. eigenvalues --  -11.58509 -11.51852 -11.51849  -1.25523  -1.15609
  Beta  occ. eigenvalues --   -0.94586  -0.85877  -0.84996  -0.81427
  Beta virt. eigenvalues --   -0.27045  -0.15420  -0.13418  -0.09018  -0.06776
  Beta virt. eigenvalues --   -0.06772  -0.04070  -0.03890  -0.03052   0.00538
  Beta virt. eigenvalues --    0.00648   0.02404   0.02564   0.04184   0.05396

 Mulliken charges and spin densities:
               1          2
     1  C   -0.393514   0.921295
     2  H    0.240049  -0.062959
     3  H    0.247968  -0.013495
     4  C    0.810995   1.310318
     5  C   -0.393514   0.921295
     6  H    0.247968  -0.013495
     7  H    0.240049  -0.062959
 Sum of Mulliken charges =   1.00000   3.00000

 Dipole moment (field-independent basis, Debye):
    X=             -0.0000    Y=             -0.0000    Z=             -0.3426  Tot=              0.3426
 Quadrupole moment (field-independent basis, Debye-Ang):
   XX=            -17.2994   YY=             -5.2976   ZZ=            -14.2160
   XY=              0.0000   XZ=              0.0000   YZ=              0.0000

 8794787\MP4SDQ=-115.8838312\CCSD=-115.8851601\CCSD(T)=-115.8963857\S2=
 Normal termination of Gaussian 09 at Tue Oct 10 11:47:03 2017.
