 Gaussian 09, Revision E.01,
 Gaussian 09:  ES64L-G09RevE.01 30-Nov-2015

 -----------------------------------
 #p ccsd(t,maxcyc=200)/6-311++G(d,p)
 -----------------------------------

 -------------
 ccsd(t) iener
 -------------
 Symbolic Z-matrix:
 Charge =  1 Multiplicity = 4

                         Standard orientation:
 ---------------------------------------------------------------------
 Center     Atomic      Atomic             Coordinates (Angstroms)
 Number     Number       Type             X           Y           Z
 ---------------------------------------------------------------------
      1          6           0        1.708007   -0.369515   -0.330387
      2          6           0       -0.575189    0.686275   -0.210311
      3          6           0        0.720133    0.249312    0.406162
      4          1           0       -1.552568   -0.780412    0.779862
      5          1           0       -1.120716    1.428090    0.371101
      6          1           0       -0.529271    0.928711   -1.267630
      7          1           0        0.827726    0.272727    1.494602
      8          8           0       -1.092860   -0.655693   -0.071340
 ---------------------------------------------------------------------

 SCF Done:  E(UHF) =  -190.349472701     A.U. after   23 cycles
 E2 =    -0.5257084104D+00 EUMP2 =    -0.19087518111178D+03
 CCSD(T)
 CCSD(T)= -0.19093859118D+03

 The electronic state is 4-A.
 Alpha  occ. eigenvalues --  -20.82797 -11.61004 -11.59701 -11.53634  -1.62836
 Alpha  occ. eigenvalues --   -1.38588  -1.19821  -1.04635  -0.95401  -0.90443
 Alpha  occ. eigenvalues --   -0.88126  -0.82443  -0.76832  -0.75334  -0.71025
 Alpha  occ. eigenvalues --   -0.66855
 Alpha virt. eigenvalues --   -0.16085  -0.10276  -0.07397  -0.06830  -0.05898
 Alpha virt. eigenvalues --   -0.03105  -0.02198  -0.02041  -0.01517   0.00961
 Alpha virt. eigenvalues --    0.01748   0.02596   0.03599   0.04560   0.05072

  Beta  occ. eigenvalues --  -20.81862 -11.60518 -11.53458 -11.52145  -1.60295
  Beta  occ. eigenvalues --   -1.29034  -1.12995  -0.97600  -0.91390  -0.86726
  Beta  occ. eigenvalues --   -0.82692  -0.74874  -0.68402
  Beta virt. eigenvalues --   -0.23917  -0.19617  -0.11078  -0.09136  -0.06718
  Beta virt. eigenvalues --   -0.06276  -0.05003  -0.03862  -0.01958  -0.01173
  Beta virt. eigenvalues --   -0.00691   0.00047   0.02495   0.02772   0.04102

 Mulliken charges and spin densities:
               1          2
     1  C    0.388674   2.542290
     2  C   -0.414476   0.071458
     3  C    0.171738   0.215117
     4  H    0.319433  -0.006791
     5  H    0.234032   0.003656
     6  H    0.248400  -0.000093
     7  H    0.268318   0.046714
     8  O   -0.216119   0.127648
 Sum of Mulliken charges =   1.00000   3.00000

 Dipole moment (field-independent basis, Debye):
    X=              1.7364    Y=              1.7254    Z=              2.0874  Tot=              3.2171
 Quadrupole moment (field-independent basis, Debye-Ang):
   XX=            -12.9391   YY=            -19.9318   ZZ=            -17.2609
   XY=             -1.3855   XZ=             -2.5186   YZ=             -1.1306

 P3-0=-190.9014619\MP4SDQ=-190.9130547\CCSD=-190.9163371\CCSD(T)=-190.9
 Normal termination of Gaussian 09 at Tue Oct 10 11:25:41 2017.
