 Gaussian 09, Revision E.01,
 Gaussian 09:  ES64L-G09RevE.01 30-Nov-2015

 -----------------------------------
 #p ccsd(t,maxcyc=200)/6-311++G(d,p)
 -----------------------------------

 -------------
 ccsd(t) iener
 -------------
 Symbolic Z-matrix:
 Charge =  1 Multiplicity = 2

                         Standard orientation:
 ---------------------------------------------------------------------
 Center     Atomic      Atomic             Coordinates (Angstroms)
 Number     Number       Type             X           Y           Z
 ---------------------------------------------------------------------
      1          6           0       -1.226945    0.000316   -0.014573
      2          1           0       -1.538232   -0.010853    1.057607
      3          1           0       -1.643479    0.920844   -0.440146
      4          1           0       -1.642585   -0.913167   -0.456492
      5          6           0        0.184254    0.000325   -0.017758
      6          6           0        1.429338   -0.000060    0.002587
      7          1           0        2.504413   -0.000312    0.017492
 ---------------------------------------------------------------------

 SCF Done:  E(UHF) =  -115.564997885     A.U. after   26 cycles
 E2 =    -0.3691409945D+00 EUMP2 =    -0.11593413887981D+03
 CCSD(T)
 CCSD(T)= -0.11598655876D+03

 The electronic state is 2-A.
 Alpha  occ. eigenvalues --  -11.59991 -11.58271 -11.48317  -1.39698  -1.25061
 Alpha  occ. eigenvalues --   -1.01727  -0.89908  -0.84668  -0.84114  -0.72324
 Alpha  occ. eigenvalues --   -0.69554
 Alpha virt. eigenvalues --   -0.12291  -0.10377  -0.09951  -0.07642  -0.05580
 Alpha virt. eigenvalues --   -0.05261  -0.04263  -0.02102  -0.01541   0.00409
 Alpha virt. eigenvalues --    0.00929   0.01858   0.02410   0.04700   0.04975

  Beta  occ. eigenvalues --  -11.59500 -11.56755 -11.48367  -1.33561  -1.22190
  Beta  occ. eigenvalues --   -0.99839  -0.89279  -0.84155  -0.79693  -0.67411
  Beta virt. eigenvalues --   -0.27540  -0.10226  -0.09344  -0.07560  -0.06590
  Beta virt. eigenvalues --   -0.05018  -0.03953  -0.03518  -0.01176  -0.00330
  Beta virt. eigenvalues --    0.00630   0.01898   0.01934   0.02847   0.05000

 Mulliken charges and spin densities:
               1          2
     1  C   -0.271605  -0.044870
     2  H    0.256697   0.048285
     3  H    0.245476   0.004040
     4  H    0.245825   0.004503
     5  C    2.028005   0.273584
     6  C   -1.780554   0.762795
     7  H    0.276156  -0.048338
 Sum of Mulliken charges =   1.00000   1.00000

 Dipole moment (field-independent basis, Debye):
    X=              1.4906    Y=             -0.0036    Z=              0.1748  Tot=              1.5009
 Quadrupole moment (field-independent basis, Debye-Ang):
   XX=             -2.0415   YY=            -16.8987   ZZ=            -15.3783
   XY=              0.0039   XZ=             -0.1911   YZ=             -0.0076

 9697385\CCSD=-115.9707274\CCSD(T)=-115.9865588\S2=0.762815\S2-1=0.7565
 Normal termination of Gaussian 09 at Tue Oct 10 11:40:41 2017.
