 Gaussian 09, Revision E.01,
 Gaussian 09:  ES64L-G09RevE.01 30-Nov-2015

 -----------------------------------
 #p ccsd(t,maxcyc=200)/6-311++G(d,p)
 -----------------------------------

 -------------
 ccsd(t) iener
 -------------
 Symbolic Z-matrix:
 Charge =  1 Multiplicity = 2

                         Standard orientation:
 ---------------------------------------------------------------------
 Center     Atomic      Atomic             Coordinates (Angstroms)
 Number     Number       Type             X           Y           Z
 ---------------------------------------------------------------------
      1          6           0        0.000000    0.000000    0.827073
      2          1           0       -0.857559   -0.283163    1.463583
      3          1           0        0.857559    0.283163    1.463583
      4          6           0       -0.000000    0.663650   -0.493610
      5          6           0       -0.000000   -0.663650   -0.493610
      6          1           0        0.183008    1.611961   -0.983144
      7          1           0       -0.183008   -1.611961   -0.983144
 ---------------------------------------------------------------------

 SCF Done:  E(UHF) =  -115.542349941     A.U. after   16 cycles
 E2 =    -0.3795357218D+00 EUMP2 =    -0.11592188566248D+03
 CCSD(T)
 CCSD(T)= -0.11597332370D+03

 The electronic state is 2-B.
 Alpha  occ. eigenvalues --  -11.57633 -11.57444 -11.52278  -1.49311  -1.11308
 Alpha  occ. eigenvalues --   -1.06854  -0.97120  -0.88740  -0.79703  -0.73797
 Alpha  occ. eigenvalues --   -0.65332
 Alpha virt. eigenvalues --   -0.15504  -0.09676  -0.08387  -0.07926  -0.06752
 Alpha virt. eigenvalues --   -0.03108  -0.02794  -0.01984  -0.01351   0.00647
 Alpha virt. eigenvalues --    0.01488   0.03181   0.03534   0.03814   0.05585

  Beta  occ. eigenvalues --  -11.56753 -11.56591 -11.52276  -1.44899  -1.07474
  Beta  occ. eigenvalues --   -1.04217  -0.95671  -0.82194  -0.77342  -0.72231
  Beta virt. eigenvalues --   -0.25039  -0.09814  -0.09407  -0.08125  -0.07775
  Beta virt. eigenvalues --   -0.06536  -0.02901  -0.02699  -0.01778  -0.00424
  Beta virt. eigenvalues --    0.01041   0.03166   0.03513   0.04020   0.04556

 Mulliken charges and spin densities:
               1          2
     1  C   -0.331127  -0.050164
     2  H    0.237841   0.109721
     3  H    0.237841   0.109721
     4  C    0.127764   0.430834
     5  C    0.127764   0.430834
     6  H    0.299958  -0.015474
     7  H    0.299958  -0.015474
 Sum of Mulliken charges =   1.00000   1.00000

 Dipole moment (field-independent basis, Debye):
    X=              0.0000    Y=             -0.0000    Z=             -0.5125  Tot=              0.5125
 Quadrupole moment (field-independent basis, Debye-Ang):
   XX=            -15.4070   YY=            -10.5006   ZZ=            -11.4255
   XY=              1.3069   XZ=              0.0000   YZ=              0.0000

 CCSD=-115.9560149\CCSD(T)=-115.9733237\S2=0.767461\S2-1=0.755883\S2A=0
 Normal termination of Gaussian 09 at Tue Oct 10 11:45:23 2017.
