 Gaussian 09, Revision E.01,
 Gaussian 09:  ES64L-G09RevE.01 30-Nov-2015

 -----------------------------------
 #p ccsd(t,maxcyc=200)/6-311++G(d,p)
 -----------------------------------

 -------------
 ccsd(t) iener
 -------------
 Symbolic Z-matrix:
 Charge =  1 Multiplicity = 2

                         Standard orientation:
 ---------------------------------------------------------------------
 Center     Atomic      Atomic             Coordinates (Angstroms)
 Number     Number       Type             X           Y           Z
 ---------------------------------------------------------------------
      1          6           0       -1.093369   -0.399834    0.000000
      2          1           0       -0.962091   -1.478775   -0.000000
      3          1           0       -2.109005   -0.011411    0.000000
      4          6           0       -0.000000    0.450361    0.000000
      5          1           0        2.288097    0.214094   -0.000000
      6          1           0       -0.129850    1.535226    0.000000
      7          6           0        1.245510   -0.093716   -0.000000
 ---------------------------------------------------------------------

 SCF Done:  E(UHF) =  -115.571620925     A.U. after   21 cycles
 E2 =    -0.3449489285D+00 EUMP2 =    -0.11591656985307D+03
 CCSD(T)
 CCSD(T)= -0.11597746090D+03

 The electronic state is 2-A'.
 Alpha  occ. eigenvalues --  -11.57003 -11.55607 -11.51560  -1.37044  -1.18892
 Alpha  occ. eigenvalues --   -1.02221  -0.94164  -0.87244  -0.81608  -0.68995
 Alpha  occ. eigenvalues --   -0.68922
 Alpha virt. eigenvalues --   -0.22776  -0.09476  -0.07548  -0.07300  -0.06816
 Alpha virt. eigenvalues --   -0.04516  -0.02791  -0.01921  -0.00569   0.00732
 Alpha virt. eigenvalues --    0.01382   0.02203   0.04394   0.05127   0.05196

  Beta  occ. eigenvalues --  -11.56200 -11.53395 -11.51876  -1.35427  -1.14812
  Beta  occ. eigenvalues --   -0.98722  -0.92641  -0.85493  -0.80354  -0.68463
  Beta virt. eigenvalues --   -0.21030  -0.14553  -0.08922  -0.07271  -0.06976
  Beta virt. eigenvalues --   -0.06509  -0.04372  -0.02384  -0.00679  -0.00097
  Beta virt. eigenvalues --    0.00990   0.01715   0.02402   0.04621   0.05584

 Mulliken charges and spin densities:
               1          2
     1  C   -0.158543  -0.401716
     2  H    0.254701   0.034852
     3  H    0.240740   0.030397
     4  C    0.103383  -0.213665
     5  H    0.285861  -0.037414
     6  H    0.297419   0.060456
     7  C   -0.023562   1.527090
 Sum of Mulliken charges =   1.00000   1.00000

 Dipole moment (field-independent basis, Debye):
    X=             -0.1643    Y=             -0.0865    Z=              0.0000  Tot=              0.1857
 Quadrupole moment (field-independent basis, Debye-Ang):
   XX=             -4.7495   YY=            -13.4167   ZZ=            -17.4810
   XY=              1.9105   XZ=             -0.0000   YZ=             -0.0000

 CCSD(T)=-115.9774609\S2=1.05592\S2-1=1.006657\S2A=0.756947\RMSD=9.009e
 Normal termination of Gaussian 09 at Tue Oct 10 11:43:56 2017.
