 Gaussian 09, Revision E.01,
 Gaussian 09:  ES64L-G09RevE.01 30-Nov-2015

 -----------------------------------
 #p ccsd(t,maxcyc=200)/6-311++G(d,p)
 -----------------------------------

 -------------
 ccsd(t) iener
 -------------
 Symbolic Z-matrix:
 Charge =  0 Multiplicity = 3

                         Standard orientation:
 ---------------------------------------------------------------------
 Center     Atomic      Atomic             Coordinates (Angstroms)
 Number     Number       Type             X           Y           Z
 ---------------------------------------------------------------------
      1          6           0       -1.187437   -0.178481    0.000107
      2          1           0       -1.326425   -1.252686    0.000002
      3          1           0       -2.069328    0.448563    0.000271
      4          6           0        0.080409    0.378085    0.000034
      5          1           0        2.312026   -0.047584   -0.000252
      6          1           0        0.148370    1.471897    0.000148
      7          6           0        1.262921   -0.302969   -0.000169
 ---------------------------------------------------------------------

 SCF Done:  E(UHF) =  -115.860561919     A.U. after   17 cycles
 E2 =    -0.3556395050D+00 EUMP2 =    -0.11621620142433D+03
 CCSD(T)
 CCSD(T)= -0.11627791352D+03

 The electronic state is 3-A.
 Alpha  occ. eigenvalues --  -11.25951 -11.23981 -11.23301  -1.08589  -0.95156
 Alpha  occ. eigenvalues --   -0.75558  -0.66489  -0.59545  -0.54665  -0.47429
 Alpha  occ. eigenvalues --   -0.41399  -0.34963
 Alpha virt. eigenvalues --    0.04431   0.05503   0.06228   0.07909   0.11767
 Alpha virt. eigenvalues --    0.12900   0.13851   0.15124   0.15819   0.17516
 Alpha virt. eigenvalues --    0.18336   0.19737   0.19921   0.21377   0.22623

  Beta  occ. eigenvalues --  -11.24877 -11.22001 -11.21626  -1.05542  -0.85018
  Beta  occ. eigenvalues --   -0.70726  -0.64536  -0.57232  -0.52570  -0.41307
  Beta virt. eigenvalues --    0.04318   0.05557   0.06047   0.07893   0.08400
  Beta virt. eigenvalues --    0.09212   0.11062   0.15630   0.15868   0.16690
  Beta virt. eigenvalues --    0.17973   0.18659   0.20142   0.20255   0.20508

 Mulliken charges and spin densities:
               1          2
     1  C   -0.366937   1.089501
     2  H    0.149323  -0.083918
     3  H    0.114220  -0.085659
     4  C    0.090846  -0.960648
     5  H    0.155690  -0.082144
     6  H    0.170187   0.122178
     7  C   -0.313329   2.000692
 Sum of Mulliken charges =  -0.00000   2.00000

 Dipole moment (field-independent basis, Debye):
    X=              0.0241    Y=              0.6163    Z=              0.0001  Tot=              0.6168
 Quadrupole moment (field-independent basis, Debye-Ang):
   XX=            -16.3839   YY=            -18.3582   ZZ=            -21.7478
   XY=              0.6904   XZ=             -0.0005   YZ=              0.0003

 =-116.2567351\CCSD=-116.262968\CCSD(T)=-116.2779135\S2=2.236075\S2-1=2
 Normal termination of Gaussian 09 at Tue Oct 10 11:37:36 2017.
