 Gaussian 09, Revision E.01,
 Gaussian 09:  ES64L-G09RevE.01 30-Nov-2015

 -----------------------------------
 #p ccsd(t,maxcyc=200)/6-311++G(d,p)
 -----------------------------------

 -------------
 ccsd(t) iener
 -------------
 Symbolic Z-matrix:
 Charge =  0 Multiplicity = 3

                         Standard orientation:
 ---------------------------------------------------------------------
 Center     Atomic      Atomic             Coordinates (Angstroms)
 Number     Number       Type             X           Y           Z
 ---------------------------------------------------------------------
      1          6           0        0.064227   -0.488230    0.748135
      2          6           0        0.064227    0.792618    0.000000
      3          6           0        0.064227   -0.488230   -0.748135
      4          1           0       -0.687105   -0.847417   -1.444193
      5          1           0       -0.687105   -0.847417    1.444193
      6          1           0       -0.797532    1.460785    0.000000
      7          1           0        1.015662    1.337101    0.000000
 ---------------------------------------------------------------------

 SCF Done:  E(UHF) =  -115.789217225     A.U. after   17 cycles
 E2 =    -0.3779435794D+00 EUMP2 =    -0.11616716080441D+03
 CCSD(T)
 CCSD(T)= -0.11621949473D+03

 The electronic state is 3-A".
 Alpha  occ. eigenvalues --  -11.26306 -11.26234 -11.23719  -1.16550  -0.82523
 Alpha  occ. eigenvalues --   -0.81615  -0.67879  -0.62067  -0.47501  -0.47017
 Alpha  occ. eigenvalues --   -0.43214  -0.34043
 Alpha virt. eigenvalues --    0.04672   0.05908   0.06096   0.06919   0.12307
 Alpha virt. eigenvalues --    0.12490   0.13842   0.14439   0.15028   0.17307
 Alpha virt. eigenvalues --    0.19375   0.19528   0.20582   0.21742   0.22401

  Beta  occ. eigenvalues --  -11.24159 -11.23640 -11.23584  -1.11308  -0.78969
  Beta  occ. eigenvalues --   -0.73342  -0.65255  -0.56209  -0.44647  -0.42448
  Beta virt. eigenvalues --    0.04158   0.05223   0.05996   0.06226   0.07296
  Beta virt. eigenvalues --    0.10929   0.13033   0.13268   0.14482   0.16464
  Beta virt. eigenvalues --    0.17587   0.19516   0.19675   0.20862   0.22241

 Mulliken charges and spin densities:
               1          2
     1  C   -0.068328   1.128116
     2  C   -0.354732  -0.321678
     3  C   -0.068328   1.128116
     4  H    0.121614  -0.038242
     5  H    0.121614  -0.038242
     6  H    0.117780   0.039251
     7  H    0.130380   0.102678
 Sum of Mulliken charges =  -0.00000   2.00000

 Dipole moment (field-independent basis, Debye):
    X=             -1.0153    Y=              0.6397    Z=              0.0000  Tot=              1.2000
 Quadrupole moment (field-independent basis, Debye-Ang):
   XX=            -18.6063   YY=            -19.3579   ZZ=            -19.4809
   XY=              1.3159   XZ=             -0.0000   YZ=             -0.0000

 =-116.2043408\CCSD(T)=-116.2194947\S2=2.016935\S2-1=2.005126\S2A=2.000
 Normal termination of Gaussian 09 at Tue Oct 10 11:38:41 2017.
