 Gaussian 09, Revision E.01,
 Gaussian 09:  ES64L-G09RevE.01 30-Nov-2015

 -----------------------------------
 #p ccsd(t,maxcyc=200)/6-311++G(d,p)
 -----------------------------------

 -------------
 ccsd(t) iener
 -------------
 Symbolic Z-matrix:
 Charge =  0 Multiplicity = 3

                         Standard orientation:
 ---------------------------------------------------------------------
 Center     Atomic      Atomic             Coordinates (Angstroms)
 Number     Number       Type             X           Y           Z
 ---------------------------------------------------------------------
      1          6           0       -1.282044   -0.085224   -0.000017
      2          1           0       -2.125473    0.596478   -0.000108
      3          1           0       -1.512705   -1.152978    0.000094
      4          6           0        0.000000    0.355948   -0.000039
      5          6           0        1.282044   -0.085224    0.000036
      6          1           0        1.512705   -1.152978    0.000156
      7          1           0        2.125473    0.596478   -0.000021
 ---------------------------------------------------------------------

 SCF Done:  E(UHF) =  -115.846307621     A.U. after   14 cycles
 E2 =    -0.3690970642D+00 EUMP2 =    -0.11621540468477D+03
 CCSD(T)
 CCSD(T)= -0.11627696810D+03

 The electronic state is 3-A.
 Alpha  occ. eigenvalues --  -11.25216 -11.24922 -11.24882  -1.09438  -0.96994
 Alpha  occ. eigenvalues --   -0.74475  -0.65101  -0.62706  -0.57725  -0.47828
 Alpha  occ. eigenvalues --   -0.36947  -0.34268
 Alpha virt. eigenvalues --    0.04571   0.05868   0.06132   0.08023   0.11145
 Alpha virt. eigenvalues --    0.11235   0.15070   0.15590   0.16995   0.17200
 Alpha virt. eigenvalues --    0.18274   0.20189   0.20588   0.22511   0.23202

  Beta  occ. eigenvalues --  -11.23904 -11.23311 -11.23294  -1.02572  -0.89867
  Beta  occ. eigenvalues --   -0.69727  -0.60019  -0.59511  -0.55443  -0.39131
  Beta virt. eigenvalues --    0.04322   0.05981   0.06260   0.06271   0.08087
  Beta virt. eigenvalues --    0.08977   0.10948   0.13010   0.17048   0.17359
  Beta virt. eigenvalues --    0.17581   0.18760   0.20316   0.21077   0.21078

 Mulliken charges and spin densities:
               1          2
     1  C   -0.511895   0.933213
     2  H    0.144460  -0.053132
     3  H    0.133668   0.008227
     4  C    0.467534   0.223383
     5  C   -0.511895   0.933213
     6  H    0.133668   0.008227
     7  H    0.144460  -0.053132
 Sum of Mulliken charges =  -0.00000   2.00000

 Dipole moment (field-independent basis, Debye):
    X=             -0.0000    Y=             -0.6410    Z=              0.0001  Tot=              0.6410
 Quadrupole moment (field-independent basis, Debye-Ang):
   XX=            -16.1125   YY=            -18.4266   ZZ=            -21.8836
   XY=              0.0000   XZ=              0.0001   YZ=             -0.0004

 116.2606281\CCSD(T)=-116.2769681\S2=2.120875\S2-1=2.077139\S2A=2.00161
 Normal termination of Gaussian 09 at Tue Oct 10 11:35:19 2017.
