 Gaussian 09, Revision E.01,
 Gaussian 09:  ES64L-G09RevE.01 30-Nov-2015

 -----------------------------------
 #p ccsd(t,maxcyc=200)/6-311++G(d,p)
 -----------------------------------

 -------------
 ccsd(t) iener
 -------------
 Symbolic Z-matrix:
 Charge =  1 Multiplicity = 4

                         Standard orientation:
 ---------------------------------------------------------------------
 Center     Atomic      Atomic             Coordinates (Angstroms)
 Number     Number       Type             X           Y           Z
 ---------------------------------------------------------------------
      1          6           0        0.970876   -0.487742   -0.000000
      2          6           0        0.000000    0.817773    0.000000
      3          6           0       -0.669244   -0.481731    0.000000
      4          1           0        0.123683    1.358609    0.938375
      5          1           0        0.123683    1.358609   -0.938375
      6          1           0       -1.028579   -0.903506    0.938404
      7          1           0       -1.028579   -0.903506   -0.938404
 ---------------------------------------------------------------------

 SCF Done:  E(UHF) =  -115.471311013     A.U. after   16 cycles
 E2 =    -0.3347682476D+00 EUMP2 =    -0.11580607926094D+03
 CCSD(T)
 CCSD(T)= -0.11585913502D+03

 The electronic state is 4-A".
 Alpha  occ. eigenvalues --  -11.61276 -11.56536 -11.56305  -1.44924  -1.12538
 Alpha  occ. eigenvalues --   -1.10712  -0.95772  -0.89374  -0.81288  -0.74614
 Alpha  occ. eigenvalues --   -0.74273  -0.69629
 Alpha virt. eigenvalues --   -0.09956  -0.08368  -0.07827  -0.07489  -0.04834
 Alpha virt. eigenvalues --   -0.03745  -0.03115  -0.01268  -0.01215  -0.00667
 Alpha virt. eigenvalues --    0.02723   0.03891   0.04301   0.05050   0.06239

  Beta  occ. eigenvalues --  -11.56044 -11.55850 -11.54145  -1.36887  -1.07700
  Beta  occ. eigenvalues --   -0.92518  -0.91064  -0.79836  -0.79181
  Beta virt. eigenvalues --   -0.24078  -0.20623  -0.10061  -0.09191  -0.07939
  Beta virt. eigenvalues --   -0.07532  -0.06324  -0.03717  -0.02793  -0.00196
  Beta virt. eigenvalues --    0.00217   0.02037   0.02179   0.02819   0.04784

 Mulliken charges and spin densities:
               1          2
     1  C    0.383836   2.470154
     2  C   -0.210229   0.216020
     3  C   -0.196821   0.245967
     4  H    0.256007   0.019375
     5  H    0.256007   0.019375
     6  H    0.255600   0.014554
     7  H    0.255600   0.014554
 Sum of Mulliken charges =   1.00000   3.00000

 Dipole moment (field-independent basis, Debye):
    X=             -0.5062    Y=              0.2174    Z=             -0.0000  Tot=              0.5509
 Quadrupole moment (field-independent basis, Debye-Ang):
   XX=            -13.7803   YY=            -12.0572   ZZ=            -14.1926
   XY=              1.2319   XZ=             -0.0000   YZ=             -0.0000

 633\CCSD(T)=-115.859135\S2=3.756995\S2-1=3.750908\S2A=3.750019\RMSD=8.
 Normal termination of Gaussian 09 at Tue Oct 10 11:47:43 2017.
