 Gaussian 09, Revision E.01,
 Gaussian 09:  ES64L-G09RevE.01 30-Nov-2015

 -----------------------------------
 #p ccsd(t,maxcyc=200)/6-311++G(d,p)
 -----------------------------------

 -------------
 ccsd(t) iener
 -------------
 Symbolic Z-matrix:
 Charge =  1 Multiplicity = 4

                         Standard orientation:
 ---------------------------------------------------------------------
 Center     Atomic      Atomic             Coordinates (Angstroms)
 Number     Number       Type             X           Y           Z
 ---------------------------------------------------------------------
      1          6           0        1.214211   -0.179046   -0.000458
      2          1           0        1.423975   -1.133421   -0.483902
      3          1           0        2.014696    0.303363    0.561601
      4          6           0       -0.075906    0.403792   -0.048725
      5          1           0       -0.151668    1.476751   -0.283483
      6          1           0       -2.337144   -0.123107   -0.139556
      7          6           0       -1.296614   -0.312010    0.106740
 ---------------------------------------------------------------------

 SCF Done:  E(UHF) =  -115.517719043     A.U. after   16 cycles
 E2 =    -0.3178095433D+00 EUMP2 =    -0.11583552858608D+03
 CCSD(T)
 CCSD(T)= -0.11589214999D+03

 The electronic state is 4-A.
 Alpha  occ. eigenvalues --  -11.60729 -11.55768 -11.51145  -1.39689  -1.22711
 Alpha  occ. eigenvalues --   -1.04393  -0.93861  -0.87352  -0.84544  -0.74181
 Alpha  occ. eigenvalues --   -0.69912  -0.61077
 Alpha virt. eigenvalues --   -0.16487  -0.09992  -0.07429  -0.07163  -0.05771
 Alpha virt. eigenvalues --   -0.03427  -0.01687  -0.01021  -0.00520   0.00263
 Alpha virt. eigenvalues --    0.02061   0.02650   0.03846   0.04891   0.05409

  Beta  occ. eigenvalues --  -11.60422 -11.51234 -11.49145  -1.29960  -1.10672
  Beta  occ. eigenvalues --   -0.96912  -0.89728  -0.84019  -0.80664
  Beta virt. eigenvalues --   -0.26581  -0.13963  -0.12242  -0.09353  -0.06872
  Beta virt. eigenvalues --   -0.06691  -0.05857  -0.04192  -0.01749  -0.00059
  Beta virt. eigenvalues --    0.00986   0.01863   0.02601   0.03569   0.03987

 Mulliken charges and spin densities:
               1          2
     1  C   -0.271261   1.027695
     2  H    0.234805  -0.062842
     3  H    0.218426  -0.064936
     4  C    0.286845   0.278822
     5  H    0.282509   0.040345
     6  H    0.246170  -0.070164
     7  C    0.002506   1.851080
 Sum of Mulliken charges =   1.00000   3.00000

 Dipole moment (field-independent basis, Debye):
    X=             -0.4131    Y=              1.0018    Z=             -0.2733  Tot=              1.1176
 Quadrupole moment (field-independent basis, Debye-Ang):
   XX=             -6.6799   YY=            -14.1110   ZZ=            -16.7028
   XY=             -0.7160   XZ=              0.8692   YZ=              0.4751

 9\CCSD=-115.8804509\CCSD(T)=-115.89215\S2=3.771581\S2-1=3.755807\S2A=3
 Normal termination of Gaussian 09 at Tue Oct 10 11:48:43 2017.
