 Gaussian 09, Revision E.01,
 Gaussian 09:  ES64L-G09RevE.01 30-Nov-2015

 -----------------------------------
 #p ccsd(t,maxcyc=200)/6-311++G(d,p)
 -----------------------------------

 -------------
 ccsd(t) iener
 -------------
 Symbolic Z-matrix:
 Charge =  1 Multiplicity = 4

                         Standard orientation:
 ---------------------------------------------------------------------
 Center     Atomic      Atomic             Coordinates (Angstroms)
 Number     Number       Type             X           Y           Z
 ---------------------------------------------------------------------
      1          6           0       -0.418767   -0.991220    0.000000
      2          1           0       -1.485034   -0.781710    0.000000
      3          1           0       -0.128239   -1.635821   -0.856651
      4          1           0       -0.128239   -1.635821    0.856651
      5          6           0        0.452234    0.163362   -0.000000
      6          6           0       -0.000000    1.498154   -0.000000
      7          1           0        1.540711    0.031578   -0.000000
 ---------------------------------------------------------------------

 SCF Done:  E(UHF) =  -115.489044065     A.U. after   16 cycles
 E2 =    -0.3203519847D+00 EUMP2 =    -0.11580939605007D+03
 CCSD(T)
 CCSD(T)= -0.11586395484D+03

 The electronic state is 4-A".
 Alpha  occ. eigenvalues --  -11.62311 -11.61092 -11.47201  -1.40407  -1.22733
 Alpha  occ. eigenvalues --   -1.03942  -0.91300  -0.85529  -0.82669  -0.78048
 Alpha  occ. eigenvalues --   -0.71492  -0.69244
 Alpha virt. eigenvalues --   -0.17904  -0.10173  -0.07506  -0.06379  -0.06165
 Alpha virt. eigenvalues --   -0.03137  -0.02208  -0.02131  -0.01558  -0.00769
 Alpha virt. eigenvalues --    0.02504   0.02983   0.03905   0.04427   0.05035

  Beta  occ. eigenvalues --  -11.61661 -11.53582 -11.47077  -1.32469  -1.13230
  Beta  occ. eigenvalues --   -0.95182  -0.84815  -0.78661  -0.78058
  Beta virt. eigenvalues --   -0.25364  -0.20754  -0.11221  -0.09110  -0.06523
  Beta virt. eigenvalues --   -0.06367  -0.04630  -0.04614  -0.01966  -0.01334
  Beta virt. eigenvalues --   -0.00254   0.00332   0.02160   0.03201   0.03443

 Mulliken charges and spin densities:
               1          2
     1  C   -0.770935   0.014582
     2  H    0.222985   0.007531
     3  H    0.252095   0.030872
     4  H    0.252095   0.030872
     5  C    0.443998   0.359677
     6  C    0.310721   2.520995
     7  H    0.289041   0.035471
 Sum of Mulliken charges =   1.00000   3.00000

 Dipole moment (field-independent basis, Debye):
    X=              1.0238    Y=              0.3634    Z=             -0.0000  Tot=              1.0864
 Quadrupole moment (field-independent basis, Debye-Ang):
   XX=            -13.7314   YY=             -9.7023   ZZ=            -15.8008
   XY=              0.4873   XZ=              0.0000   YZ=              0.0000

 8483489\CCSD=-115.8513407\CCSD(T)=-115.8639548\S2=3.754149\S2-1=3.7507
 Normal termination of Gaussian 09 at Tue Oct 10 11:46:17 2017.
