 Gaussian 09, Revision E.01,
 Gaussian 09:  ES64L-G09RevE.01 30-Nov-2015

 -----------------------------------
 #p ccsd(t,maxcyc=200)/6-311++G(d,p)
 -----------------------------------

 -------------
 ccsd(t) iener
 -------------
 Symbolic Z-matrix:
 Charge =  0 Multiplicity = 1

                         Standard orientation:
 ---------------------------------------------------------------------
 Center     Atomic      Atomic             Coordinates (Angstroms)
 Number     Number       Type             X           Y           Z
 ---------------------------------------------------------------------
      1          6           0       -0.000000   -0.744839   -0.312467
      2          6           0       -0.000000    0.000000    0.984796
      3          6           0        0.000000    0.744839   -0.312467
      4          1           0        0.907288   -1.299673   -0.539794
      5          1           0       -0.907288    1.299673   -0.539794
      6          1           0       -0.907288   -1.299673   -0.539794
      7          1           0        0.907288    1.299673   -0.539794
 ---------------------------------------------------------------------

 SCF Done:  E(RHF) =  -115.797772301     A.U. after   12 cycles
 E2 =    -0.4013171097D+00 EUMP2 =    -0.11619908941038D+03
 CCSD(T)
 CCSD(T)= -0.11625503298D+03

 The electronic state is 1-A1.
 Alpha  occ. eigenvalues --  -11.28925 -11.24521 -11.24450  -1.16207  -0.84824
 Alpha  occ. eigenvalues --   -0.74618  -0.65638  -0.56800  -0.53280  -0.43828
 Alpha  occ. eigenvalues --   -0.36378
 Alpha virt. eigenvalues --    0.04506   0.05623   0.05808   0.06303   0.08429
 Alpha virt. eigenvalues --    0.09443   0.13359   0.13998   0.15379   0.17145
 Alpha virt. eigenvalues --    0.17218   0.17990   0.19936   0.21530   0.21681

 Mulliken charges:
               1
     1  C   -0.345734
     2  C    0.101397
     3  C   -0.345734
     4  H    0.147518
     5  H    0.147518
     6  H    0.147518
     7  H    0.147518
 Sum of Mulliken charges =  -0.00000

 Dipole moment (field-independent basis, Debye):
    X=              0.0000    Y=             -0.0000    Z=             -2.2413  Tot=              2.2413
 Quadrupole moment (field-independent basis, Debye-Ang):
   XX=            -16.6859   YY=            -18.0691   ZZ=            -25.2786
   XY=             -0.0000   XZ=             -0.0000   YZ=             -0.0000

 225\CCSD=-116.2380509\CCSD(T)=-116.255033\RMSD=2.360e-09\PG=C02V [C2(C
 Normal termination of Gaussian 09 at Tue Oct 10 11:33:11 2017.
