 Gaussian 09, Revision E.01,
 Gaussian 09:  ES64L-G09RevE.01 30-Nov-2015

 -----------------------------------
 #p ccsd(t,maxcyc=200)/6-311++G(d,p)
 -----------------------------------

 -------------
 ccsd(t) iener
 -------------
 Symbolic Z-matrix:
 Charge =  0 Multiplicity = 3

                         Standard orientation:
 ---------------------------------------------------------------------
 Center     Atomic      Atomic             Coordinates (Angstroms)
 Number     Number       Type             X           Y           Z
 ---------------------------------------------------------------------
      1          6           0        1.734689   -0.269936   -0.366280
      2          6           0       -0.658674   -0.282781    0.282957
      3          6           0        0.636625    0.532252    0.180067
      4          1           0       -0.587868   -1.190411    0.917727
      5          1           0        0.431704    1.409526   -0.442467
      6          1           0        2.429937   -0.996908    0.032658
      7          1           0        0.887387    0.890399    1.194315
      8          8           0       -1.679625    0.001273   -0.285337
 ---------------------------------------------------------------------

 SCF Done:  E(UHF) =  -190.734906028     A.U. after   24 cycles
 E2 =    -0.5688464566D+00 EUMP2 =    -0.19130375248419D+03
 CCSD(T)
 CCSD(T)= -0.19136094884D+03

 The electronic state is 3-A.
 Alpha  occ. eigenvalues --  -20.56839 -11.34679 -11.27998 -11.26335  -1.40835
 Alpha  occ. eigenvalues --   -1.09268  -0.89886  -0.80465  -0.68144  -0.64737
 Alpha  occ. eigenvalues --   -0.64175  -0.58066  -0.52817  -0.45806  -0.43171
 Alpha  occ. eigenvalues --   -0.38242
 Alpha virt. eigenvalues --    0.03870   0.05490   0.06024   0.07168   0.10749
 Alpha virt. eigenvalues --    0.11571   0.12708   0.13735   0.14303   0.15789
 Alpha virt. eigenvalues --    0.17162   0.17573   0.18290   0.18941   0.19944

  Beta  occ. eigenvalues --  -20.56868 -11.34361 -11.26719 -11.23154  -1.40807
  Beta  occ. eigenvalues --   -1.04890  -0.82021  -0.75284  -0.66963  -0.63157
  Beta  occ. eigenvalues --   -0.61376  -0.55799  -0.51971  -0.43211
  Beta virt. eigenvalues --    0.03970   0.05223   0.05851   0.06569   0.08030
  Beta virt. eigenvalues --    0.08809   0.11383   0.12033   0.14382   0.15784
  Beta virt. eigenvalues --    0.16306   0.17492   0.17799   0.18778   0.19850

 Mulliken charges and spin densities:
               1          2
     1  C    0.001941   2.169241
     2  C    0.182665   0.076653
     3  C   -0.441976  -0.263609
     4  H    0.104803   0.002093
     5  H    0.183691   0.043757
     6  H    0.134143  -0.103630
     7  H    0.141285   0.082640
     8  O   -0.306552  -0.007144
 Sum of Mulliken charges =  -0.00000   2.00000

 Dipole moment (field-independent basis, Debye):
    X=              2.6957    Y=             -0.3800    Z=              1.9409  Tot=              3.3434
 Quadrupole moment (field-independent basis, Debye-Ang):
   XX=            -29.9422   YY=            -22.8525   ZZ=            -24.1399
   XY=             -0.3089   XZ=             -0.4424   YZ=             -0.5663

 P3-0=-191.3278526\MP4SDQ=-191.3389743\CCSD=-191.3385175\CCSD(T)=-191.3
 Normal termination of Gaussian 09 at Tue Oct 10 11:03:16 2017.
