 Gaussian 09, Revision E.01,
 Gaussian 09:  ES64L-G09RevE.01 30-Nov-2015

 -----------------------------------
 #p ccsd(t,maxcyc=200)/6-311++G(d,p)
 -----------------------------------

 -------------
 ccsd(t) iener
 -------------
 Symbolic Z-matrix:
 Charge =  1 Multiplicity = 4

                         Standard orientation:
 ---------------------------------------------------------------------
 Center     Atomic      Atomic             Coordinates (Angstroms)
 Number     Number       Type             X           Y           Z
 ---------------------------------------------------------------------
      1          6           0       -1.079769   -0.477867    0.000000
      2          1           0       -0.745738   -1.532605    0.000000
      3          1           0       -1.733521   -0.288929    0.873880
      4          1           0       -1.733521   -0.288929   -0.873880
      5          6           0       -0.000000    0.435606   -0.000000
      6          6           0        1.405635    0.240899   -0.000000
      7          1           0        2.257579    0.918631   -0.000000
 ---------------------------------------------------------------------

 SCF Done:  E(UHF) =  -115.487206057     A.U. after   16 cycles
 E2 =    -0.3207222124D+00 EUMP2 =    -0.11580792826925D+03
 CCSD(T)
 CCSD(T)= -0.11586269303D+03

 The electronic state is 4-A".
 Alpha  occ. eigenvalues --  -11.62595 -11.60000 -11.47158  -1.40434  -1.23764
 Alpha  occ. eigenvalues --   -1.02115  -0.91916  -0.86454  -0.83432  -0.78444
 Alpha  occ. eigenvalues --   -0.70379  -0.65071
 Alpha virt. eigenvalues --   -0.18181  -0.09915  -0.07311  -0.06290  -0.06006
 Alpha virt. eigenvalues --   -0.03649  -0.02156  -0.02116  -0.01210  -0.00514
 Alpha virt. eigenvalues --    0.02403   0.03456   0.04036   0.04328   0.05168

  Beta  occ. eigenvalues --  -11.59155 -11.55711 -11.47265  -1.29433  -1.14313
  Beta  occ. eigenvalues --   -0.94687  -0.84738  -0.79354  -0.79227
  Beta virt. eigenvalues --   -0.24366  -0.22672  -0.11706  -0.07491  -0.06744
  Beta virt. eigenvalues --   -0.06443  -0.05275  -0.04299  -0.02154  -0.00693
  Beta virt. eigenvalues --   -0.00124   0.00409   0.00942   0.03165   0.04273

 Mulliken charges and spin densities:
               1          2
     1  C   -0.761950  -0.104556
     2  H    0.223841   0.083717
     3  H    0.252608   0.037944
     4  H    0.252608   0.037944
     5  C    0.741956   1.278343
     6  C    0.028794   1.722479
     7  H    0.262142  -0.055870
 Sum of Mulliken charges =   1.00000   3.00000

 Dipole moment (field-independent basis, Debye):
    X=              1.0875    Y=              0.7230    Z=             -0.0000  Tot=              1.3059
 Quadrupole moment (field-independent basis, Debye-Ang):
   XX=             -6.5012   YY=            -14.9905   ZZ=            -15.7319
   XY=              3.8281   XZ=              0.0000   YZ=              0.0000

 P3-0=-115.8440691\MP4SDQ=-115.8488752\CCSD=-115.8505754\CCSD(T)=-115.8
 Normal termination of Gaussian 09 at Tue Oct 10 11:45:07 2017.
