 Gaussian 09, Revision E.01,
 Gaussian 09:  ES64L-G09RevE.01 30-Nov-2015

 -----------------------------------
 #p ccsd(t,maxcyc=200)/6-311++G(d,p)
 -----------------------------------

 -------------
 ccsd(t) iener
 -------------
 Symbolic Z-matrix:
 Charge =  1 Multiplicity = 4

                         Standard orientation:
 ---------------------------------------------------------------------
 Center     Atomic      Atomic             Coordinates (Angstroms)
 Number     Number       Type             X           Y           Z
 ---------------------------------------------------------------------
      1          6           0        0.000000   -0.929676   -0.402228
      2          6           0       -0.000000    0.929676   -0.402228
      3          6           0        0.000000    0.000000    0.712035
      4          1           0       -0.923419   -0.019791    1.314194
      5          1           0       -0.746553   -1.402730   -1.036931
      6          1           0        0.923419    0.019791    1.314194
      7          1           0        0.746553    1.402730   -1.036931
 ---------------------------------------------------------------------

 SCF Done:  E(UHF) =  -115.482372035     A.U. after   14 cycles
 E2 =    -0.3287466857D+00 EUMP2 =    -0.11581111872033D+03
 CCSD(T)
 CCSD(T)= -0.11586603828D+03

 The electronic state is 4-B.
 Alpha  occ. eigenvalues --  -11.59305 -11.59280 -11.52301  -1.43726  -1.15319
 Alpha  occ. eigenvalues --   -1.09171  -0.93331  -0.90989  -0.83458  -0.71065
 Alpha  occ. eigenvalues --   -0.70045  -0.68370
 Alpha virt. eigenvalues --   -0.13538  -0.09699  -0.08006  -0.07848  -0.05988
 Alpha virt. eigenvalues --   -0.02583  -0.02344  -0.01444  -0.01081  -0.00652
 Alpha virt. eigenvalues --    0.02825   0.02977   0.03787   0.04885   0.05479

  Beta  occ. eigenvalues --  -11.55345 -11.55338 -11.52840  -1.36118  -1.01933
  Beta  occ. eigenvalues --   -1.00911  -0.87480  -0.84680  -0.80139
  Beta virt. eigenvalues --   -0.21359  -0.16865  -0.12815  -0.08959  -0.08207
  Beta virt. eigenvalues --   -0.07628  -0.06646  -0.03466  -0.01891   0.00096
  Beta virt. eigenvalues --    0.00578   0.01697   0.01713   0.03660   0.04524

 Mulliken charges and spin densities:
               1          2
     1  C    0.198358   1.615720
     2  C    0.198358   1.615720
     3  C   -0.451647  -0.361133
     4  H    0.262867   0.118431
     5  H    0.264599  -0.053584
     6  H    0.262867   0.118431
     7  H    0.264599  -0.053584
 Sum of Mulliken charges =   1.00000   3.00000

 Dipole moment (field-independent basis, Debye):
    X=              0.0000    Y=              0.0000    Z=             -0.4490  Tot=              0.4490
 Quadrupole moment (field-independent basis, Debye-Ang):
   XX=            -14.8696   YY=            -11.8248   ZZ=            -12.3060
   XY=              2.6432   XZ=              0.0000   YZ=             -0.0000

 D=-115.8528914\CCSD(T)=-115.8660383\S2=3.796486\S2-1=3.768406\S2A=3.75
 Normal termination of Gaussian 09 at Tue Oct 10 11:50:01 2017.
