 Gaussian 09, Revision E.01,
 Gaussian 09:  ES64L-G09RevE.01 30-Nov-2015

 -----------------------------------
 #p ccsd(t,maxcyc=200)/6-311++G(d,p)
 -----------------------------------

 -------------
 ccsd(t) iener
 -------------
 Symbolic Z-matrix:
 Charge =  0 Multiplicity = 1

                         Standard orientation:
 ---------------------------------------------------------------------
 Center     Atomic      Atomic             Coordinates (Angstroms)
 Number     Number       Type             X           Y           Z
 ---------------------------------------------------------------------
      1          6           0       -1.083823   -0.661309   -0.000016
      2          6           0        0.208173    0.047923   -0.000120
      3          6           0       -0.798530    0.857981    0.000064
      4          1           0        2.007177    0.628744   -0.000398
      5          1           0       -1.440122   -1.140104    0.914796
      6          1           0       -1.440496   -1.139961   -0.914753
      7          1           0       -1.247284    1.833450    0.000114
      8          8           0        1.520726   -0.206212    0.000084
 ---------------------------------------------------------------------

 SCF Done:  E(RHF) =  -190.734960138     A.U. after   14 cycles
 E2 =    -0.6249462091D+00 EUMP2 =    -0.19135990634740D+03
 CCSD(T)
 CCSD(T)= -0.19140947163D+03

 The electronic state is 1-A.
 Alpha  occ. eigenvalues --  -20.61498 -11.31111 -11.24358 -11.23325  -1.42756
 Alpha  occ. eigenvalues --   -1.15764  -0.82959  -0.81717  -0.71056  -0.65177
 Alpha  occ. eigenvalues --   -0.62797  -0.56044  -0.48523  -0.43364  -0.34062
 Alpha virt. eigenvalues --    0.03836   0.05585   0.06113   0.07134   0.11518
 Alpha virt. eigenvalues --    0.12568   0.12848   0.13817   0.13998   0.16236
 Alpha virt. eigenvalues --    0.17149   0.19162   0.21628   0.22156   0.22407

 Mulliken charges:
               1
     1  C   -0.287319
     2  C   -0.081198
     3  C    0.061175
     4  H    0.282088
     5  H    0.085597
     6  H    0.085583
     7  H    0.197755
     8  O   -0.343681
 Sum of Mulliken charges =  -0.00000

 Dipole moment (field-independent basis, Debye):
    X=              0.4406    Y=              1.7573    Z=             -0.0009  Tot=              1.8117
 Quadrupole moment (field-independent basis, Debye-Ang):
   XX=            -22.3092   YY=            -22.4854   ZZ=            -25.1648
   XY=              3.1152   XZ=             -0.0022   YZ=             -0.0006

 Normal termination of Gaussian 09 at Tue Oct 10 10:58:17 2017.
