 Gaussian 09, Revision E.01,
 Gaussian 09:  ES64L-G09RevE.01 30-Nov-2015

 -----------------------------------
 #p ccsd(t,maxcyc=200)/6-311++G(d,p)
 -----------------------------------

 -------------
 ccsd(t) iener
 -------------
 Symbolic Z-matrix:
 Charge =  0 Multiplicity = 1

                         Standard orientation:
 ---------------------------------------------------------------------
 Center     Atomic      Atomic             Coordinates (Angstroms)
 Number     Number       Type             X           Y           Z
 ---------------------------------------------------------------------
      1          6           0       -0.000000    0.864132   -0.000000
      2          6           0        0.000000   -0.501585   -0.645365
      3          1           0        0.913761    1.459515    0.000000
      4          1           0       -0.000001   -1.042399    1.575950
      5          6           0        0.000000   -0.501585    0.645365
      6          1           0       -0.913760    1.459516   -0.000000
      7          1           0       -0.000001   -1.042399   -1.575950
 ---------------------------------------------------------------------

 SCF Done:  E(RHF) =  -115.852613923     A.U. after   11 cycles
 E2 =    -0.4257247031D+00 EUMP2 =    -0.11627833862632D+03
 CCSD(T)
 CCSD(T)= -0.11632416551D+03

 The electronic state is 1-A'.
 Alpha  occ. eigenvalues --  -11.24662 -11.24439 -11.24107  -1.15912  -0.82546
 Alpha  occ. eigenvalues --   -0.76735  -0.68176  -0.59667  -0.49456  -0.41981
 Alpha  occ. eigenvalues --   -0.35908
 Alpha virt. eigenvalues --    0.04569   0.05331   0.06079   0.07114   0.10629
 Alpha virt. eigenvalues --    0.12690   0.12747   0.14343   0.14950   0.17229
 Alpha virt. eigenvalues --    0.18505   0.19224   0.20912   0.21648   0.22523

 Mulliken charges:
               1
     1  C   -0.247301
     2  C   -0.142664
     3  H    0.078962
     4  H    0.187353
     5  C   -0.142664
     6  H    0.078962
     7  H    0.187353
 Sum of Mulliken charges =  -0.00000

 Dipole moment (field-independent basis, Debye):
    X=             -0.0000    Y=             -0.4736    Z=             -0.0000  Tot=              0.4736
 Quadrupole moment (field-independent basis, Debye-Ang):
   XX=            -19.9224   YY=            -18.7538   ZZ=            -16.8593
   XY=             -0.0000   XZ=             -0.0000   YZ=              0.0000

 -116.3044444\CCSD=-116.3048514\CCSD(T)=-116.3241655\RMSD=6.515e-09\PG=
 Normal termination of Gaussian 09 at Tue Oct 10 11:32:47 2017.
