 Gaussian 09, Revision E.01,
 Gaussian 09:  ES64L-G09RevE.01 30-Nov-2015

 -----------------------------------
 #p ccsd(t,maxcyc=200)/6-311++G(d,p)
 -----------------------------------

 -------------
 ccsd(t) iener
 -------------
 Symbolic Z-matrix:
 Charge =  0 Multiplicity = 1

                         Standard orientation:
 ---------------------------------------------------------------------
 Center     Atomic      Atomic             Coordinates (Angstroms)
 Number     Number       Type             X           Y           Z
 ---------------------------------------------------------------------
      1          6           0        0.775951    0.153591   -0.002037
      2          6           0       -0.620734    0.588667    0.034975
      3          6           0        1.919750   -0.217306   -0.013865
      4          1           0       -1.330152   -1.162692    0.544890
      5          1           0       -0.798241    1.150321    0.961795
      6          1           0       -0.822298    1.264184   -0.799428
      7          1           0        2.930425   -0.545707   -0.031679
      8          8           0       -1.553692   -0.481978   -0.098752
 ---------------------------------------------------------------------

 SCF Done:  E(RHF) =  -190.767716562     A.U. after   15 cycles
 E2 =    -0.6173225268D+00 EUMP2 =    -0.19138503908859D+03
 CCSD(T)
 CCSD(T)= -0.19143534153D+03

 The electronic state is 1-A.
 Alpha  occ. eigenvalues --  -20.57288 -11.31538 -11.24596 -11.23930  -1.37541
 Alpha  occ. eigenvalues --   -1.05942  -0.95397  -0.75155  -0.70562  -0.66192
 Alpha  occ. eigenvalues --   -0.62558  -0.54433  -0.48207  -0.40792  -0.39878
 Alpha virt. eigenvalues --    0.03762   0.05052   0.06539   0.07537   0.11168
 Alpha virt. eigenvalues --    0.11704   0.12077   0.13663   0.14737   0.16766
 Alpha virt. eigenvalues --    0.17539   0.17818   0.18172   0.19241   0.23235

 Mulliken charges:
               1
     1  C    1.895871
     2  C   -0.134893
     3  C   -2.200185
     4  H    0.255175
     5  H    0.158106
     6  H    0.180137
     7  H    0.151526
     8  O   -0.305738
 Sum of Mulliken charges =  -0.00000

 Dipole moment (field-independent basis, Debye):
    X=              1.1628    Y=              0.2119    Z=              1.2282  Tot=              1.7045
 Quadrupole moment (field-independent basis, Debye-Ang):
   XX=            -23.8356   YY=            -22.3224   ZZ=            -24.6075
   XY=             -2.2679   XZ=             -1.9320   YZ=             -1.7720

 Normal termination of Gaussian 09 at Tue Oct 10 10:57:44 2017.
