 Gaussian 09, Revision E.01,
 Gaussian 09:  ES64L-G09RevE.01 30-Nov-2015

 -----------------------------------
 #p ccsd(t,maxcyc=200)/6-311++G(d,p)
 -----------------------------------

 -------------
 ccsd(t) iener
 -------------
 Symbolic Z-matrix:
 Charge =  0 Multiplicity = 1

                         Standard orientation:
 ---------------------------------------------------------------------
 Center     Atomic      Atomic             Coordinates (Angstroms)
 Number     Number       Type             X           Y           Z
 ---------------------------------------------------------------------
      1          6           0        1.303410   -0.000205    0.000325
      2          6           0        0.000002    0.000041   -0.000225
      3          6           0       -1.303416   -0.000286   -0.000265
      4          1           0       -1.867420    0.662657   -0.648910
      5          1           0        1.867481   -0.649388   -0.662043
      6          1           0        1.867148    0.650669    0.661318
      7          1           0       -1.867182   -0.661239    0.650622
 ---------------------------------------------------------------------

 SCF Done:  E(RHF) =  -115.893467904     A.U. after   11 cycles
 E2 =    -0.4147168402D+00 EUMP2 =    -0.11630818474435D+03
 CCSD(T)
 CCSD(T)= -0.11635871041D+03

 The electronic state is 1-A.
 Alpha  occ. eigenvalues --  -11.26324 -11.23929 -11.23918  -1.07729  -0.96093
 Alpha  occ. eigenvalues --   -0.71705  -0.63162  -0.60865  -0.60863  -0.37915
 Alpha  occ. eigenvalues --   -0.37909
 Alpha virt. eigenvalues --    0.04528   0.06095   0.06613   0.06614   0.11583
 Alpha virt. eigenvalues --    0.11711   0.11712   0.13716   0.16889   0.16891
 Alpha virt. eigenvalues --    0.18173   0.19367   0.21601   0.21603   0.23133

 Mulliken charges:
               1
     1  C   -0.655370
     2  C    0.769842
     3  C   -0.655339
     4  H    0.135194
     5  H    0.135214
     6  H    0.135219
     7  H    0.135239
 Sum of Mulliken charges =   0.00000

 Dipole moment (field-independent basis, Debye):
    X=              0.0000    Y=              0.0031    Z=              0.0009  Tot=              0.0032
 Quadrupole moment (field-independent basis, Debye-Ang):
   XX=            -15.4657   YY=            -19.9491   ZZ=            -19.9512
   XY=             -0.0011   XZ=             -0.0064   YZ=             -0.0000

 .3389024\CCSD=-116.3395204\CCSD(T)=-116.3587104\RMSD=4.228e-09\PG=C01
 Normal termination of Gaussian 09 at Tue Oct 10 11:32:19 2017.
