 Gaussian 09, Revision E.01,
 Gaussian 09:  ES64L-G09RevE.01 30-Nov-2015

 -----------------------------------
 #p ccsd(t,maxcyc=200)/6-311++G(d,p)
 -----------------------------------

 -------------
 ccsd(t) iener
 -------------
 Symbolic Z-matrix:
 Charge =  0 Multiplicity = 1

                         Standard orientation:
 ---------------------------------------------------------------------
 Center     Atomic      Atomic             Coordinates (Angstroms)
 Number     Number       Type             X           Y           Z
 ---------------------------------------------------------------------
      1          6           0        0.905670    0.340874    0.049936
      2          6           0       -0.576254    0.622335   -0.035829
      3          6           0        1.712416   -0.664602   -0.070851
      4          1           0       -1.236408   -1.037006    0.751570
      5          1           0       -0.857409    1.282731    0.794334
      6          1           0       -0.786158    1.155730   -0.965649
      7          1           0        1.596629    1.171500    0.288163
      8          8           0       -1.370956   -0.545575   -0.065994
 ---------------------------------------------------------------------

 SCF Done:  E(RHF) =  -190.705335120     A.U. after   15 cycles
 E2 =    -0.5934562467D+00 EUMP2 =    -0.19129879136689D+03
 CCSD(T)
 CCSD(T)= -0.19136135255D+03

 The electronic state is 1-A.
 Alpha  occ. eigenvalues --  -20.58159 -11.32372 -11.29605 -11.24825  -1.38845
 Alpha  occ. eigenvalues --   -1.08849  -0.94822  -0.74242  -0.67098  -0.65927
 Alpha  occ. eigenvalues --   -0.62012  -0.53304  -0.49202  -0.45259  -0.40286
 Alpha virt. eigenvalues --    0.03162   0.05336   0.06258   0.06779   0.07254
 Alpha virt. eigenvalues --    0.11552   0.12239   0.13063   0.13941   0.14882
 Alpha virt. eigenvalues --    0.15975   0.17979   0.18744   0.18940   0.20566

 Mulliken charges:
               1
     1  C   -0.165080
     2  C   -0.425315
     3  C    0.138410
     4  H    0.260376
     5  H    0.141164
     6  H    0.175030
     7  H    0.187010
     8  O   -0.311594
 Sum of Mulliken charges =  -0.00000

 Dipole moment (field-independent basis, Debye):
    X=             -0.7916    Y=              2.4831    Z=              1.5613  Tot=              3.0381
 Quadrupole moment (field-independent basis, Debye-Ang):
   XX=            -31.0358   YY=            -23.3596   ZZ=            -24.4337
   XY=              3.4552   XZ=             -1.2429   YZ=             -1.5890

 817\MP4DQ=-191.3300315\MP4SDQ=-191.3368526\CCSD=-191.3373084\CCSD(T)=-
 Normal termination of Gaussian 09 at Tue Oct 10 11:00:21 2017.
