 Gaussian 09, Revision E.01,
 Gaussian 09:  ES64L-G09RevE.01 30-Nov-2015

 -----------------------------------
 #p ccsd(t,maxcyc=200)/6-311++G(d,p)
 -----------------------------------

 -------------
 ccsd(t) iener
 -------------
 Symbolic Z-matrix:
 Charge =  0 Multiplicity = 1

                         Standard orientation:
 ---------------------------------------------------------------------
 Center     Atomic      Atomic             Coordinates (Angstroms)
 Number     Number       Type             X           Y           Z
 ---------------------------------------------------------------------
      1          6           0        0.077073    0.465627   -0.101804
      2          6           0       -1.106550   -0.198942    0.021745
      3          6           0        1.201187   -0.384875   -0.037766
      4          1           0        2.013544    0.127739    0.510910
      5          1           0        0.099801    1.556853   -0.039727
      6          1           0       -1.122839   -1.276354   -0.094345
      7          1           0       -2.020763    0.300896    0.330109
 ---------------------------------------------------------------------

 SCF Done:  E(RHF) =  -115.807772045     A.U. after   15 cycles
 E2 =    -0.3982487300D+00 EUMP2 =    -0.11620602077467D+03
 CCSD(T)
 CCSD(T)= -0.11626349994D+03

 The electronic state is 1-A.
 Alpha  occ. eigenvalues --  -11.28123 -11.25427 -11.24895  -1.09435  -0.90473
 Alpha  occ. eigenvalues --   -0.74813  -0.66956  -0.57944  -0.53324  -0.42275
 Alpha  occ. eigenvalues --   -0.34166
 Alpha virt. eigenvalues --    0.03654   0.04241   0.05809   0.06595   0.07827
 Alpha virt. eigenvalues --    0.11066   0.13419   0.13923   0.15700   0.16676
 Alpha virt. eigenvalues --    0.17846   0.17912   0.19158   0.20294   0.21287

 Mulliken charges:
               1
     1  C   -0.072738
     2  C   -0.201502
     3  C   -0.238345
     4  H    0.077505
     5  H    0.142928
     6  H    0.165858
     7  H    0.126294
 Sum of Mulliken charges =  -0.00000

 Dipole moment (field-independent basis, Debye):
    X=             -1.7714    Y=              1.8456    Z=              0.7552  Tot=              2.6673
 Quadrupole moment (field-independent basis, Debye-Ang):
   XX=            -17.8462   YY=            -20.7646   ZZ=            -20.7618
   XY=              3.3871   XZ=              0.4292   YZ=             -0.6509

 2424003\CCSD=-116.2441731\CCSD(T)=-116.2634999\RMSD=6.055e-09\PG=C01 [
 Normal termination of Gaussian 09 at Tue Oct 10 11:27:02 2017.
