 Gaussian 09, Revision E.01,
 Gaussian 09:  ES64L-G09RevE.01 30-Nov-2015

 -----------------------------------
 #p ccsd(t,maxcyc=200)/6-311++G(d,p)
 -----------------------------------

 -------------
 ccsd(t) iener
 -------------
 Symbolic Z-matrix:
 Charge =  0 Multiplicity = 1

                         Standard orientation:
 ---------------------------------------------------------------------
 Center     Atomic      Atomic             Coordinates (Angstroms)
 Number     Number       Type             X           Y           Z
 ---------------------------------------------------------------------
      1          6           0        0.000000   -0.000000   -1.238361
      2          6           0       -0.000000    0.000000    1.420732
      3          6           0       -0.000000    0.000000    0.218490
      4          1           0       -0.000000    1.021251   -1.629390
      5          1           0        0.884430   -0.510626   -1.629390
      6          1           0       -0.884430   -0.510626   -1.629390
      7          1           0       -0.000000    0.000000    2.483001
 ---------------------------------------------------------------------

 SCF Done:  E(RHF) =  -115.896797321     A.U. after   11 cycles
 E2 =    -0.4195173256D+00 EUMP2 =    -0.11631631464661D+03
 CCSD(T)
 CCSD(T)= -0.11636136910D+03

 The electronic state is 1-A1.
 Alpha  occ. eigenvalues --  -11.25232 -11.23672 -11.22019  -1.05993  -0.96019
 Alpha  occ. eigenvalues --   -0.71968  -0.62525  -0.59188  -0.59188  -0.38574
 Alpha  occ. eigenvalues --   -0.38574
 Alpha virt. eigenvalues --    0.03968   0.05075   0.07455   0.07455   0.11126
 Alpha virt. eigenvalues --    0.12835   0.12835   0.14928   0.15991   0.15991
 Alpha virt. eigenvalues --    0.17987   0.17987   0.18543   0.19238   0.24706

 Mulliken charges:
               1
     1  C   -0.298478
     2  C   -2.210835
     3  C    1.901143
     4  H    0.156928
     5  H    0.156928
     6  H    0.156928
     7  H    0.137387
 Sum of Mulliken charges =  -0.00000

 Dipole moment (field-independent basis, Debye):
    X=              0.0000    Y=             -0.0000    Z=             -0.7981  Tot=              0.7981
 Quadrupole moment (field-independent basis, Debye-Ang):
   XX=            -20.1113   YY=            -20.1113   ZZ=            -13.8087
   XY=             -0.0000   XZ=             -0.0000   YZ=              0.0000

 \CCSD=-116.3426709\CCSD(T)=-116.3613691\RMSD=9.155e-09\PG=C03V [C3(C1C
 Normal termination of Gaussian 09 at Tue Oct 10 11:33:35 2017.
