 Gaussian 09, Revision E.01,
 Gaussian 09:  ES64L-G09RevE.01 30-Nov-2015

 -----------------------------------
 #p ccsd(t,maxcyc=200)/6-311++G(d,p)
 -----------------------------------

 -------------
 ccsd(t) iener
 -------------
 Symbolic Z-matrix:
 Charge =  1 Multiplicity = 4

                         Standard orientation:
 ---------------------------------------------------------------------
 Center     Atomic      Atomic             Coordinates (Angstroms)
 Number     Number       Type             X           Y           Z
 ---------------------------------------------------------------------
      1          6           0       -1.628750   -0.317518    0.065740
      2          6           0        0.750362    0.432203    0.378146
      3          6           0       -0.614936    0.518478   -0.272972
      4          1           0        1.434397    1.281582    0.199384
      5          1           0        0.776957    0.229393    1.466972
      6          1           0       -1.889807   -1.048407    0.823030
      7          1           0       -0.706147    1.150260   -1.156758
      8          8           0        1.168069   -0.676476   -0.294764
 ---------------------------------------------------------------------

 SCF Done:  E(UHF) =  -190.379905819     A.U. after   30 cycles
 E2 =    -0.5029051204D+00 EUMP2 =    -0.19088281093904D+03
 CCSD(T)
 CCSD(T)= -0.19096228161D+03

 The electronic state is 4-A.
 Alpha  occ. eigenvalues --  -20.87807 -11.58982 -11.57989 -11.53653  -1.67863
 Alpha  occ. eigenvalues --   -1.38834  -1.18496  -1.06280  -0.96735  -0.94345
 Alpha  occ. eigenvalues --   -0.89705  -0.87471  -0.78526  -0.75238  -0.71979
 Alpha  occ. eigenvalues --   -0.68181
 Alpha virt. eigenvalues --   -0.16277  -0.09734  -0.08291  -0.07075  -0.05144
 Alpha virt. eigenvalues --   -0.04047  -0.02509  -0.01490  -0.00097   0.00617
 Alpha virt. eigenvalues --    0.01970   0.02352   0.03654   0.04250   0.05062

  Beta  occ. eigenvalues --  -20.82916 -11.58560 -11.53982 -11.53766  -1.53461
  Beta  occ. eigenvalues --   -1.28185  -1.11178  -1.01121  -0.89790  -0.88777
  Beta  occ. eigenvalues --   -0.82382  -0.79545  -0.66935
  Beta virt. eigenvalues --   -0.25519  -0.15025  -0.13324  -0.09430  -0.08077
  Beta virt. eigenvalues --   -0.06423  -0.05721  -0.04227  -0.03493  -0.00853
  Beta virt. eigenvalues --   -0.00434   0.00982   0.02201   0.02876   0.03823

 Mulliken charges and spin densities:
               1          2
     1  C    0.170147   1.639509
     2  C   -0.572435  -0.101611
     3  C    0.250755   0.265772
     4  H    0.267597   0.072108
     5  H    0.268874   0.068201
     6  H    0.284449  -0.061593
     7  H    0.293814   0.011796
     8  O    0.036800   1.105817
 Sum of Mulliken charges =   1.00000   3.00000

 Dipole moment (field-independent basis, Debye):
    X=             -2.8962    Y=              1.9194    Z=              1.1529  Tot=              3.6608
 Quadrupole moment (field-independent basis, Debye-Ang):
   XX=            -14.6786   YY=            -18.3935   ZZ=            -18.3302
   XY=              3.7327   XZ=              0.1689   YZ=             -2.5416

 -190.9240054\MP4SDQ=-190.9325414\CCSD=-190.9402003\CCSD(T)=-190.962281
 Normal termination of Gaussian 09 at Tue Oct 10 11:23:04 2017.
