 Gaussian 09, Revision E.01,
 Gaussian 09:  ES64L-G09RevE.01 30-Nov-2015

 -----------------------------------
 #p ccsd(t,maxcyc=200)/6-311++G(d,p)
 -----------------------------------

 -------------
 ccsd(t) iener
 -------------
 Symbolic Z-matrix:
 Charge =  1 Multiplicity = 2

                         Standard orientation:
 ---------------------------------------------------------------------
 Center     Atomic      Atomic             Coordinates (Angstroms)
 Number     Number       Type             X           Y           Z
 ---------------------------------------------------------------------
      1          6           0       -0.000000    0.649437   -0.000000
      2          6           0       -0.639042   -0.567255    0.000000
      3          6           0        0.545943    1.810805   -0.000000
      4          1           0        0.944220   -1.653152    0.000000
      5          1           0        0.791028    2.326684    0.932252
      6          1           0       -1.723433   -0.646607    0.000000
      7          1           0        0.791028    2.326684   -0.932252
      8          8           0       -0.030531   -1.713941    0.000000
 ---------------------------------------------------------------------

 SCF Done:  E(UHF) =  -190.487220975     A.U. after   28 cycles
 E2 =    -0.5668227477D+00 EUMP2 =    -0.19105404372286D+03
 CCSD(T)
 CCSD(T)= -0.19111694376D+03

 The electronic state is 2-A".
 Alpha  occ. eigenvalues --  -20.88678 -11.62355 -11.54058 -11.48864  -1.71813
 Alpha  occ. eigenvalues --   -1.35610  -1.21518  -1.08304  -0.95163  -0.92180
 Alpha  occ. eigenvalues --   -0.90076  -0.84750  -0.82681  -0.66617  -0.63928
 Alpha virt. eigenvalues --   -0.11381  -0.10896  -0.08995  -0.07785  -0.06072
 Alpha virt. eigenvalues --   -0.05856  -0.02654  -0.01896  -0.01591   0.00435
 Alpha virt. eigenvalues --    0.01851   0.03362   0.04084   0.04454   0.05686

  Beta  occ. eigenvalues --  -20.87474 -11.62104 -11.52069 -11.49837  -1.68918
  Beta  occ. eigenvalues --   -1.30532  -1.20362  -1.06615  -0.93629  -0.90929
  Beta  occ. eigenvalues --   -0.83056  -0.81181  -0.78986  -0.64940
  Beta virt. eigenvalues --   -0.22411  -0.11163  -0.08527  -0.07711  -0.06085
  Beta virt. eigenvalues --   -0.05942  -0.02629  -0.02472  -0.01418  -0.01208
  Beta virt. eigenvalues --   -0.00225   0.01994   0.03373   0.04353   0.05880

 Mulliken charges and spin densities:
               1          2
     1  C    1.125492   1.003858
     2  C   -0.522490   0.238597
     3  C   -0.557862  -0.535565
     4  H    0.314838  -0.014599
     5  H    0.228350   0.071392
     6  H    0.255285  -0.012331
     7  H    0.228350   0.071392
     8  O   -0.071962   0.177257
 Sum of Mulliken charges =   1.00000   1.00000

 Dipole moment (field-independent basis, Debye):
    X=              0.7814    Y=              1.6636    Z=              0.0000  Tot=              1.8380
 Quadrupole moment (field-independent basis, Debye-Ang):
   XX=            -16.2196   YY=            -11.5503   ZZ=            -20.3834
   XY=              1.6076   XZ=              0.0000   YZ=              0.0000

 MP3-0=-191.0831303\MP4SDQ=-191.0894142\CCSD=-191.0925215\CCSD(T)=-191.
 Normal termination of Gaussian 09 at Tue Oct 10 11:06:23 2017.
