 Gaussian 09, Revision E.01,
 Gaussian 09:  ES64L-G09RevE.01 30-Nov-2015

 -----------------------------------
 #p ccsd(t,maxcyc=200)/6-311++G(d,p)
 -----------------------------------

 -------------
 ccsd(t) iener
 -------------
 Symbolic Z-matrix:
 Charge =  1 Multiplicity = 2

                         Standard orientation:
 ---------------------------------------------------------------------
 Center     Atomic      Atomic             Coordinates (Angstroms)
 Number     Number       Type             X           Y           Z
 ---------------------------------------------------------------------
      1          6           0       -0.776149   -0.756471   -0.000000
      2          1           0       -0.178033   -1.664415    0.000000
      3          1           0       -1.465886   -0.725299    0.865844
      4          1           0       -1.465886   -0.725299   -0.865844
      5          6           0       -0.000000    0.490068   -0.000000
      6          6           0        1.378532    0.540440    0.000000
      7          1           0       -0.504487    1.470788   -0.000000
 ---------------------------------------------------------------------

 SCF Done:  E(UHF) =  -115.499349215     A.U. after   19 cycles
 E2 =    -0.3472704349D+00 EUMP2 =    -0.11584661965000D+03
 CCSD(T)
 CCSD(T)= -0.11591008041D+03

 The electronic state is 2-A".
 Alpha  occ. eigenvalues --  -11.64606 -11.59891 -11.48812  -1.41155  -1.21429
 Alpha  occ. eigenvalues --   -1.00872  -0.87356  -0.84203  -0.81046  -0.74954
 Alpha  occ. eigenvalues --   -0.71456
 Alpha virt. eigenvalues --   -0.21812  -0.16481  -0.10412  -0.07755  -0.06694
 Alpha virt. eigenvalues --   -0.05818  -0.03008  -0.01982  -0.01950  -0.01202
 Alpha virt. eigenvalues --   -0.00938   0.02385   0.02848   0.03896   0.04534

  Beta  occ. eigenvalues --  -11.63517 -11.59069 -11.48905  -1.35505  -1.18725
  Beta  occ. eigenvalues --   -0.99087  -0.86202  -0.80400  -0.79762  -0.73239
  Beta virt. eigenvalues --   -0.28179  -0.20459  -0.10269  -0.07650  -0.06803
  Beta virt. eigenvalues --   -0.06181  -0.05724  -0.02725  -0.01815  -0.00785
  Beta virt. eigenvalues --   -0.00584  -0.00019   0.02513   0.02922   0.03997

 Mulliken charges and spin densities:
               1          2
     1  C   -0.734727  -0.100799
     2  H    0.221070   0.000647
     3  H    0.252239   0.036960
     4  H    0.252239   0.036960
     5  C    0.211098   0.549969
     6  C    0.473165   0.512386
     7  H    0.324915  -0.036121
 Sum of Mulliken charges =   1.00000   1.00000

 Dipole moment (field-independent basis, Debye):
    X=             -1.1566    Y=              1.1122    Z=              0.0000  Tot=              1.6046
 Quadrupole moment (field-independent basis, Debye-Ang):
   XX=            -14.8690   YY=            -11.5878   ZZ=            -16.1341
   XY=              0.9092   XZ=             -0.0000   YZ=             -0.0000

 5.8957032\CCSD(T)=-115.9100804\S2=0.755125\S2-1=0.750528\S2A=0.750021\
 Normal termination of Gaussian 09 at Tue Oct 10 11:41:42 2017.
