 Gaussian 09, Revision E.01,
 Gaussian 09:  ES64L-G09RevE.01 30-Nov-2015

 -----------------------------------
 #p ccsd(t,maxcyc=200)/6-311++G(d,p)
 -----------------------------------

 -------------
 ccsd(t) iener
 -------------
 Symbolic Z-matrix:
 Charge =  1 Multiplicity = 2

                         Standard orientation:
 ---------------------------------------------------------------------
 Center     Atomic      Atomic             Coordinates (Angstroms)
 Number     Number       Type             X           Y           Z
 ---------------------------------------------------------------------
      1          6           0        1.531049   -0.758532   -0.143250
      2          6           0       -0.434004    0.093112    0.484538
      3          6           0        0.845837    0.538237   -0.102424
      4          1           0       -1.487655    0.096543   -1.118737
      5          1           0        0.827136    1.096635   -1.049847
      6          1           0       -0.499753   -0.179817    1.534825
      7          1           0        1.455124    1.102626    0.635523
      8          8           0       -1.494018   -0.169111   -0.179368
 ---------------------------------------------------------------------

 SCF Done:  E(UHF) =  -190.389252016     A.U. after   31 cycles
 E2 =    -0.5510986373D+00 EUMP2 =    -0.19094035065312D+03
 CCSD(T)
 CCSD(T)= -0.19100938403D+03

 The electronic state is 2-A.
 Alpha  occ. eigenvalues --  -20.91108 -11.65707 -11.54426 -11.50307  -1.74359
 Alpha  occ. eigenvalues --   -1.36347  -1.18105  -1.03881  -0.98951  -0.96243
 Alpha  occ. eigenvalues --   -0.87400  -0.82823  -0.81673  -0.67649  -0.60607
 Alpha virt. eigenvalues --   -0.16309  -0.15321  -0.11005  -0.08930  -0.07388
 Alpha virt. eigenvalues --   -0.04937  -0.04551  -0.02748  -0.00741   0.00004
 Alpha virt. eigenvalues --    0.00483   0.02030   0.02888   0.03428   0.04014

  Beta  occ. eigenvalues --  -20.90877 -11.65397 -11.52288 -11.50570  -1.73807
  Beta  occ. eigenvalues --   -1.34399  -1.17108  -0.99345  -0.98233  -0.93885
  Beta  occ. eigenvalues --   -0.84952  -0.82276  -0.80648  -0.64129
  Beta virt. eigenvalues --   -0.18280  -0.13913  -0.11103  -0.09127  -0.08117
  Beta virt. eigenvalues --   -0.06663  -0.04544  -0.04007  -0.02042   0.00123
  Beta virt. eigenvalues --    0.00586   0.00804   0.02863   0.03116   0.03847

 Mulliken charges and spin densities:
               1          2
     1  C    0.281172   0.962805
     2  C    0.119625   0.181117
     3  C   -0.479701  -0.221900
     4  H    0.338192   0.000347
     5  H    0.246831   0.041137
     6  H    0.269439  -0.010304
     7  H    0.287688   0.010723
     8  O   -0.063246   0.036075
 Sum of Mulliken charges =   1.00000   1.00000

 Dipole moment (field-independent basis, Debye):
    X=             -0.6071    Y=              2.8226    Z=             -0.2235  Tot=              2.8957
 Quadrupole moment (field-independent basis, Debye-Ang):
   XX=            -19.4470   YY=            -22.8033   ZZ=            -15.0249
   XY=              2.8752   XZ=              2.7175   YZ=             -0.4586

 PMP3-0=-190.9719595\MP4SDQ=-190.9831335\CCSD=-190.9859567\CCSD(T)=-191
 Normal termination of Gaussian 09 at Tue Oct 10 11:14:28 2017.
