 Gaussian 09, Revision E.01,
 Gaussian 09:  ES64L-G09RevE.01 30-Nov-2015

 -----------------------------------
 #p ccsd(t,maxcyc=200)/6-311++G(d,p)
 -----------------------------------

 -------------
 ccsd(t) iener
 -------------
 Symbolic Z-matrix:
 Charge =  1 Multiplicity = 4

                         Standard orientation:
 ---------------------------------------------------------------------
 Center     Atomic      Atomic             Coordinates (Angstroms)
 Number     Number       Type             X           Y           Z
 ---------------------------------------------------------------------
      1          6           0        2.032434   -0.004830    0.000149
      2          6           0       -0.497297    0.436228   -0.000397
      3          6           0        0.637186   -0.416442   -0.000400
      4          1           0       -1.824504   -0.978063    0.001806
      5          1           0        0.465723   -1.495702   -0.000948
      6          1           0       -0.426211    1.517770   -0.000983
      7          1           0        2.576942    0.931139    0.002041
      8          8           0       -1.728236   -0.008110    0.000247
 ---------------------------------------------------------------------

 SCF Done:  E(UHF) =  -190.416542830     A.U. after   19 cycles
 E2 =    -0.5241797729D+00 EUMP2 =    -0.19094072260294D+03
 CCSD(T)
 CCSD(T)= -0.19100117484D+03

 The electronic state is 4-A.
 Alpha  occ. eigenvalues --  -20.87397 -11.60268 -11.58106 -11.50992  -1.70202
 Alpha  occ. eigenvalues --   -1.37158  -1.19782  -1.09232  -0.98318  -0.92929
 Alpha  occ. eigenvalues --   -0.88770  -0.83395  -0.81767  -0.75715  -0.67410
 Alpha  occ. eigenvalues --   -0.56285
 Alpha virt. eigenvalues --   -0.12704  -0.10560  -0.08454  -0.06874  -0.04592
 Alpha virt. eigenvalues --   -0.04520  -0.02157  -0.01526   0.00302   0.00992
 Alpha virt. eigenvalues --    0.01626   0.02532   0.04142   0.04200   0.05545

  Beta  occ. eigenvalues --  -20.86282 -11.59434 -11.57149 -11.46112  -1.67418
  Beta  occ. eigenvalues --   -1.27520  -1.12432  -1.01282  -0.95950  -0.90041
  Beta  occ. eigenvalues --   -0.80819  -0.79629  -0.78054
  Beta virt. eigenvalues --   -0.25806  -0.11069  -0.10335  -0.09052  -0.08106
  Beta virt. eigenvalues --   -0.06266  -0.04269  -0.04055  -0.02149  -0.01218
  Beta virt. eigenvalues --    0.00324   0.01322   0.02447   0.03748   0.04523

 Mulliken charges and spin densities:
               1          2
     1  C   -0.184093   2.020746
     2  C   -0.282902   0.383114
     3  C    0.429665   0.625214
     4  H    0.317103  -0.012477
     5  H    0.279828  -0.036393
     6  H    0.294210  -0.042270
     7  H    0.241777  -0.097009
     8  O   -0.095589   0.159075
 Sum of Mulliken charges =   1.00000   3.00000

 Dipole moment (field-independent basis, Debye):
    X=              1.0598    Y=             -1.0025    Z=              0.0025  Tot=              1.4588
 Quadrupole moment (field-independent basis, Debye-Ang):
   XX=            -15.1445   YY=            -14.6780   ZZ=            -22.7165
   XY=              4.5184   XZ=             -0.0015   YZ=             -0.0023

 PMP3-0=-190.9712812\MP4SDQ=-190.9801306\CCSD=-190.9812115\CCSD(T)=-191
 Normal termination of Gaussian 09 at Tue Oct 10 11:31:38 2017.
