 Gaussian 09, Revision E.01,
 Gaussian 09:  ES64L-G09RevE.01 30-Nov-2015

 -----------------------------------
 #p ccsd(t,maxcyc=200)/6-311++G(d,p)
 -----------------------------------

 -------------
 ccsd(t) iener
 -------------
 Symbolic Z-matrix:
 Charge =  0 Multiplicity = 3

                         Standard orientation:
 ---------------------------------------------------------------------
 Center     Atomic      Atomic             Coordinates (Angstroms)
 Number     Number       Type             X           Y           Z
 ---------------------------------------------------------------------
      1          6           0        0.000000   -0.000000    0.927639
      2          6           0       -0.000000    0.814823   -0.257693
      3          6           0       -0.000000   -0.814823   -0.257693
      4          1           0       -0.914431    1.286147   -0.618378
      5          1           0        0.914431    1.286147   -0.618378
      6          1           0       -0.914431   -1.286147   -0.618378
      7          1           0        0.914431   -1.286147   -0.618378
 ---------------------------------------------------------------------

 SCF Done:  E(UHF) =  -115.796735931     A.U. after   15 cycles
 E2 =    -0.3847487000D+00 EUMP2 =    -0.11618148463066D+03
 CCSD(T)
 CCSD(T)= -0.11623302255D+03

 The electronic state is 3-B1.
 Alpha  occ. eigenvalues --  -11.26985 -11.25431 -11.25391  -1.16330  -0.85282
 Alpha  occ. eigenvalues --   -0.78791  -0.66898  -0.59332  -0.54213  -0.49864
 Alpha  occ. eigenvalues --   -0.37296  -0.36520
 Alpha virt. eigenvalues --    0.04754   0.05809   0.06122   0.09030   0.09055
 Alpha virt. eigenvalues --    0.13176   0.13729   0.14835   0.14992   0.17417
 Alpha virt. eigenvalues --    0.17696   0.20781   0.21115   0.21575   0.21802

  Beta  occ. eigenvalues --  -11.25382 -11.25343 -11.22063  -1.11175  -0.83656
  Beta  occ. eigenvalues --   -0.70869  -0.62990  -0.52861  -0.45980  -0.44297
  Beta virt. eigenvalues --    0.04076   0.05843   0.06162   0.06578   0.09069
  Beta virt. eigenvalues --    0.10482   0.10938   0.13279   0.13889   0.17180
  Beta virt. eigenvalues --    0.17734   0.17895   0.20359   0.21106   0.21270

 Mulliken charges and spin densities:
               1          2
     1  C    0.082520   1.860583
     2  C   -0.279036  -0.006403
     3  C   -0.279036  -0.006403
     4  H    0.118888   0.038056
     5  H    0.118888   0.038056
     6  H    0.118888   0.038056
     7  H    0.118888   0.038056
 Sum of Mulliken charges =  -0.00000   2.00000

 Dipole moment (field-independent basis, Debye):
    X=              0.0000    Y=             -0.0000    Z=             -1.2104  Tot=              1.2104
 Quadrupole moment (field-independent basis, Debye-Ang):
   XX=            -18.2265   YY=            -18.6456   ZZ=            -20.9411
   XY=             -0.0000   XZ=             -0.0000   YZ=             -0.0000

 D=-116.2166372\CCSD(T)=-116.2330225\S2=2.014033\S2-1=2.003719\S2A=2.00
 Normal termination of Gaussian 09 at Tue Oct 10 11:36:50 2017.
