 Gaussian 09, Revision E.01,
 Gaussian 09:  ES64L-G09RevE.01 30-Nov-2015

 -----------------------------------
 #p ccsd(t,maxcyc=200)/6-311++G(d,p)
 -----------------------------------

 -------------
 ccsd(t) iener
 -------------
 Symbolic Z-matrix:
 Charge =  1 Multiplicity = 2

                         Standard orientation:
 ---------------------------------------------------------------------
 Center     Atomic      Atomic             Coordinates (Angstroms)
 Number     Number       Type             X           Y           Z
 ---------------------------------------------------------------------
      1          6           0        1.313932    0.000000    0.000055
      2          1           0        1.877426    0.850734   -0.390830
      3          1           0        1.877393   -0.850734    0.390988
      4          6           0        0.000000    0.000000    0.000000
      5          6           0       -1.313932    0.000000   -0.000055
      6          1           0       -1.877393   -0.850736   -0.390984
      7          1           0       -1.877426    0.850736    0.390826
 ---------------------------------------------------------------------

 SCF Done:  E(UHF) =  -115.587617945     A.U. after   16 cycles
 E2 =    -0.3603112680D+00 EUMP2 =    -0.11594792921281D+03
 CCSD(T)
 CCSD(T)= -0.11600836283D+03

 The electronic state is 2-A.
 Alpha  occ. eigenvalues --  -11.57212 -11.53419 -11.53411  -1.37664  -1.26244
 Alpha  occ. eigenvalues --   -0.98826  -0.90912  -0.89345  -0.86343  -0.71412
 Alpha  occ. eigenvalues --   -0.64151
 Alpha virt. eigenvalues --   -0.17209  -0.10340  -0.07527  -0.07180  -0.06972
 Alpha virt. eigenvalues --   -0.04525  -0.03421  -0.02263  -0.00680   0.00397
 Alpha virt. eigenvalues --    0.02203   0.03285   0.03972   0.05984   0.06654

  Beta  occ. eigenvalues --  -11.57678 -11.52234 -11.52230  -1.34113  -1.21189
  Beta  occ. eigenvalues --   -0.97075  -0.89682  -0.86952  -0.84646  -0.68845
  Beta virt. eigenvalues --   -0.23819  -0.11914  -0.10092  -0.07117  -0.07034
  Beta virt. eigenvalues --   -0.06818  -0.03837  -0.03323   0.00423   0.00839
  Beta virt. eigenvalues --    0.01636   0.02454   0.03774   0.04448   0.06158

 Mulliken charges and spin densities:
               1          2
     1  C   -0.455574   0.689198
     2  H    0.246355  -0.032126
     3  H    0.246355  -0.032126
     4  C    0.925729  -0.249890
     5  C   -0.455574   0.689198
     6  H    0.246355  -0.032126
     7  H    0.246355  -0.032126
 Sum of Mulliken charges =   1.00000   1.00000

 Dipole moment (field-independent basis, Debye):
    X=              0.0000    Y=             -0.0000    Z=             -0.0000  Tot=              0.0000
 Quadrupole moment (field-independent basis, Debye-Ang):
   XX=             -3.0009   YY=            -13.7388   ZZ=            -17.5810
   XY=              0.0000   XZ=              0.0006   YZ=             -0.0000

 =-115.9915463\CCSD(T)=-116.0083628\S2=0.852747\S2-1=0.814346\S2A=0.751
 Normal termination of Gaussian 09 at Tue Oct 10 11:40:33 2017.
