 Gaussian 09, Revision E.01,
 Gaussian 09:  ES64L-G09RevE.01 30-Nov-2015

 -----------------------------------
 #p ccsd(t,maxcyc=200)/6-311++G(d,p)
 -----------------------------------

 -------------
 ccsd(t) iener
 -------------
 Symbolic Z-matrix:
 Charge =  0 Multiplicity = 3

                         Standard orientation:
 ---------------------------------------------------------------------
 Center     Atomic      Atomic             Coordinates (Angstroms)
 Number     Number       Type             X           Y           Z
 ---------------------------------------------------------------------
      1          6           0       -1.084468   -0.409879    0.000000
      2          6           0        0.000000    0.456772   -0.000000
      3          6           0        1.314626    0.089838   -0.000000
      4          1           0        1.878348   -0.832720   -0.000000
      5          1           0       -2.098091   -0.029201    0.000000
      6          1           0       -0.948593   -1.484965    0.000000
      7          1           0       -0.212615    1.526497   -0.000000
 ---------------------------------------------------------------------

 SCF Done:  E(UHF) =  -115.860502132     A.U. after   16 cycles
 E2 =    -0.3554211260D+00 EUMP2 =    -0.11621592325786D+03
 CCSD(T)
 CCSD(T)= -0.11627752245D+03

 The electronic state is 3-A".
 Alpha  occ. eigenvalues --  -11.25964 -11.24219 -11.23292  -1.08743  -0.94969
 Alpha  occ. eigenvalues --   -0.76537  -0.64243  -0.62177  -0.53319  -0.47485
 Alpha  occ. eigenvalues --   -0.42100  -0.35114
 Alpha virt. eigenvalues --    0.04229   0.05686   0.06319   0.08028   0.11542
 Alpha virt. eigenvalues --    0.12659   0.13930   0.15174   0.16624   0.17624
 Alpha virt. eigenvalues --    0.18202   0.19180   0.20543   0.21209   0.22505

  Beta  occ. eigenvalues --  -11.24849 -11.22137 -11.21602  -1.05552  -0.84270
  Beta  occ. eigenvalues --   -0.72780  -0.61688  -0.59476  -0.51944  -0.41272
  Beta virt. eigenvalues --    0.04350   0.05777   0.05858   0.08074   0.08530
  Beta virt. eigenvalues --    0.09230   0.10778   0.15378   0.15637   0.17826
  Beta virt. eigenvalues --    0.18474   0.19016   0.19941   0.20222   0.21123

 Mulliken charges and spin densities:
               1          2
     1  C   -0.453833   1.108900
     2  C    0.064341  -0.941402
     3  C   -0.194595   1.985801
     4  H    0.154463  -0.077113
     5  H    0.115768  -0.074989
     6  H    0.143247  -0.091605
     7  H    0.170609   0.090407
 Sum of Mulliken charges =  -0.00000   2.00000

 Dipole moment (field-independent basis, Debye):
    X=             -0.4287    Y=             -0.4511    Z=              0.0000  Tot=              0.6223
 Quadrupole moment (field-independent basis, Debye-Ang):
   XX=            -18.3272   YY=            -17.3446   ZZ=            -21.7375
   XY=             -1.5498   XZ=              0.0000   YZ=              0.0000

 Normal termination of Gaussian 09 at Tue Oct 10 11:38:48 2017.
