 Gaussian 09, Revision E.01,
 Gaussian 09:  ES64L-G09RevE.01 30-Nov-2015

 -----------------------------------
 #p ccsd(t,maxcyc=200)/6-311++G(d,p)
 -----------------------------------

 -------------
 ccsd(t) iener
 -------------
 Symbolic Z-matrix:
 Charge =  0 Multiplicity = 3

                         Standard orientation:
 ---------------------------------------------------------------------
 Center     Atomic      Atomic             Coordinates (Angstroms)
 Number     Number       Type             X           Y           Z
 ---------------------------------------------------------------------
      1          6           0       -0.019727   -1.018223   -0.000043
      2          1           0       -0.040647   -2.098025   -0.000090
      3          6           0        0.019727    1.018223    0.000043
      4          1           0        0.040647    2.098025    0.000090
      5          6           0        1.018223   -0.019727   -0.000021
      6          6           0       -1.018223    0.019727    0.000021
      7          1           0        2.098025   -0.040647   -0.000044
      8          1           0       -2.098025    0.040647    0.000044
 ---------------------------------------------------------------------

 SCF Done:  E(UHF) =  -153.688733732     A.U. after   14 cycles
 E2 =    -0.5299606201D+00 EUMP2 =    -0.15421869435229D+03
 CCSD(T)
 CCSD(T)= -0.15427593758D+03

 The electronic state is 3-AG.
 Alpha  occ. eigenvalues --  -11.25200 -11.25109 -11.25109 -11.25009  -1.19500
 Alpha  occ. eigenvalues --   -0.89767  -0.89767  -0.71607  -0.70738  -0.56643
 Alpha  occ. eigenvalues --   -0.55385  -0.51831  -0.51831  -0.29042  -0.29042
 Alpha virt. eigenvalues --    0.04371   0.05041   0.05041   0.06715   0.12152
 Alpha virt. eigenvalues --    0.13576   0.13759   0.15358   0.15358   0.15575
 Alpha virt. eigenvalues --    0.15575   0.16272   0.18918   0.19102   0.19102

  Beta  occ. eigenvalues --  -11.24123 -11.24029 -11.24029 -11.23943  -1.14694
  Beta  occ. eigenvalues --   -0.84394  -0.84394  -0.69394  -0.68870  -0.53636
  Beta  occ. eigenvalues --   -0.50744  -0.50744  -0.38276
  Beta virt. eigenvalues --    0.04452   0.05115   0.05115   0.06759   0.07532
  Beta virt. eigenvalues --    0.07532   0.13019   0.13676   0.15529   0.15529
  Beta virt. eigenvalues --    0.16938   0.17155   0.19247   0.19303   0.19303

 Mulliken charges and spin densities:
               1          2
     1  C   -0.185664   0.544271
     2  H    0.185664  -0.044271
     3  C   -0.185664   0.544271
     4  H    0.185664  -0.044271
     5  C   -0.185664   0.544271
     6  C   -0.185664   0.544271
     7  H    0.185664  -0.044271
     8  H    0.185664  -0.044271
 Sum of Mulliken charges =  -0.00000   2.00000

 Dipole moment (field-independent basis, Debye):
    X=             -0.0000    Y=              0.0000    Z=             -0.0000  Tot=              0.0000
 Quadrupole moment (field-independent basis, Debye-Ang):
   XX=            -21.7353   YY=            -21.7353   ZZ=            -27.9508
   XY=              0.0000   XZ=             -0.0001   YZ=              0.0003

 435\PMP3-0=-154.2462003\MP4SDQ=-154.2493554\CCSD=-154.2498811\CCSD(T)=
 Normal termination of Gaussian 09 at Tue Oct 10 12:25:06 2017.
