 Gaussian 09, Revision E.01,
 Gaussian 09:  ES64L-G09RevE.01 30-Nov-2015

 -----------------------------------
 #p ccsd(t,maxcyc=200)/6-311++G(d,p)
 -----------------------------------

 -------------
 ccsd(t) iener
 -------------
 Symbolic Z-matrix:
 Charge =  0 Multiplicity = 1

                         Standard orientation:
 ---------------------------------------------------------------------
 Center     Atomic      Atomic             Coordinates (Angstroms)
 Number     Number       Type             X           Y           Z
 ---------------------------------------------------------------------
      1          6           0        0.000000    1.095313    0.346945
      2          6           0       -0.000000   -1.095313    0.346945
      3          8           0        0.000000    0.000000    1.158401
      4          6           0        0.000000   -0.717701   -0.957756
      5          6           0        0.000000    0.717701   -0.957756
      6          1           0        0.000000    2.049676    0.845292
      7          1           0       -0.000000   -2.049676    0.845292
      8          1           0        0.000000   -1.373120   -1.814025
      9          1           0        0.000000    1.373120   -1.814025
 ---------------------------------------------------------------------

 SCF Done:  E(RHF) =  -228.682998631     A.U. after   14 cycles
 E2 =    -0.7529587239D+00 EUMP2 =    -0.22943595735447D+03
 CCSD(T)
 CCSD(T)= -0.22949340294D+03

 The electronic state is 1-A1.
 Alpha  occ. eigenvalues --  -20.62420 -11.29183 -11.29178 -11.23522 -11.23426
 Alpha  occ. eigenvalues --   -1.46068  -1.08710  -1.00820  -0.80954  -0.78344
 Alpha  occ. eigenvalues --   -0.74159  -0.63308  -0.61237  -0.58031  -0.56665
 Alpha  occ. eigenvalues --   -0.54250  -0.39919  -0.32231
 Alpha virt. eigenvalues --    0.04224   0.04851   0.05493   0.06786   0.10403
 Alpha virt. eigenvalues --    0.11622   0.12935   0.15056   0.15071   0.15163
 Alpha virt. eigenvalues --    0.15621   0.16199   0.18026   0.18843   0.19600

 Mulliken charges:
               1
     1  C   -0.157189
     2  C   -0.157189
     3  O   -0.148292
     4  C   -0.161687
     5  C   -0.161687
     6  H    0.207112
     7  H    0.207112
     8  H    0.185909
     9  H    0.185909
 Sum of Mulliken charges =  -0.00000

 Dipole moment (field-independent basis, Debye):
    X=             -0.0000    Y=              0.0000    Z=             -0.8867  Tot=              0.8867
 Quadrupole moment (field-independent basis, Debye-Ang):
   XX=            -32.8976   YY=            -23.9515   ZZ=            -28.5090
   XY=              0.0000   XZ=             -0.0000   YZ=             -0.0000

 29.4593024\CCSD=-229.4580882\CCSD(T)=-229.4934029\RMSD=6.705e-09\PG=C0
 Normal termination of Gaussian 09 at Mon Oct  9 17:17:07 2017.
