 Gaussian 09, Revision E.01,
 Gaussian 09:  ES64L-G09RevE.01 30-Nov-2015

 -----------------------------------
 #p ccsd(t,maxcyc=200)/6-311++G(d,p)
 -----------------------------------

 -------------
 ccsd(t) iener
 -------------
 Symbolic Z-matrix:
 Charge =  0 Multiplicity = 1

                         Standard orientation:
 ---------------------------------------------------------------------
 Center     Atomic      Atomic             Coordinates (Angstroms)
 Number     Number       Type             X           Y           Z
 ---------------------------------------------------------------------
      1          6           0       -1.087726   -0.061230    0.182850
      2          1           0       -2.159921   -0.020307    0.284220
      3          6           0       -0.030644    0.858437   -0.012868
      4          1           0       -0.034545    1.665762   -0.747942
      5          6           0        1.089075   -0.089418    0.139211
      6          1           0        1.359533   -0.355754    1.154820
      7          1           0        1.951725   -0.013495   -0.521680
      8          6           0       -0.156837   -0.920489   -0.337429
 ---------------------------------------------------------------------

 SCF Done:  E(RHF) =  -153.668012812     A.U. after   16 cycles
 E2 =    -0.5555353679D+00 EUMP2 =    -0.15422354817968D+03
 CCSD(T)
 CCSD(T)= -0.15428209406D+03

 The electronic state is 1-A.
 Alpha  occ. eigenvalues --  -11.29280 -11.26520 -11.26094 -11.25364  -1.21462
 Alpha  occ. eigenvalues --   -0.93473  -0.82926  -0.73906  -0.65438  -0.57341
 Alpha  occ. eigenvalues --   -0.56066  -0.51626  -0.39916  -0.33195
 Alpha virt. eigenvalues --    0.04114   0.05167   0.05533   0.06918   0.08459
 Alpha virt. eigenvalues --    0.10778   0.12467   0.13599   0.14065   0.15532
 Alpha virt. eigenvalues --    0.15960   0.16607   0.18401   0.18776   0.19669

 Mulliken charges:
               1
     1  C   -0.106174
     2  H    0.204775
     3  C    0.014648
     4  H    0.147567
     5  C   -0.479781
     6  H    0.155351
     7  H    0.137209
     8  C   -0.073595
 Sum of Mulliken charges =  -0.00000

 Dipole moment (field-independent basis, Debye):
    X=              0.1032    Y=              2.2784    Z=              0.9338  Tot=              2.4645
 Quadrupole moment (field-independent basis, Debye-Ang):
   XX=            -20.6901   YY=            -27.7827   ZZ=            -26.0757
   XY=             -0.6964   XZ=             -0.6887   YZ=             -3.6948

 101\MP4DQ=-154.2441191\MP4SDQ=-154.2510242\CCSD=-154.252074\CCSD(T)=-1
 Normal termination of Gaussian 09 at Tue Oct 10 11:57:34 2017.
