 Gaussian 09, Revision E.01,
 Gaussian 09:  ES64L-G09RevE.01 30-Nov-2015

 -----------------------------------
 #p ccsd(t,maxcyc=200)/6-311++G(d,p)
 -----------------------------------

 -------------
 ccsd(t) iener
 -------------
 Symbolic Z-matrix:
 Charge =  1 Multiplicity = 4

                         Standard orientation:
 ---------------------------------------------------------------------
 Center     Atomic      Atomic             Coordinates (Angstroms)
 Number     Number       Type             X           Y           Z
 ---------------------------------------------------------------------
      1          6           0       -1.611553   -0.328247    0.000009
      2          1           0       -2.193071   -0.065711    0.889206
      3          1           0       -1.380648   -1.390692   -0.001318
      4          1           0       -2.194854   -0.063792   -0.887415
      5          6           0       -0.355686    0.526888   -0.000286
      6          1           0       -0.482946    1.619057    0.001160
      7          6           0        0.888521    0.099370   -0.000166
      8          6           0        2.120638   -0.314488    0.000171
 ---------------------------------------------------------------------

 SCF Done:  E(UHF) =  -153.344073305     A.U. after   20 cycles
 E2 =    -0.4329457673D+00 EUMP2 =    -0.15377701907246D+03
 CCSD(T)
 CCSD(T)= -0.15385129097D+03

 The electronic state is 4-A.
 Alpha  occ. eigenvalues --  -11.62647 -11.59723 -11.51721 -11.44094  -1.41020
 Alpha  occ. eigenvalues --   -1.30193  -1.14069  -0.94635  -0.89816  -0.82515
 Alpha  occ. eigenvalues --   -0.82372  -0.76857  -0.75200  -0.73599  -0.60787
 Alpha virt. eigenvalues --   -0.14433  -0.09254  -0.06791  -0.05778  -0.05173
 Alpha virt. eigenvalues --   -0.04532  -0.03207  -0.02143  -0.02013  -0.01296
 Alpha virt. eigenvalues --    0.00947   0.01844   0.02625   0.03379   0.04491

  Beta  occ. eigenvalues --  -11.60300 -11.55193 -11.50108 -11.44167  -1.33570
  Beta  occ. eigenvalues --   -1.20196  -1.10098  -0.90226  -0.78063  -0.77315
  Beta  occ. eigenvalues --   -0.74241  -0.71085
  Beta virt. eigenvalues --   -0.26368  -0.21219  -0.13650  -0.08932  -0.06531
  Beta virt. eigenvalues --   -0.05353  -0.05031  -0.02949  -0.02470  -0.01815
  Beta virt. eigenvalues --   -0.01234   0.00105   0.00321   0.02994   0.04015

 Mulliken charges and spin densities:
               1          2
     1  C   -0.743245  -0.049678
     2  H    0.216410   0.027397
     3  H    0.176755   0.002522
     4  H    0.216298   0.027330
     5  C   -0.846045   0.823148
     6  H    0.312156  -0.023484
     7  C    1.324929  -0.108551
     8  C    0.342741   2.301316
 Sum of Mulliken charges =   1.00000   3.00000

 Dipole moment (field-independent basis, Debye):
    X=              2.0791    Y=              0.4064    Z=              0.0015  Tot=              2.1185
 Quadrupole moment (field-independent basis, Debye-Ang):
   XX=             -7.1110   YY=            -18.0414   ZZ=            -22.8017
   XY=             -1.4422   XZ=              0.0003   YZ=              0.0032

 -0=-153.8202639\MP4SDQ=-153.824297\CCSD=-153.8311534\CCSD(T)=-153.8512
 Normal termination of Gaussian 09 at Tue Oct 10 15:21:35 2017.
