 Gaussian 09, Revision E.01,
 Gaussian 09:  ES64L-G09RevE.01 30-Nov-2015

 -----------------------------------
 #p ccsd(t,maxcyc=200)/6-311++G(d,p)
 -----------------------------------

 -------------
 ccsd(t) iener
 -------------
 Symbolic Z-matrix:
 Charge =  1 Multiplicity = 2

                         Standard orientation:
 ---------------------------------------------------------------------
 Center     Atomic      Atomic             Coordinates (Angstroms)
 Number     Number       Type             X           Y           Z
 ---------------------------------------------------------------------
      1          6           0        0.064559    1.859047   -0.000000
      2          1           0       -0.365799    2.297853    0.909544
      3          1           0       -0.365799    2.297853   -0.909544
      4          1           0        1.143998    2.113187   -0.000000
      5          6           0       -0.000000    0.448968   -0.000000
      6          6           0       -0.035434   -0.825226    0.000000
      7          6           0       -0.078563   -2.076154    0.000000
      8          1           0       -0.115774   -3.148708    0.000000
 ---------------------------------------------------------------------

 SCF Done:  E(UHF) =  -153.420826344     A.U. after   42 cycles
 E2 =    -0.4773886787D+00 EUMP2 =    -0.15389821502254D+03
 CCSD(T)
 CCSD(T)= -0.15397560576D+03

 The electronic state is 2-A".
 Alpha  occ. eigenvalues --  -11.58501 -11.55597 -11.48762 -11.46781  -1.35723
 Alpha  occ. eigenvalues --   -1.28406  -1.16152  -0.97202  -0.88574  -0.84867
 Alpha  occ. eigenvalues --   -0.79853  -0.74255  -0.68242  -0.60783
 Alpha virt. eigenvalues --   -0.23292  -0.09370  -0.07222  -0.05113  -0.05102
 Alpha virt. eigenvalues --   -0.03729  -0.02604  -0.02426  -0.00089   0.01197
 Alpha virt. eigenvalues --    0.01207   0.01979   0.03520   0.03632   0.04923

  Beta  occ. eigenvalues --  -11.56763 -11.52780 -11.50546 -11.46997  -1.34666
  Beta  occ. eigenvalues --   -1.25121  -1.12396  -0.95082  -0.87435  -0.81201
  Beta  occ. eigenvalues --   -0.80504  -0.68402  -0.68156
  Beta virt. eigenvalues --   -0.19263  -0.15837  -0.09328  -0.07030  -0.05074
  Beta virt. eigenvalues --   -0.04945  -0.03633  -0.02961  -0.02636   0.00195
  Beta virt. eigenvalues --    0.01258   0.01894   0.03573   0.03758   0.04351

 Mulliken charges and spin densities:
               1          2
     1  C   -0.699524  -0.078753
     2  H    0.233046   0.039066
     3  H    0.233046   0.039066
     4  H    0.243093  -0.016838
     5  C    0.409931   0.719409
     6  C    2.311106  -0.850893
     7  C   -1.987523   1.229352
     8  H    0.256824  -0.080411
 Sum of Mulliken charges =   1.00000   1.00000

 Dipole moment (field-independent basis, Debye):
    X=              0.1298    Y=             -0.9212    Z=             -0.0000  Tot=              0.9303
 Quadrupole moment (field-independent basis, Debye-Ang):
   XX=            -20.9810   YY=              2.7418   ZZ=            -22.3438
   XY=              1.2385   XZ=              0.0000   YZ=             -0.0000

 P4SDQ=-153.9415981\CCSD=-153.9495495\CCSD(T)=-153.9756058\S2=1.049664\
 Normal termination of Gaussian 09 at Tue Oct 10 14:17:21 2017.
