 Gaussian 09, Revision E.01,
 Gaussian 09:  ES64L-G09RevE.01 30-Nov-2015

 -----------------------------------
 #p ccsd(t,maxcyc=200)/6-311++G(d,p)
 -----------------------------------

 -------------
 ccsd(t) iener
 -------------
 Symbolic Z-matrix:
 Charge =  1 Multiplicity = 2

                         Standard orientation:
 ---------------------------------------------------------------------
 Center     Atomic      Atomic             Coordinates (Angstroms)
 Number     Number       Type             X           Y           Z
 ---------------------------------------------------------------------
      1          6           0        0.952406   -0.574486    0.060622
      2          1           0        1.458889   -1.012534   -0.802054
      3          1           0        1.199792   -1.031861    1.018387
      4          6           0        0.596177    0.856341    0.006558
      5          1           0        0.455489    1.417233    0.924085
      6          1           0        0.690608    1.409432   -0.923246
      7          6           0       -0.486374   -0.396670   -0.173156
      8          6           0       -1.696338   -0.015563    0.069782
 ---------------------------------------------------------------------

 SCF Done:  E(UHF) =  -153.343482412     A.U. after   31 cycles
 E2 =    -0.4843661220D+00 EUMP2 =    -0.15382784853396D+03
 CCSD(T)
 CCSD(T)= -0.15390405922D+03

 The electronic state is 2-A.
 Alpha  occ. eigenvalues --  -11.59695 -11.56235 -11.55328 -11.52625  -1.45835
 Alpha  occ. eigenvalues --   -1.28055  -1.10336  -0.95061  -0.93642  -0.81450
 Alpha  occ. eigenvalues --   -0.79578  -0.75813  -0.70467  -0.69726
 Alpha virt. eigenvalues --   -0.17061  -0.13137  -0.09319  -0.07235  -0.06994
 Alpha virt. eigenvalues --   -0.05549  -0.03591  -0.03046  -0.02118  -0.01573
 Alpha virt. eigenvalues --   -0.00822   0.00764   0.02814   0.03810   0.04440

  Beta  occ. eigenvalues --  -11.58808 -11.55475 -11.54704 -11.52718  -1.42741
  Beta  occ. eigenvalues --   -1.22664  -1.10293  -0.93653  -0.91536  -0.79818
  Beta  occ. eigenvalues --   -0.78721  -0.71911  -0.68736
  Beta virt. eigenvalues --   -0.24905  -0.16374  -0.09859  -0.07893  -0.07190
  Beta virt. eigenvalues --   -0.05569  -0.04319  -0.03532  -0.02231  -0.01682
  Beta virt. eigenvalues --   -0.01042  -0.00460   0.01591   0.02843   0.03910

 Mulliken charges and spin densities:
               1          2
     1  C   -0.453215  -0.082696
     2  H    0.258098   0.021342
     3  H    0.265886   0.013491
     4  C   -0.248861  -0.097906
     5  H    0.259904   0.009904
     6  H    0.266941   0.016472
     7  C    0.196904   0.757149
     8  C    0.454344   0.362244
 Sum of Mulliken charges =   1.00000   1.00000

 Dipole moment (field-independent basis, Debye):
    X=              1.6500    Y=              0.3424    Z=             -0.4166  Tot=              1.7359
 Quadrupole moment (field-independent basis, Debye-Ang):
   XX=            -18.2192   YY=            -17.7416   ZZ=            -19.1027
   XY=              0.0851   XZ=              0.8977   YZ=             -0.2083

 3-0=-153.8679751\MP4SDQ=-153.8706851\CCSD=-153.8773578\CCSD(T)=-153.90
 Normal termination of Gaussian 09 at Tue Oct 10 13:24:30 2017.
