 Gaussian 09, Revision E.01,
 Gaussian 09:  ES64L-G09RevE.01 30-Nov-2015

 -----------------------------------
 #p ccsd(t,maxcyc=200)/6-311++G(d,p)
 -----------------------------------

 -------------
 ccsd(t) iener
 -------------
 Symbolic Z-matrix:
 Charge =  1 Multiplicity = 2

                         Standard orientation:
 ---------------------------------------------------------------------
 Center     Atomic      Atomic             Coordinates (Angstroms)
 Number     Number       Type             X           Y           Z
 ---------------------------------------------------------------------
      1          6           0        1.646868   -0.257078   -0.130314
      2          1           0        2.392804   -1.025970   -0.209719
      3          6           0        0.657491    0.513726   -0.003468
      4          1           0        0.604038    1.591577   -0.119265
      5          6           0       -0.816730   -0.120896    0.460676
      6          1           0       -1.151823    0.448068    1.342727
      7          1           0       -0.725691   -1.191229    0.736330
      8          6           0       -1.674183   -0.106160   -0.618572
 ---------------------------------------------------------------------

 SCF Done:  E(UHF) =  -153.293231075     A.U. after   45 cycles
 E2 =    -0.4737930954D+00 EUMP2 =    -0.15376702417094D+03
 CCSD(T)
 CCSD(T)= -0.15385391778D+03

 The electronic state is 2-A.
 Alpha  occ. eigenvalues --  -11.65189 -11.51276 -11.48774 -11.48431  -1.36769
 Alpha  occ. eigenvalues --   -1.27301  -1.01362  -0.97839  -0.89439  -0.83314
 Alpha  occ. eigenvalues --   -0.80702  -0.75029  -0.63762  -0.57268
 Alpha virt. eigenvalues --   -0.22108  -0.20178  -0.09228  -0.07481  -0.06784
 Alpha virt. eigenvalues --   -0.05647  -0.04911  -0.03336  -0.01779  -0.00872
 Alpha virt. eigenvalues --   -0.00135   0.00701   0.02134   0.02947   0.03475

  Beta  occ. eigenvalues --  -11.64763 -11.50899 -11.50075 -11.45607  -1.35541
  Beta  occ. eigenvalues --   -1.23118  -0.98809  -0.95857  -0.88406  -0.82897
  Beta  occ. eigenvalues --   -0.79200  -0.74027  -0.63007
  Beta virt. eigenvalues --   -0.19655  -0.19213  -0.10961  -0.07831  -0.07296
  Beta virt. eigenvalues --   -0.06487  -0.05130  -0.04574  -0.03382  -0.01648
  Beta virt. eigenvalues --   -0.00150   0.01056   0.01749   0.02452   0.03359

 Mulliken charges and spin densities:
               1          2
     1  C   -0.114751   1.411969
     2  H    0.329194  -0.096714
     3  C   -0.069201  -0.690626
     4  H    0.275916   0.065315
     5  C   -0.564596   0.089443
     6  H    0.302641  -0.020606
     7  H    0.286404  -0.004248
     8  C    0.554392   0.245467
 Sum of Mulliken charges =   1.00000   1.00000

 Dipole moment (field-independent basis, Debye):
    X=             -1.1733    Y=             -0.7247    Z=              0.9984  Tot=              1.7025
 Quadrupole moment (field-independent basis, Debye-Ang):
   XX=            -11.8306   YY=            -17.1785   ZZ=            -22.1352
   XY=             -2.1851   XZ=             -2.5218   YZ=             -0.0909

 24\PMP3-0=-153.8167239\MP4SDQ=-153.8169917\CCSD=-153.82756\CCSD(T)=-15
 Normal termination of Gaussian 09 at Tue Oct 10 13:17:05 2017.
