 Gaussian 09, Revision E.01,
 Gaussian 09:  ES64L-G09RevE.01 30-Nov-2015

 -----------------------------------
 #p ccsd(t,maxcyc=200)/6-311++G(d,p)
 -----------------------------------

 -------------
 ccsd(t) iener
 -------------
 Symbolic Z-matrix:
 Charge =  1 Multiplicity = 4

                         Standard orientation:
 ---------------------------------------------------------------------
 Center     Atomic      Atomic             Coordinates (Angstroms)
 Number     Number       Type             X           Y           Z
 ---------------------------------------------------------------------
      1          6           0       -0.951893   -0.777608   -0.294702
      2          6           0        0.164110   -0.164852    0.403835
      3          1           0        0.187354   -0.361576    1.505229
      4          6           0        1.506313    0.139516   -0.176632
      5          1           0        2.138016   -0.700736   -0.440390
      6          1           0        1.846848    1.166701   -0.211700
      7          6           0       -1.139318    0.536721   -0.056475
      8          1           0       -1.647494    1.492947   -0.109292
 ---------------------------------------------------------------------

 SCF Done:  E(UHF) =  -153.305377630     A.U. after   24 cycles
 E2 =    -0.4634664597D+00 EUMP2 =    -0.15376884408980D+03
 CCSD(T)
 CCSD(T)= -0.15383773459D+03

 The electronic state is 4-A.
 Alpha  occ. eigenvalues --  -11.61286 -11.59749 -11.54085 -11.45673  -1.50635
 Alpha  occ. eigenvalues --   -1.22772  -1.07762  -1.02637  -0.91266  -0.87096
 Alpha  occ. eigenvalues --   -0.81820  -0.79564  -0.68705  -0.66770  -0.58892
 Alpha virt. eigenvalues --   -0.17039  -0.09331  -0.07824  -0.06479  -0.06316
 Alpha virt. eigenvalues --   -0.03499  -0.03125  -0.01957  -0.00871  -0.00370
 Alpha virt. eigenvalues --    0.01233   0.02121   0.02530   0.03800   0.04371

  Beta  occ. eigenvalues --  -11.58290 -11.57694 -11.54253 -11.42938  -1.43541
  Beta  occ. eigenvalues --   -1.13547  -1.02742  -0.94548  -0.81401  -0.80490
  Beta  occ. eigenvalues --   -0.76080  -0.72312
  Beta virt. eigenvalues --   -0.25441  -0.20533  -0.09912  -0.08718  -0.07462
  Beta virt. eigenvalues --   -0.06903  -0.05900  -0.05352  -0.03054  -0.01777
  Beta virt. eigenvalues --   -0.00929   0.01381   0.02215   0.02701   0.02935

 Mulliken charges and spin densities:
               1          2
     1  C    0.126938   1.061296
     2  C    0.055832  -0.237361
     3  H    0.272074   0.155813
     4  C   -0.492798   1.393727
     5  H    0.214012  -0.093058
     6  H    0.202819  -0.096031
     7  C    0.250491   0.840488
     8  H    0.370632  -0.024874
 Sum of Mulliken charges =   1.00000   3.00000

 Dipole moment (field-independent basis, Debye):
    X=             -1.9825    Y=              1.0272    Z=              0.4730  Tot=              2.2824
 Quadrupole moment (field-independent basis, Debye-Ang):
   XX=            -13.4956   YY=            -17.4254   ZZ=            -20.4493
   XY=             -2.3358   XZ=             -0.1353   YZ=             -0.4351

 7\PMP3-0=-153.8071724\MP4SDQ=-153.8125995\CCSD=-153.8154146\CCSD(T)=-1
 Normal termination of Gaussian 09 at Tue Oct 10 15:44:00 2017.
