 Gaussian 09, Revision E.01,
 Gaussian 09:  ES64L-G09RevE.01 30-Nov-2015

 -----------------------------------
 #p ccsd(t,maxcyc=200)/6-311++G(d,p)
 -----------------------------------

 -------------
 ccsd(t) iener
 -------------
 Symbolic Z-matrix:
 Charge =  0 Multiplicity = 3

                         Standard orientation:
 ---------------------------------------------------------------------
 Center     Atomic      Atomic             Coordinates (Angstroms)
 Number     Number       Type             X           Y           Z
 ---------------------------------------------------------------------
      1          6           0       -1.493271    0.529407    0.000000
      2          1           0       -1.935732    1.005563    0.881864
      3          1           0       -1.771117   -0.524449    0.000000
      4          1           0       -1.935732    1.005563   -0.881864
      5          6           0        0.000000    0.702947    0.000000
      6          1           0        0.403864    1.713970    0.000000
      7          6           0        0.901668   -0.306236    0.000000
      8          6           0        1.464722   -1.459559    0.000000
 ---------------------------------------------------------------------

 SCF Done:  E(UHF) =  -153.647727023     A.U. after   33 cycles
 E2 =    -0.4929650094D+00 EUMP2 =    -0.15414069203212D+03
 CCSD(T)
 CCSD(T)= -0.15421747901D+03

 The electronic state is 3-A".
 Alpha  occ. eigenvalues --  -11.28988 -11.27974 -11.27579 -11.24622  -1.12309
 Alpha  occ. eigenvalues --   -1.02835  -0.90940  -0.70083  -0.60585  -0.60474
 Alpha  occ. eigenvalues --   -0.56741  -0.53832  -0.48972  -0.41234  -0.34993
 Alpha virt. eigenvalues --    0.03651   0.05652   0.06928   0.07355   0.10728
 Alpha virt. eigenvalues --    0.11690   0.12699   0.13171   0.13950   0.14267
 Alpha virt. eigenvalues --    0.16195   0.17122   0.17462   0.18611   0.20043

  Beta  occ. eigenvalues --  -11.28533 -11.25705 -11.25190 -11.24820  -1.07717
  Beta  occ. eigenvalues --   -0.97656  -0.85375  -0.67395  -0.58623  -0.57714
  Beta  occ. eigenvalues --   -0.54232  -0.43220  -0.38576
  Beta virt. eigenvalues --   -0.00585   0.03716   0.05759   0.06962   0.07913
  Beta virt. eigenvalues --    0.07980   0.11693   0.12687   0.12868   0.13514
  Beta virt. eigenvalues --    0.14783   0.15349   0.16826   0.17870   0.19142

 Mulliken charges and spin densities:
               1          2
     1  C   -0.812680  -0.122029
     2  H    0.142900   0.035149
     3  H    0.162854   0.006773
     4  H    0.142900   0.035149
     5  C   -0.427905   0.926079
     6  H    0.210195  -0.051220
     7  C    0.777536  -0.240202
     8  C   -0.195799   1.410303
 Sum of Mulliken charges =  -0.00000   2.00000

 Dipole moment (field-independent basis, Debye):
    X=             -1.1881    Y=              2.3298    Z=             -0.0000  Tot=              2.6152
 Quadrupole moment (field-independent basis, Debye-Ang):
   XX=            -23.6386   YY=            -26.6957   ZZ=            -26.1988
   XY=              1.1704   XZ=              0.0000   YZ=             -0.0000

 CSD=-154.1929644\CCSD(T)=-154.217479\S2=2.169377\S2-1=2.103669\S2A=2.0
 Normal termination of Gaussian 09 at Tue Oct 10 12:41:49 2017.
