 Gaussian 09, Revision E.01,
 Gaussian 09:  ES64L-G09RevE.01 30-Nov-2015

 -----------------------------------
 #p ccsd(t,maxcyc=200)/6-311++G(d,p)
 -----------------------------------

 -------------
 ccsd(t) iener
 -------------
 Symbolic Z-matrix:
 Charge =  0 Multiplicity = 3

                         Standard orientation:
 ---------------------------------------------------------------------
 Center     Atomic      Atomic             Coordinates (Angstroms)
 Number     Number       Type             X           Y           Z
 ---------------------------------------------------------------------
      1          6           0        1.688415    0.106302    0.019702
      2          1           0        2.566097   -0.528940    0.006150
      3          1           0        1.849270    1.178546    0.057987
      4          6           0        0.423138   -0.415243   -0.016748
      5          1           0        0.286247   -1.492903   -0.035698
      6          6           0       -2.047863   -0.177303    0.038553
      7          6           0       -0.746955    0.381719   -0.042306
      8          1           0       -0.602027    1.470453   -0.023644
 ---------------------------------------------------------------------

 SCF Done:  E(UHF) =  -153.656553650     A.U. after   40 cycles
 E2 =    -0.4669231513D+00 EUMP2 =    -0.15412347680165D+03
 CCSD(T)
 CCSD(T)= -0.15420445570D+03

 The electronic state is 3-A.
 Alpha  occ. eigenvalues --  -11.27716 -11.27417 -11.26869 -11.26417  -1.12940
 Alpha  occ. eigenvalues --   -1.02844  -0.83827  -0.76157  -0.64945  -0.63097
 Alpha  occ. eigenvalues --   -0.54958  -0.49775  -0.45649  -0.38559  -0.36194
 Alpha virt. eigenvalues --    0.03584   0.05098   0.06224   0.07474   0.07948
 Alpha virt. eigenvalues --    0.11095   0.11674   0.12205   0.14142   0.15003
 Alpha virt. eigenvalues --    0.15387   0.16840   0.17706   0.19444   0.19820

  Beta  occ. eigenvalues --  -11.27455 -11.26613 -11.25741 -11.24317  -1.10451
  Beta  occ. eigenvalues --   -0.94652  -0.80036  -0.72584  -0.62646  -0.60580
  Beta  occ. eigenvalues --   -0.54036  -0.44011  -0.39770
  Beta virt. eigenvalues --    0.00678   0.03663   0.05155   0.06294   0.07641
  Beta virt. eigenvalues --    0.08744   0.11432   0.12457   0.12959   0.14278
  Beta virt. eigenvalues --    0.15453   0.16244   0.16931   0.17771   0.19474

 Mulliken charges and spin densities:
               1          2
     1  C   -0.492567   1.009356
     2  H    0.162639  -0.076172
     3  H    0.146474  -0.073543
     4  C    0.193281  -0.666237
     5  H    0.203123   0.045983
     6  C   -0.206431   1.272776
     7  C   -0.166168   0.507399
     8  H    0.159650  -0.019562
 Sum of Mulliken charges =  -0.00000   2.00000

 Dipole moment (field-independent basis, Debye):
    X=              3.8538    Y=              0.8602    Z=             -0.3372  Tot=              3.9630
 Quadrupole moment (field-independent basis, Debye-Ang):
   XX=            -31.9202   YY=            -23.1505   ZZ=            -26.4103
   XY=             -2.0350   XZ=              1.0538   YZ=              0.2507

 0=-154.1749304\MP4SDQ=-154.1751065\CCSD=-154.1827652\CCSD(T)=-154.2044
 Normal termination of Gaussian 09 at Tue Oct 10 12:20:53 2017.
