 Gaussian 09, Revision E.01,
 Gaussian 09:  ES64L-G09RevE.01 30-Nov-2015

 -----------------------------------
 #p ccsd(t,maxcyc=200)/6-311++G(d,p)
 -----------------------------------

 -------------
 ccsd(t) iener
 -------------
 Symbolic Z-matrix:
 Charge =  0 Multiplicity = 1

                         Standard orientation:
 ---------------------------------------------------------------------
 Center     Atomic      Atomic             Coordinates (Angstroms)
 Number     Number       Type             X           Y           Z
 ---------------------------------------------------------------------
      1          6           0        1.526402    0.056150   -0.000423
      2          1           0        1.908203    1.078083   -0.025528
      3          1           0        1.911695   -0.498276   -0.861435
      4          1           0        1.906198   -0.450339    0.892242
      5          6           0        0.053666   -0.010849   -0.000630
      6          6           0       -1.087997   -0.858247    0.000047
      7          6           0       -1.150264    0.552566    0.000122
      8          1           0       -1.776936    1.432809    0.000029
 ---------------------------------------------------------------------

 SCF Done:  E(RHF) =  -153.706882640     A.U. after   13 cycles
 E2 =    -0.5289376248D+00 EUMP2 =    -0.15423582026465D+03
 CCSD(T)
 CCSD(T)= -0.15429364725D+03

 The electronic state is 1-A.
 Alpha  occ. eigenvalues --  -11.28481 -11.27467 -11.25728 -11.23994  -1.21447
 Alpha  occ. eigenvalues --   -1.01456  -0.78531  -0.70906  -0.63453  -0.60240
 Alpha  occ. eigenvalues --   -0.56934  -0.46116  -0.45471  -0.35831
 Alpha virt. eigenvalues --    0.03462   0.04902   0.07004   0.07055   0.10162
 Alpha virt. eigenvalues --    0.10573   0.12006   0.12289   0.14135   0.14985
 Alpha virt. eigenvalues --    0.16162   0.16715   0.17133   0.18208   0.18660

 Mulliken charges:
               1
     1  C   -0.792004
     2  H    0.160151
     3  H    0.163769
     4  H    0.163716
     5  C    0.414199
     6  C   -0.261316
     7  C   -0.044965
     8  H    0.196450
 Sum of Mulliken charges =   0.00000

 Dipole moment (field-independent basis, Debye):
    X=              2.2702    Y=              3.1424    Z=              0.0053  Tot=              3.8767
 Quadrupole moment (field-independent basis, Debye-Ang):
   XX=            -24.1262   YY=            -27.5410   ZZ=            -24.2334
   XY=             -5.6748   XZ=              0.0089   YZ=              0.0004

 823\MP4DQ=-154.2637921\MP4SDQ=-154.2685523\CCSD=-154.2686166\CCSD(T)=-
 Normal termination of Gaussian 09 at Tue Oct 10 12:06:01 2017.
