 Gaussian 09, Revision E.01,
 Gaussian 09:  ES64L-G09RevE.01 30-Nov-2015

 -----------------------------------
 #p ccsd(t,maxcyc=200)/6-311++G(d,p)
 -----------------------------------

 -------------
 ccsd(t) iener
 -------------
 Symbolic Z-matrix:
 Charge =  0 Multiplicity = 3

                         Standard orientation:
 ---------------------------------------------------------------------
 Center     Atomic      Atomic             Coordinates (Angstroms)
 Number     Number       Type             X           Y           Z
 ---------------------------------------------------------------------
      1          6           0       -0.321824    0.662746    0.000000
      2          1           0       -1.413097    0.667617    0.000000
      3          6           0        0.321824   -0.662746    0.000000
      4          1           0        1.413097   -0.667617    0.000000
      5          6           0        0.321824    1.811254    0.000000
      6          6           0       -0.321824   -1.811254    0.000000
      7          1           0       -1.337443   -2.179081    0.000000
      8          1           0        1.337443    2.179081    0.000000
 ---------------------------------------------------------------------

 SCF Done:  E(UHF) =  -153.663420886     A.U. after   17 cycles
 E2 =    -0.4858263749D+00 EUMP2 =    -0.15414924726084D+03
 CCSD(T)
 CCSD(T)= -0.15422442399D+03

 The electronic state is 3-BU.
 Alpha  occ. eigenvalues --  -11.26544 -11.26544 -11.24986 -11.24909  -1.10641
 Alpha  occ. eigenvalues --   -1.02663  -0.82935  -0.76675  -0.65349  -0.64767
 Alpha  occ. eigenvalues --   -0.56741  -0.45228  -0.44422  -0.38632  -0.37052
 Alpha virt. eigenvalues --    0.04151   0.05058   0.06021   0.07692   0.08507
 Alpha virt. eigenvalues --    0.11950   0.12248   0.12627   0.14093   0.15642
 Alpha virt. eigenvalues --    0.16522   0.16954   0.18025   0.19110   0.19893

  Beta  occ. eigenvalues --  -11.25582 -11.25508 -11.23349 -11.23349  -1.08938
  Beta  occ. eigenvalues --   -0.96378  -0.75111  -0.74477  -0.62083  -0.61967
  Beta  occ. eigenvalues --   -0.53999  -0.47424  -0.32121
  Beta virt. eigenvalues --    0.04248   0.05081   0.05264   0.07669   0.08031
  Beta virt. eigenvalues --    0.09593   0.09776   0.11355   0.14629   0.15192
  Beta virt. eigenvalues --    0.15973   0.16343   0.18260   0.18306   0.19327

 Mulliken charges and spin densities:
               1          2
     1  C   -0.134483  -0.428763
     2  H    0.164917   0.072184
     3  C   -0.134483  -0.428763
     4  H    0.164917   0.072184
     5  C   -0.198161   1.378126
     6  C   -0.198161   1.378126
     7  H    0.167727  -0.021547
     8  H    0.167727  -0.021547
 Sum of Mulliken charges =  -0.00000   2.00000

 Dipole moment (field-independent basis, Debye):
    X=             -0.0000    Y=             -0.0000    Z=              0.0000  Tot=              0.0000
 Quadrupole moment (field-independent basis, Debye-Ang):
   XX=            -20.6122   YY=            -26.0183   ZZ=            -28.0206
   XY=              3.1448   XZ=              0.0000   YZ=              0.0000

 308\CCSD(T)=-154.224424\S2=2.17348\S2-1=2.126706\S2A=2.013925\RMSD=2.4
 Normal termination of Gaussian 09 at Tue Oct 10 12:57:17 2017.
