 Gaussian 09, Revision E.01,
 Gaussian 09:  ES64L-G09RevE.01 30-Nov-2015

 -----------------------------------
 #p ccsd(t,maxcyc=200)/6-311++G(d,p)
 -----------------------------------

 -------------
 ccsd(t) iener
 -------------
 Symbolic Z-matrix:
 Charge =  1 Multiplicity = 4

                         Standard orientation:
 ---------------------------------------------------------------------
 Center     Atomic      Atomic             Coordinates (Angstroms)
 Number     Number       Type             X           Y           Z
 ---------------------------------------------------------------------
      1          6           0       -0.000000    0.000000   -0.641059
      2          6           0       -0.000000    0.000000    0.641059
      3          6           0        0.000000   -0.000000    2.014884
      4          6           0        0.000000   -0.000000   -2.014884
      5          1           0       -0.414423    0.840321   -2.573060
      6          1           0        0.414423   -0.840321   -2.573060
      7          1           0       -0.414423   -0.840321    2.573060
      8          1           0        0.414423    0.840321    2.573060
 ---------------------------------------------------------------------

 SCF Done:  E(UHF) =  -153.370936012     A.U. after   15 cycles
 E2 =    -0.4520101315D+00 EUMP2 =    -0.15382294614309D+03
 CCSD(T)
 CCSD(T)= -0.15389455419D+03

 The electronic state is 4-B3.
 Alpha  occ. eigenvalues --  -11.57417 -11.57173 -11.50159 -11.50159  -1.39807
 Alpha  occ. eigenvalues --   -1.29071  -1.18941  -0.93898  -0.89574  -0.88100
 Alpha  occ. eigenvalues --   -0.85797  -0.77206  -0.73716  -0.62747  -0.54818
 Alpha virt. eigenvalues --   -0.09634  -0.09511  -0.06890  -0.06258  -0.04977
 Alpha virt. eigenvalues --   -0.03689  -0.03295  -0.02118   0.00578   0.00600
 Alpha virt. eigenvalues --    0.02519   0.02747   0.03649   0.03883   0.06732

  Beta  occ. eigenvalues --  -11.56145 -11.55935 -11.48352 -11.48352  -1.29609
  Beta  occ. eigenvalues --   -1.20255  -1.11533  -0.89644  -0.86846  -0.81430
  Beta  occ. eigenvalues --   -0.81291  -0.66857
  Beta virt. eigenvalues --   -0.27307  -0.18348  -0.10531  -0.09102  -0.06472
  Beta virt. eigenvalues --   -0.05900  -0.04520  -0.03050  -0.02295  -0.01229
  Beta virt. eigenvalues --    0.00707   0.02942   0.03143   0.03251   0.04463

 Mulliken charges and spin densities:
               1          2
     1  C    0.646763   0.471506
     2  C    0.646763   0.471506
     3  C   -0.604657   1.118851
     4  C   -0.604657   1.118851
     5  H    0.228947  -0.045178
     6  H    0.228947  -0.045178
     7  H    0.228947  -0.045178
     8  H    0.228947  -0.045178
 Sum of Mulliken charges =   1.00000   3.00000

 Dipole moment (field-independent basis, Debye):
    X=              0.0000    Y=             -0.0000    Z=              0.0000  Tot=              0.0000
 Quadrupole moment (field-independent basis, Debye-Ang):
   XX=            -23.3971   YY=            -19.3472   ZZ=             -1.1727
   XY=              0.0000   XZ=             -0.0000   YZ=              0.0000

 3-0=-153.8646108\MP4SDQ=-153.8703841\CCSD=-153.8734843\CCSD(T)=-153.89
 Normal termination of Gaussian 09 at Tue Oct 10 15:17:52 2017.
