 Gaussian 09, Revision E.01,
 Gaussian 09:  ES64L-G09RevE.01 30-Nov-2015

 -----------------------------------
 #p ccsd(t,maxcyc=200)/6-311++G(d,p)
 -----------------------------------

 -------------
 ccsd(t) iener
 -------------
 Symbolic Z-matrix:
 Charge =  0 Multiplicity = 1

                         Standard orientation:
 ---------------------------------------------------------------------
 Center     Atomic      Atomic             Coordinates (Angstroms)
 Number     Number       Type             X           Y           Z
 ---------------------------------------------------------------------
      1          6           0        0.000000   -0.000000    0.632950
      2          6           0        0.000000    0.000000   -0.632950
      3          6           0       -0.000000    0.000000   -1.947992
      4          1           0        0.000000    0.926413   -2.514504
      5          1           0       -0.000000   -0.926413   -2.514504
      6          6           0       -0.000000   -0.000000    1.947992
      7          1           0       -0.000000   -0.926413    2.514504
      8          1           0       -0.000000    0.926413    2.514504
 ---------------------------------------------------------------------

 SCF Done:  E(RHF) =  -153.730032299     A.U. after   12 cycles
 E2 =    -0.5432163604D+00 EUMP2 =    -0.15427324865967D+03
 CCSD(T)
 CCSD(T)= -0.15433467578D+03

 The electronic state is 1-AG.
 Alpha  occ. eigenvalues --  -11.26057 -11.25849 -11.25687 -11.25648  -1.09494
 Alpha  occ. eigenvalues --   -1.01677  -0.89791  -0.69260  -0.65301  -0.62665
 Alpha  occ. eigenvalues --   -0.60505  -0.47690  -0.37583  -0.33562
 Alpha virt. eigenvalues --    0.04546   0.05637   0.06013   0.06070   0.06978
 Alpha virt. eigenvalues --    0.10311   0.12615   0.13294   0.13754   0.16305
 Alpha virt. eigenvalues --    0.17381   0.17707   0.19442   0.20210   0.20637

 Mulliken charges:
               1
     1  C    0.421114
     2  C    0.421114
     3  C   -0.705533
     4  H    0.142210
     5  H    0.142210
     6  C   -0.705533
     7  H    0.142210
     8  H    0.142210
 Sum of Mulliken charges =  -0.00000

 Dipole moment (field-independent basis, Debye):
    X=              0.0000    Y=             -0.0000    Z=             -0.0000  Tot=              0.0000
 Quadrupole moment (field-independent basis, Debye-Ang):
   XX=            -27.7423   YY=            -23.5971   ZZ=            -17.6365
   XY=             -0.0000   XZ=              0.0000   YZ=              0.0000

 4.2989601\MP4SDQ=-154.3057717\CCSD=-154.3062361\CCSD(T)=-154.3346758\R
 Normal termination of Gaussian 09 at Tue Oct 10 12:04:28 2017.
