 Gaussian 09, Revision E.01,
 Gaussian 09:  ES64L-G09RevE.01 30-Nov-2015

 -----------------------------------
 #p ccsd(t,maxcyc=200)/6-311++G(d,p)
 -----------------------------------

 -------------
 ccsd(t) iener
 -------------
 Symbolic Z-matrix:
 Charge =  1 Multiplicity = 2

                         Standard orientation:
 ---------------------------------------------------------------------
 Center     Atomic      Atomic             Coordinates (Angstroms)
 Number     Number       Type             X           Y           Z
 ---------------------------------------------------------------------
      1          8           0        2.314163    1.076947    0.000000
      2          6           0       -1.758940   -1.507715    0.000000
      3          6           0       -1.259549   -0.107848    0.000000
      4          6           0        0.000000    0.276758    0.000000
      5          6           0        1.231944    0.707938    0.000000
      6          1           0       -2.408945   -1.635661    0.875735
      7          1           0       -2.408945   -1.635661   -0.875735
      8          1           0       -0.966158   -2.251360    0.000000
      9          1           0       -2.009985    0.692309    0.000000
 ---------------------------------------------------------------------

 SCF Done:  E(UHF) =  -228.368808292     A.U. after   24 cycles
 E2 =    -0.6930981731D+00 EUMP2 =    -0.22906190646541D+03
 CCSD(T)
 CCSD(T)= -0.22913477863D+03

 The electronic state is 2-A'.
 Alpha  occ. eigenvalues --  -20.93136 -11.64929 -11.54826 -11.54647 -11.44139
 Alpha  occ. eigenvalues --   -1.77848  -1.38553  -1.25840  -1.12448  -1.01542
 Alpha  occ. eigenvalues --   -0.95361  -0.92871  -0.91787  -0.82760  -0.77696
 Alpha  occ. eigenvalues --   -0.75209  -0.68208  -0.65990
 Alpha virt. eigenvalues --   -0.17143  -0.09935  -0.07263  -0.06519  -0.05334
 Alpha virt. eigenvalues --   -0.03753  -0.03093  -0.02399  -0.02077  -0.01402
 Alpha virt. eigenvalues --   -0.00384   0.01361   0.01945   0.03221   0.04374

  Beta  occ. eigenvalues --  -20.90451 -11.65815 -11.55629 -11.52514 -11.43909
  Beta  occ. eigenvalues --   -1.72544  -1.34489  -1.22875  -1.12373  -0.98076
  Beta  occ. eigenvalues --   -0.92227  -0.86606  -0.82868  -0.80092  -0.78629
  Beta  occ. eigenvalues --   -0.74812  -0.63870
  Beta virt. eigenvalues --   -0.21460  -0.19050  -0.09723  -0.06865  -0.06379
  Beta virt. eigenvalues --   -0.05268  -0.03078  -0.02264  -0.02046  -0.01457
  Beta virt. eigenvalues --   -0.00289   0.01159   0.01802   0.03217   0.03429

 Mulliken charges and spin densities:
               1          2
     1  O   -0.028562   0.577933
     2  C   -0.762974   0.105177
     3  C   -0.058729  -0.425144
     4  C    2.000072   1.133648
     5  C   -1.103355  -0.424848
     6  H    0.227228  -0.016382
     7  H    0.227228  -0.016382
     8  H    0.194038  -0.005060
     9  H    0.305054   0.071058
 Sum of Mulliken charges =   1.00000   1.00000

 Dipole moment (field-independent basis, Debye):
    X=             -2.5425    Y=             -0.2445    Z=              0.0000  Tot=              2.5542
 Quadrupole moment (field-independent basis, Debye-Ang):
   XX=            -14.7174   YY=            -21.2871   ZZ=            -26.5905
   XY=              4.2402   XZ=             -0.0000   YZ=             -0.0000

 0918795\MP4SDQ=-229.0989937\CCSD=-229.1012532\CCSD(T)=-229.1347786\S2=
 Normal termination of Gaussian 09 at Tue Oct 10 00:41:10 2017.
