 Gaussian 09, Revision E.01,
 Gaussian 09:  ES64L-G09RevE.01 30-Nov-2015

 -----------------------------------
 #p ccsd(t,maxcyc=200)/6-311++G(d,p)
 -----------------------------------

 -------------
 ccsd(t) iener
 -------------
 Symbolic Z-matrix:
 Charge =  1 Multiplicity = 2

                         Standard orientation:
 ---------------------------------------------------------------------
 Center     Atomic      Atomic             Coordinates (Angstroms)
 Number     Number       Type             X           Y           Z
 ---------------------------------------------------------------------
      1          6           0        1.431974    0.213664    0.241176
      2          6           0       -2.178113   -0.394537    0.089393
      3          8           0        1.649777   -0.878876   -0.175005
      4          6           0       -1.042967    0.239496   -0.060769
      5          6           0        0.091577    0.881179   -0.139615
      6          1           0        2.137752    0.814047    0.834929
      7          1           0       -2.784682   -0.659925   -0.777070
      8          1           0       -2.552400   -0.662264    1.077520
      9          1           0        0.186291    1.900342   -0.516451
 ---------------------------------------------------------------------

 SCF Done:  E(UHF) =  -228.325946093     A.U. after   37 cycles
 E2 =    -0.6782571903D+00 EUMP2 =    -0.22900420328379D+03
 CCSD(T)
 CCSD(T)= -0.22909467554D+03

 The electronic state is 2-A.
 Alpha  occ. eigenvalues --  -20.79468 -11.56472 -11.55086 -11.53868 -11.53288
 Alpha  occ. eigenvalues --   -1.64635  -1.38103  -1.27174  -1.07272  -0.96447
 Alpha  occ. eigenvalues --   -0.91999  -0.90624  -0.88247  -0.85585  -0.78361
 Alpha  occ. eigenvalues --   -0.70307  -0.67617  -0.64198
 Alpha virt. eigenvalues --   -0.15871  -0.10726  -0.09183  -0.07260  -0.06652
 Alpha virt. eigenvalues --   -0.05387  -0.04703  -0.02830  -0.02052  -0.00810
 Alpha virt. eigenvalues --   -0.00218   0.01889   0.02318   0.02656   0.03355

  Beta  occ. eigenvalues --  -20.77823 -11.56914 -11.55876 -11.52670 -11.52223
  Beta  occ. eigenvalues --   -1.61018  -1.34537  -1.22645  -1.07162  -0.95148
  Beta  occ. eigenvalues --   -0.90535  -0.89405  -0.86028  -0.84019  -0.72244
  Beta  occ. eigenvalues --   -0.67054  -0.63322
  Beta virt. eigenvalues --   -0.25606  -0.10839  -0.10008  -0.08106  -0.06801
  Beta virt. eigenvalues --   -0.06408  -0.04970  -0.04390  -0.02312  -0.00668
  Beta virt. eigenvalues --   -0.00145   0.00391   0.02345   0.02772   0.03006

 Mulliken charges and spin densities:
               1          2
     1  C   -0.078510  -0.397639
     2  C   -0.444553   0.641605
     3  O   -0.128235   0.390335
     4  C    0.949426  -0.168151
     5  C   -0.317514   0.603719
     6  H    0.214779   0.019045
     7  H    0.241016  -0.028675
     8  H    0.248815  -0.028113
     9  H    0.314777  -0.032126
 Sum of Mulliken charges =   1.00000   1.00000

 Dipole moment (field-independent basis, Debye):
    X=             -4.5680    Y=              2.9187    Z=              0.8455  Tot=              5.4864
 Quadrupole moment (field-independent basis, Debye-Ang):
   XX=             -9.7018   YY=            -23.9183   ZZ=            -24.3822
   XY=              7.9755   XZ=              1.6975   YZ=             -1.4622

 229.0594721\CCSD(T)=-229.0946755\S2=0.955391\S2-1=0.894167\S2A=0.77642
 Normal termination of Gaussian 09 at Mon Oct  9 18:56:43 2017.
