 Gaussian 09, Revision E.01,
 Gaussian 09:  ES64L-G09RevE.01 30-Nov-2015

 -----------------------------------
 #p ccsd(t,maxcyc=200)/6-311++G(d,p)
 -----------------------------------

 -------------
 ccsd(t) iener
 -------------
 Symbolic Z-matrix:
 Charge =  1 Multiplicity = 4

                         Standard orientation:
 ---------------------------------------------------------------------
 Center     Atomic      Atomic             Coordinates (Angstroms)
 Number     Number       Type             X           Y           Z
 ---------------------------------------------------------------------
      1          6           0        0.513340    1.700348    0.000000
      2          1           0        0.742089    2.222729    0.934888
      3          1           0        0.742089    2.222729   -0.934888
      4          6           0       -0.000000    0.535792    0.000000
      5          6           0       -0.584287   -0.753056   -0.000000
      6          1           0       -1.293094   -0.766055   -0.860150
      7          1           0       -1.293094   -0.766055    0.860150
      8          6           0        0.254615   -1.968643    0.000000
 ---------------------------------------------------------------------

 SCF Done:  E(UHF) =  -153.312000359     A.U. after   36 cycles
 E2 =    -0.4401601142D+00 EUMP2 =    -0.15375216047333D+03
 CCSD(T)
 CCSD(T)= -0.15381785657D+03

 The electronic state is 4-A".
 Alpha  occ. eigenvalues --  -11.60258 -11.51619 -11.51510 -11.49146  -1.37804
 Alpha  occ. eigenvalues --   -1.28837  -1.10768  -0.96669  -0.89492  -0.88009
 Alpha  occ. eigenvalues --   -0.83011  -0.78173  -0.66576  -0.61525  -0.60068
 Alpha virt. eigenvalues --   -0.19427  -0.10641  -0.09526  -0.07233  -0.06731
 Alpha virt. eigenvalues --   -0.04086  -0.04009  -0.02705  -0.00872   0.00217
 Alpha virt. eigenvalues --    0.01478   0.01667   0.03080   0.03652   0.03980

  Beta  occ. eigenvalues --  -11.60014 -11.51541 -11.51503 -11.41094  -1.36439
  Beta  occ. eigenvalues --   -1.25716  -0.98745  -0.90431  -0.87362  -0.86263
  Beta  occ. eigenvalues --   -0.80480  -0.67113
  Beta virt. eigenvalues --   -0.18841  -0.14167  -0.10713  -0.08387  -0.07222
  Beta virt. eigenvalues --   -0.06236  -0.05331  -0.04613  -0.03946  -0.02807
  Beta virt. eigenvalues --   -0.01643   0.00384   0.01941   0.03555   0.03740

 Mulliken charges and spin densities:
               1          2
     1  C   -0.681078  -0.042305
     2  H    0.258418   0.000401
     3  H    0.258418   0.000401
     4  C    0.805208   0.119758
     5  C   -0.305244  -0.062860
     6  H    0.246697   0.052692
     7  H    0.246697   0.052692
     8  C    0.170885   2.879221
 Sum of Mulliken charges =   1.00000   3.00000

 Dipole moment (field-independent basis, Debye):
    X=             -0.4154    Y=              3.0292    Z=              0.0000  Tot=              3.0576
 Quadrupole moment (field-independent basis, Debye-Ang):
   XX=            -19.9576   YY=            -10.3393   ZZ=            -18.9259
   XY=              5.0278   XZ=              0.0000   YZ=              0.0000

 51\PMP3-0=-153.7883858\MP4SDQ=-153.7957486\CCSD=-153.7978224\CCSD(T)=-
 Normal termination of Gaussian 09 at Tue Oct 10 15:33:47 2017.
