 Gaussian 09, Revision E.01,
 Gaussian 09:  ES64L-G09RevE.01 30-Nov-2015

 -----------------------------------
 #p ccsd(t,maxcyc=200)/6-311++G(d,p)
 -----------------------------------

 -------------
 ccsd(t) iener
 -------------
 Symbolic Z-matrix:
 Charge =  1 Multiplicity = 2

                         Standard orientation:
 ---------------------------------------------------------------------
 Center     Atomic      Atomic             Coordinates (Angstroms)
 Number     Number       Type             X           Y           Z
 ---------------------------------------------------------------------
      1          6           0        1.171419    0.117342    0.000045
      2          6           0       -1.829292   -0.708014    0.000081
      3          8           0        1.748811   -0.847089    0.000012
      4          6           0       -1.161868    0.399563   -0.000214
      5          6           0        0.115189    1.132585    0.000030
      6          1           0        0.259056    1.761154   -0.890291
      7          1           0       -1.361783   -1.697156   -0.000498
      8          1           0       -2.919198   -0.697140    0.000536
      9          1           0        0.258745    1.760992    0.890504
 ---------------------------------------------------------------------

 SCF Done:  E(UHF) =  -228.344373747     A.U. after   28 cycles
 E2 =    -0.6957582910D+00 EUMP2 =    -0.22904013203822D+03
 CCSD(T)
 CCSD(T)= -0.22911209725D+03

 The electronic state is 2-A.
 Alpha  occ. eigenvalues --  -20.95754 -11.70147 -11.55313 -11.47911 -11.42371
 Alpha  occ. eigenvalues --   -1.80666  -1.37614  -1.22685  -1.06766  -1.00132
 Alpha  occ. eigenvalues --   -0.95757  -0.93968  -0.90546  -0.85134  -0.83147
 Alpha  occ. eigenvalues --   -0.79593  -0.60818  -0.58483
 Alpha virt. eigenvalues --   -0.14938  -0.13454  -0.10469  -0.07425  -0.06376
 Alpha virt. eigenvalues --   -0.05157  -0.03758  -0.03194  -0.03019  -0.01317
 Alpha virt. eigenvalues --   -0.00935   0.01327   0.01829   0.02286   0.02937

  Beta  occ. eigenvalues --  -20.95629 -11.69774 -11.55575 -11.44434 -11.43641
  Beta  occ. eigenvalues --   -1.80328  -1.35105  -1.21282  -1.05982  -0.96483
  Beta  occ. eigenvalues --   -0.94746  -0.93637  -0.88377  -0.84129  -0.81812
  Beta  occ. eigenvalues --   -0.76593  -0.58977
  Beta virt. eigenvalues --   -0.16224  -0.12889  -0.10456  -0.07818  -0.07129
  Beta virt. eigenvalues --   -0.06331  -0.04232  -0.03022  -0.02768  -0.02511
  Beta virt. eigenvalues --   -0.00932   0.00005   0.00650   0.01663   0.02531

 Mulliken charges and spin densities:
               1          2
     1  C    0.595382   0.078223
     2  C   -0.545180  -0.688058
     3  O   -0.022885   0.028694
     4  C    0.614416   1.416546
     5  C   -0.594604  -0.114296
     6  H    0.280561   0.033309
     7  H    0.177753   0.119613
     8  H    0.214029   0.092618
     9  H    0.280528   0.033349
 Sum of Mulliken charges =   1.00000   1.00000

 Dipole moment (field-independent basis, Debye):
    X=              1.5808    Y=              2.2344    Z=              0.0005  Tot=              2.7371
 Quadrupole moment (field-independent basis, Debye-Ang):
   XX=            -18.3592   YY=            -20.1303   ZZ=            -26.6057
   XY=              4.2614   XZ=             -0.0015   YZ=              0.0010

 CSD=-229.0792114\CCSD(T)=-229.1120973\S2=0.928575\S2-1=0.88402\S2A=0.7
 Normal termination of Gaussian 09 at Mon Oct  9 18:38:29 2017.
