 Gaussian 09, Revision E.01,
 Gaussian 09:  ES64L-G09RevE.01 30-Nov-2015

 -----------------------------------
 #p ccsd(t,maxcyc=200)/6-311++G(d,p)
 -----------------------------------

 -------------
 ccsd(t) iener
 -------------
 Symbolic Z-matrix:
 Charge =  1 Multiplicity = 4

                         Standard orientation:
 ---------------------------------------------------------------------
 Center     Atomic      Atomic             Coordinates (Angstroms)
 Number     Number       Type             X           Y           Z
 ---------------------------------------------------------------------
      1          6           0       -0.000000    0.000000   -0.910956
      2          1           0       -0.882880    0.000000   -1.584954
      3          1           0        0.882880   -0.000000   -1.584954
      4          6           0        0.000000   -0.000000    1.111604
      5          6           0        0.000000    1.076949    0.136802
      6          1           0        0.000000    2.156459    0.162202
      7          6           0       -0.000000   -1.076949    0.136802
      8          1           0       -0.000000   -2.156459    0.162202
 ---------------------------------------------------------------------

 SCF Done:  E(UHF) =  -153.351893029     A.U. after   16 cycles
 E2 =    -0.4603841616D+00 EUMP2 =    -0.15381227719085D+03
 CCSD(T)
 CCSD(T)= -0.15387983414D+03

 The electronic state is 4-B2.
 Alpha  occ. eigenvalues --  -11.61394 -11.53244 -11.53239 -11.48963  -1.48103
 Alpha  occ. eigenvalues --   -1.18323  -1.16007  -0.97486  -0.91087  -0.88342
 Alpha  occ. eigenvalues --   -0.83720  -0.78751  -0.70328  -0.68211  -0.59006
 Alpha virt. eigenvalues --   -0.15097  -0.09244  -0.07497  -0.06849  -0.06646
 Alpha virt. eigenvalues --   -0.04194  -0.02087  -0.01790  -0.01180  -0.00259
 Alpha virt. eigenvalues --    0.00720   0.01748   0.04340   0.04664   0.05049

  Beta  occ. eigenvalues --  -11.58096 -11.51197 -11.51196 -11.49197  -1.39273
  Beta  occ. eigenvalues --   -1.09522  -1.09394  -0.94016  -0.80043  -0.79623
  Beta  occ. eigenvalues --   -0.78646  -0.76777
  Beta virt. eigenvalues --   -0.25523  -0.16491  -0.12217  -0.08904  -0.07214
  Beta virt. eigenvalues --   -0.06241  -0.05855  -0.02893  -0.01633  -0.01474
  Beta virt. eigenvalues --   -0.00677   0.00440   0.01354   0.02686   0.02762

 Mulliken charges and spin densities:
               1          2
     1  C   -0.664342  -0.454897
     2  H    0.260229   0.094017
     3  H    0.260229   0.094017
     4  C    0.409708   0.908846
     5  C    0.060371   1.225201
     6  H    0.306718  -0.046193
     7  C    0.060371   1.225201
     8  H    0.306718  -0.046193
 Sum of Mulliken charges =   1.00000   3.00000

 Dipole moment (field-independent basis, Debye):
    X=              0.0000    Y=              0.0000    Z=             -0.1301  Tot=              0.1301
 Quadrupole moment (field-independent basis, Debye-Ang):
   XX=            -21.1652   YY=            -13.4349   ZZ=            -17.4603
   XY=              0.0000   XZ=             -0.0000   YZ=              0.0000

 \PMP3-0=-153.8518469\MP4SDQ=-153.8567655\CCSD=-153.8586145\CCSD(T)=-15
 Normal termination of Gaussian 09 at Tue Oct 10 15:06:40 2017.
