 Gaussian 09, Revision E.01,
 Gaussian 09:  ES64L-G09RevE.01 30-Nov-2015

 -----------------------------------
 #p ccsd(t,maxcyc=200)/6-311++G(d,p)
 -----------------------------------

 -------------
 ccsd(t) iener
 -------------
 Symbolic Z-matrix:
 Charge =  1 Multiplicity = 4

                         Standard orientation:
 ---------------------------------------------------------------------
 Center     Atomic      Atomic             Coordinates (Angstroms)
 Number     Number       Type             X           Y           Z
 ---------------------------------------------------------------------
      1          6           0       -0.829009    0.000000   -0.254091
      2          6           0        0.000000   -1.176168    0.135761
      3          6           0        0.829009   -0.000000   -0.254091
      4          6           0        0.000000    1.176168    0.135761
      5          1           0        0.000000   -2.061494   -0.501804
      6          1           0        0.000000   -1.412450    1.211788
      7          1           0        0.000000    2.061494   -0.501804
      8          1           0        0.000000    1.412450    1.211788
 ---------------------------------------------------------------------

 SCF Done:  E(UHF) =  -153.328107570     A.U. after   15 cycles
 E2 =    -0.4583259231D+00 EUMP2 =    -0.15378643349355D+03
 CCSD(T)
 CCSD(T)= -0.15385316097D+03

 The electronic state is 4-B1.
 Alpha  occ. eigenvalues --  -11.59730 -11.59688 -11.52009 -11.52004  -1.51800
 Alpha  occ. eigenvalues --   -1.21469  -1.08799  -1.02744  -0.94461  -0.85534
 Alpha  occ. eigenvalues --   -0.80715  -0.79041  -0.77142  -0.66378  -0.65485
 Alpha virt. eigenvalues --   -0.13358  -0.09145  -0.07229  -0.07194  -0.06687
 Alpha virt. eigenvalues --   -0.03606  -0.03058  -0.01870  -0.01425  -0.00320
 Alpha virt. eigenvalues --    0.02231   0.02526   0.02797   0.04561   0.04815

  Beta  occ. eigenvalues --  -11.55152 -11.55137 -11.52524 -11.52517  -1.44506
  Beta  occ. eigenvalues --   -1.21189  -0.98276  -0.88930  -0.86458  -0.82104
  Beta  occ. eigenvalues --   -0.79121  -0.75212
  Beta virt. eigenvalues --   -0.22565  -0.17749  -0.10398  -0.08363  -0.07079
  Beta virt. eigenvalues --   -0.06882  -0.06383  -0.03581  -0.02447  -0.02271
  Beta virt. eigenvalues --   -0.01603  -0.00081   0.02631   0.02826   0.03573

 Mulliken charges and spin densities:
               1          2
     1  C    0.555521   1.564703
     2  C   -0.563394  -0.243401
     3  C    0.555521   1.564703
     4  C   -0.563394  -0.243401
     5  H    0.253377   0.053269
     6  H    0.254495   0.125429
     7  H    0.253377   0.053269
     8  H    0.254495   0.125429
 Sum of Mulliken charges =   1.00000   3.00000

 Dipole moment (field-independent basis, Debye):
    X=              0.0000    Y=              0.0000    Z=              0.5182  Tot=              0.5182
 Quadrupole moment (field-independent basis, Debye-Ang):
   XX=            -20.4324   YY=            -12.6860   ZZ=            -19.6480
   XY=              0.0000   XZ=             -0.0000   YZ=              0.0000

 -0=-153.8258396\MP4SDQ=-153.8288353\CCSD=-153.8317931\CCSD(T)=-153.853
 Normal termination of Gaussian 09 at Tue Oct 10 15:13:40 2017.
