 Gaussian 09, Revision E.01,
 Gaussian 09:  ES64L-G09RevE.01 30-Nov-2015

 -----------------------------------
 #p ccsd(t,maxcyc=200)/6-311++G(d,p)
 -----------------------------------

 -------------
 ccsd(t) iener
 -------------
 Symbolic Z-matrix:
 Charge =  1 Multiplicity = 4

                         Standard orientation:
 ---------------------------------------------------------------------
 Center     Atomic      Atomic             Coordinates (Angstroms)
 Number     Number       Type             X           Y           Z
 ---------------------------------------------------------------------
      1          6           0        1.726428   -0.178419   -0.214714
      2          1           0        2.118660   -1.188725   -0.224627
      3          6           0        0.586132    0.498635    0.066915
      4          1           0        0.581559    1.585753   -0.016210
      5          6           0       -0.657398   -0.178443    0.427331
      6          1           0       -1.268548    0.420212    1.157272
      7          1           0       -0.577025   -1.211002    0.790971
      8          6           0       -1.797603   -0.076147   -0.564099
 ---------------------------------------------------------------------

 SCF Done:  E(UHF) =  -153.267460611     A.U. after   36 cycles
 E2 =    -0.4439543981D+00 EUMP2 =    -0.15371141500896D+03
 CCSD(T)
 CCSD(T)= -0.15379095910D+03

 The electronic state is 4-A.
 Alpha  occ. eigenvalues --  -11.63139 -11.53493 -11.50371 -11.50131  -1.37625
 Alpha  occ. eigenvalues --   -1.26938  -1.06893  -0.99692  -0.88681  -0.87946
 Alpha  occ. eigenvalues --   -0.79823  -0.79531  -0.69183  -0.64351  -0.63385
 Alpha virt. eigenvalues --   -0.19407  -0.10111  -0.08709  -0.07506  -0.06319
 Alpha virt. eigenvalues --   -0.04286  -0.03936  -0.02070  -0.01389  -0.00870
 Alpha virt. eigenvalues --    0.00296   0.02454   0.02807   0.03167   0.04361

  Beta  occ. eigenvalues --  -11.59068 -11.53010 -11.50855 -11.46284  -1.33443
  Beta  occ. eigenvalues --   -1.17400  -0.97123  -0.91936  -0.85725  -0.83847
  Beta  occ. eigenvalues --   -0.77739  -0.58295
  Beta virt. eigenvalues --   -0.28005  -0.15798  -0.12878  -0.10086  -0.08397
  Beta virt. eigenvalues --   -0.07169  -0.06002  -0.04118  -0.03777  -0.03232
  Beta virt. eigenvalues --   -0.01150   0.00337   0.01190   0.02633   0.03051

 Mulliken charges and spin densities:
               1          2
     1  C   -0.156843   1.726032
     2  H    0.239051  -0.061886
     3  C    0.195595  -0.359427
     4  H    0.279165   0.059341
     5  C   -0.436122   0.098515
     6  H    0.240175   0.034878
     7  H    0.288254   0.032152
     8  C    0.350725   1.470396
 Sum of Mulliken charges =   1.00000   3.00000

 Dipole moment (field-independent basis, Debye):
    X=             -1.5061    Y=             -0.4612    Z=              0.5771  Tot=              1.6775
 Quadrupole moment (field-independent basis, Debye-Ang):
   XX=            -12.6109   YY=            -18.1234   ZZ=            -21.2374
   XY=             -2.2273   XZ=             -1.2082   YZ=              0.4640

 -0=-153.7583666\MP4SDQ=-153.7615309\CCSD=-153.7682569\CCSD(T)=-153.790
 Normal termination of Gaussian 09 at Tue Oct 10 14:49:42 2017.
