 Gaussian 09, Revision E.01,
 Gaussian 09:  ES64L-G09RevE.01 30-Nov-2015

 -----------------------------------
 #p ccsd(t,maxcyc=200)/6-311++G(d,p)
 -----------------------------------

 -------------
 ccsd(t) iener
 -------------
 Symbolic Z-matrix:
 Charge =  1 Multiplicity = 4

                         Standard orientation:
 ---------------------------------------------------------------------
 Center     Atomic      Atomic             Coordinates (Angstroms)
 Number     Number       Type             X           Y           Z
 ---------------------------------------------------------------------
      1          6           0       -0.012203    0.021207   -0.080369
      2          6           0        1.471882   -0.098905    0.006925
      3          1           0        1.786057   -0.697230   -0.858400
      4          1           0        1.946188    0.880533   -0.030659
      5          1           0        1.737188   -0.623767    0.927370
      6          6           0       -0.897331    1.062035    0.012077
      7          6           0       -1.144282   -0.720164    0.126417
      8          1           0       -1.977831   -1.144577   -0.428612
 ---------------------------------------------------------------------

 SCF Done:  E(UHF) =  -153.306075350     A.U. after   22 cycles
 E2 =    -0.4408597546D+00 EUMP2 =    -0.15374693510445D+03
 CCSD(T)
 CCSD(T)= -0.15382482520D+03

 The electronic state is 4-A.
 Alpha  occ. eigenvalues --  -11.61476 -11.58982 -11.55554 -11.45613  -1.46485
 Alpha  occ. eigenvalues --   -1.21983  -1.14765  -0.99131  -0.87728  -0.84584
 Alpha  occ. eigenvalues --   -0.83153  -0.76623  -0.74888  -0.69268  -0.65356
 Alpha virt. eigenvalues --   -0.12703  -0.10020  -0.09208  -0.06679  -0.05240
 Alpha virt. eigenvalues --   -0.04390  -0.03052  -0.02802  -0.01983  -0.01107
 Alpha virt. eigenvalues --   -0.00443   0.01583   0.03652   0.03880   0.04696

  Beta  occ. eigenvalues --  -11.56887 -11.55793 -11.54665 -11.45215  -1.40692
  Beta  occ. eigenvalues --   -1.19135  -1.00633  -0.90211  -0.84732  -0.80984
  Beta  occ. eigenvalues --   -0.75769  -0.67462
  Beta virt. eigenvalues --   -0.22556  -0.20202  -0.12819  -0.08514  -0.07552
  Beta virt. eigenvalues --   -0.06609  -0.05390  -0.03869  -0.02461  -0.02354
  Beta virt. eigenvalues --   -0.00815   0.00521   0.01237   0.01919   0.02456

 Mulliken charges and spin densities:
               1          2
     1  C    0.616419  -0.666469
     2  C   -0.792315   0.214018
     3  H    0.209455  -0.015256
     4  H    0.215183   0.003241
     5  H    0.219626  -0.026249
     6  C    0.278927   2.191273
     7  C   -0.008552   1.335838
     8  H    0.261258  -0.036396
 Sum of Mulliken charges =   1.00000   3.00000

 Dipole moment (field-independent basis, Debye):
    X=             -1.6712    Y=             -0.3893    Z=             -0.5214  Tot=              1.7934
 Quadrupole moment (field-independent basis, Debye-Ang):
   XX=            -11.1435   YY=            -17.0684   ZZ=            -22.2346
   XY=              1.1277   XZ=              1.1306   YZ=              0.6475

 P3-0=-153.7930067\MP4SDQ=-153.7935198\CCSD=-153.8025678\CCSD(T)=-153.8
 Normal termination of Gaussian 09 at Tue Oct 10 15:27:37 2017.
