 Gaussian 09, Revision E.01,
 Gaussian 09:  ES64L-G09RevE.01 30-Nov-2015

 -----------------------------------
 #p ccsd(t,maxcyc=200)/6-311++G(d,p)
 -----------------------------------

 -------------
 ccsd(t) iener
 -------------
 Symbolic Z-matrix:
 Charge =  1 Multiplicity = 2

                         Standard orientation:
 ---------------------------------------------------------------------
 Center     Atomic      Atomic             Coordinates (Angstroms)
 Number     Number       Type             X           Y           Z
 ---------------------------------------------------------------------
      1          6           0       -1.621685   -0.270876   -0.000214
      2          1           0       -2.209805    0.071441    0.868488
      3          1           0       -1.511081   -1.351799   -0.001166
      4          1           0       -2.211311    0.073308   -0.867021
      5          6           0       -0.357610    0.470878    0.000047
      6          1           0       -0.393558    1.566538   -0.000424
      7          6           0        0.870076   -0.082791    0.000566
      8          6           0        2.163512   -0.177126   -0.000379
 ---------------------------------------------------------------------

 SCF Done:  E(UHF) =  -153.364415040     A.U. after   32 cycles
 E2 =    -0.4693573618D+00 EUMP2 =    -0.15383377240194D+03
 CCSD(T)
 CCSD(T)= -0.15391448795D+03

 The electronic state is 2-A.
 Alpha  occ. eigenvalues --  -11.59962 -11.59284 -11.54583 -11.46602  -1.40136
 Alpha  occ. eigenvalues --   -1.28984  -1.14277  -0.97068  -0.86078  -0.79976
 Alpha  occ. eigenvalues --   -0.78165  -0.76030  -0.70600  -0.69545
 Alpha virt. eigenvalues --   -0.22772  -0.13347  -0.08297  -0.07201  -0.06054
 Alpha virt. eigenvalues --   -0.06036  -0.03367  -0.02448  -0.02008  -0.01877
 Alpha virt. eigenvalues --   -0.01136   0.01169   0.03078   0.03185   0.03792

  Beta  occ. eigenvalues --  -11.59807 -11.58864 -11.53083 -11.46444  -1.36941
  Beta  occ. eigenvalues --   -1.23947  -1.13212  -0.95772  -0.83920  -0.80869
  Beta  occ. eigenvalues --   -0.77647  -0.71679  -0.67455
  Beta virt. eigenvalues --   -0.24393  -0.23036  -0.10344  -0.07047  -0.05975
  Beta virt. eigenvalues --   -0.05891  -0.03619  -0.02849  -0.02272  -0.01672
  Beta virt. eigenvalues --   -0.01545  -0.00508   0.01389   0.02964   0.03618

 Mulliken charges and spin densities:
               1          2
     1  C   -0.694671   0.082329
     2  H    0.239727  -0.013251
     3  H    0.213469   0.000882
     4  H    0.239503  -0.013169
     5  C    0.074017  -0.338619
     6  H    0.321081   0.042016
     7  C    0.145432   0.538037
     8  C    0.461441   0.701775
 Sum of Mulliken charges =   1.00000   1.00000

 Dipole moment (field-independent basis, Debye):
    X=             -1.4423    Y=              0.8200    Z=              0.0005  Tot=              1.6591
 Quadrupole moment (field-independent basis, Debye-Ang):
   XX=            -13.8213   YY=            -18.2320   ZZ=            -21.8022
   XY=             -1.4016   XZ=              0.0001   YZ=             -0.0008

 -0=-153.8788967\MP4SDQ=-153.8817593\CCSD=-153.8887885\CCSD(T)=-153.914
 Normal termination of Gaussian 09 at Tue Oct 10 14:22:48 2017.
