 Gaussian 09, Revision E.01,
 Gaussian 09:  ES64L-G09RevE.01 30-Nov-2015

 -----------------------------------
 #p ccsd(t,maxcyc=200)/6-311++G(d,p)
 -----------------------------------

 -------------
 ccsd(t) iener
 -------------
 Symbolic Z-matrix:
 Charge =  0 Multiplicity = 3

                         Standard orientation:
 ---------------------------------------------------------------------
 Center     Atomic      Atomic             Coordinates (Angstroms)
 Number     Number       Type             X           Y           Z
 ---------------------------------------------------------------------
      1          6           0       -0.199123   -0.114165    1.121488
      2          1           0       -0.973555   -0.558204    1.738801
      3          6           0        0.609290   -0.587476   -0.000000
      4          1           0        1.680492   -0.757803   -0.000000
      5          6           0       -0.199123    0.822656    0.000000
      6          1           0        0.195094    1.833107    0.000000
      7          6           0       -0.199123   -0.114165   -1.121488
      8          1           0       -0.973555   -0.558204   -1.738801
 ---------------------------------------------------------------------

 SCF Done:  E(UHF) =  -153.623401999     A.U. after   19 cycles
 E2 =    -0.5217965636D+00 EUMP2 =    -0.15414519856229D+03
 CCSD(T)
 CCSD(T)= -0.15420348307D+03

 The electronic state is 3-A".
 Alpha  occ. eigenvalues --  -11.26633 -11.26563 -11.26381 -11.26349  -1.23913
 Alpha  occ. eigenvalues --   -0.93977  -0.82512  -0.77692  -0.69149  -0.61958
 Alpha  occ. eigenvalues --   -0.50325  -0.49641  -0.49434  -0.35688  -0.29856
 Alpha virt. eigenvalues --    0.04117   0.05639   0.05862   0.06441   0.11280
 Alpha virt. eigenvalues --    0.12245   0.13185   0.14072   0.14153   0.15394
 Alpha virt. eigenvalues --    0.17992   0.18093   0.18284   0.19180   0.19223

  Beta  occ. eigenvalues --  -11.26786 -11.26746 -11.23819 -11.23817  -1.20024
  Beta  occ. eigenvalues --   -0.84558  -0.81856  -0.73293  -0.65816  -0.59177
  Beta  occ. eigenvalues --   -0.47626  -0.47552  -0.38583
  Beta virt. eigenvalues --    0.04219   0.05630   0.05896   0.06061   0.08811
  Beta virt. eigenvalues --    0.09811   0.11457   0.14080   0.14199   0.16091
  Beta virt. eigenvalues --    0.16277   0.17069   0.18377   0.18391   0.19377

 Mulliken charges and spin densities:
               1          2
     1  C   -0.292003   1.113955
     2  H    0.150862   0.006854
     3  C   -0.029996  -0.139333
     4  H    0.171138   0.018523
     5  C   -0.030006  -0.139318
     6  H    0.171146   0.018512
     7  C   -0.292003   1.113955
     8  H    0.150862   0.006854
 Sum of Mulliken charges =  -0.00000   2.00000

 Dipole moment (field-independent basis, Debye):
    X=              0.0574    Y=              0.0328    Z=              0.0000  Tot=              0.0661
 Quadrupole moment (field-independent basis, Debye-Ang):
   XX=            -23.4457   YY=            -24.1170   ZZ=            -25.8815
   XY=              0.5739   XZ=             -0.0000   YZ=             -0.0000

 154.1734527\MP4SDQ=-154.1771546\CCSD=-154.178419\CCSD(T)=-154.2034831\
 Normal termination of Gaussian 09 at Tue Oct 10 12:34:42 2017.
