 Gaussian 09, Revision E.01,
 Gaussian 09:  ES64L-G09RevE.01 30-Nov-2015

 -----------------------------------
 #p ccsd(t,maxcyc=200)/6-311++G(d,p)
 -----------------------------------

 -------------
 ccsd(t) iener
 -------------
 Symbolic Z-matrix:
 Charge =  1 Multiplicity = 4

                         Standard orientation:
 ---------------------------------------------------------------------
 Center     Atomic      Atomic             Coordinates (Angstroms)
 Number     Number       Type             X           Y           Z
 ---------------------------------------------------------------------
      1          6           0       -1.884534   -0.003113    0.000788
      2          1           0       -2.307762   -0.481152   -0.893559
      3          1           0       -2.201977    1.060761   -0.039973
      4          1           0       -2.310295   -0.422430    0.921663
      5          6           0       -0.466195   -0.057175    0.001337
      6          6           0        0.819592   -0.002865    0.000252
      7          6           0        2.154290    0.110555    0.000369
      8          1           0        3.081119   -0.441591   -0.004607
 ---------------------------------------------------------------------

 SCF Done:  E(UHF) =  -153.364622976     A.U. after   27 cycles
 E2 =    -0.4342262618D+00 EUMP2 =    -0.15379884923832D+03
 CCSD(T)
 CCSD(T)= -0.15387503496D+03

 The electronic state is 4-A.
 Alpha  occ. eigenvalues --  -11.59017 -11.56623 -11.53967 -11.45773  -1.40376
 Alpha  occ. eigenvalues --   -1.29316  -1.18656  -0.95186  -0.88239  -0.85052
 Alpha  occ. eigenvalues --   -0.84194  -0.77039  -0.74766  -0.62714  -0.60510
 Alpha virt. eigenvalues --   -0.09815  -0.09383  -0.07013  -0.05362  -0.05295
 Alpha virt. eigenvalues --   -0.03991  -0.03482  -0.01670  -0.00605   0.00684
 Alpha virt. eigenvalues --    0.01098   0.01674   0.02735   0.04049   0.04394

  Beta  occ. eigenvalues --  -11.59753 -11.53477 -11.49561 -11.46162  -1.30439
  Beta  occ. eigenvalues --   -1.22805  -1.10346  -0.90783  -0.85612  -0.79559
  Beta  occ. eigenvalues --   -0.77120  -0.70378
  Beta virt. eigenvalues --   -0.28413  -0.13499  -0.11619  -0.09159  -0.06658
  Beta virt. eigenvalues --   -0.05111  -0.04757  -0.03259  -0.02866  -0.01775
  Beta virt. eigenvalues --    0.00477   0.01823   0.01995   0.03356   0.04278

 Mulliken charges and spin densities:
               1          2
     1  C   -0.701081  -0.169011
     2  H    0.222792   0.050113
     3  H    0.232099   0.060415
     4  H    0.221711   0.049102
     5  C    0.410402   1.480426
     6  C    1.132017  -0.228336
     7  C   -0.772449   1.859373
     8  H    0.254507  -0.102082
 Sum of Mulliken charges =   1.00000   3.00000

 Dipole moment (field-independent basis, Debye):
    X=              0.9371    Y=             -0.3714    Z=             -0.0147  Tot=              1.0081
 Quadrupole moment (field-independent basis, Debye-Ang):
   XX=             -1.7577   YY=            -20.5511   ZZ=            -22.5375
   XY=             -1.7609   XZ=              0.0071   YZ=              0.0102

 =-153.8470086\MP4SDQ=-153.8490473\CCSD=-153.85555\CCSD(T)=-153.875035\
 Normal termination of Gaussian 09 at Tue Oct 10 15:27:21 2017.
