 Gaussian 09, Revision E.01,
 Gaussian 09:  ES64L-G09RevE.01 30-Nov-2015

 -----------------------------------
 #p ccsd(t,maxcyc=200)/6-311++G(d,p)
 -----------------------------------

 -------------
 ccsd(t) iener
 -------------
 Symbolic Z-matrix:
 Charge =  1 Multiplicity = 4

                         Standard orientation:
 ---------------------------------------------------------------------
 Center     Atomic      Atomic             Coordinates (Angstroms)
 Number     Number       Type             X           Y           Z
 ---------------------------------------------------------------------
      1          6           0       -1.097713   -0.104172   -0.000047
      2          1           0       -2.183284   -0.130222   -0.000088
      3          6           0       -0.080721    0.953923    0.000074
      4          1           0       -0.129868    2.036710    0.000160
      5          6           0        1.029268   -0.055055    0.000032
      6          1           0        1.714189   -0.042612    0.871925
      7          1           0        1.714251   -0.042471   -0.871811
      8          6           0       -0.036716   -1.098264   -0.000090
 ---------------------------------------------------------------------

 SCF Done:  E(UHF) =  -153.352382432     A.U. after   21 cycles
 E2 =    -0.4528769339D+00 EUMP2 =    -0.15380525936555D+03
 CCSD(T)
 CCSD(T)= -0.15387387143D+03

 The electronic state is 4-A.
 Alpha  occ. eigenvalues --  -11.59503 -11.54764 -11.53022 -11.47780  -1.47286
 Alpha  occ. eigenvalues --   -1.17624  -1.15826  -0.98747  -0.91841  -0.87535
 Alpha  occ. eigenvalues --   -0.81789  -0.77313  -0.69746  -0.69039  -0.59296
 Alpha virt. eigenvalues --   -0.15550  -0.09417  -0.07662  -0.06967  -0.06335
 Alpha virt. eigenvalues --   -0.03300  -0.02789  -0.01764  -0.01519   0.00106
 Alpha virt. eigenvalues --    0.01013   0.01377   0.04104   0.04283   0.04867

  Beta  occ. eigenvalues --  -11.58826 -11.51060 -11.49969 -11.48046  -1.38840
  Beta  occ. eigenvalues --   -1.14706  -1.04257  -0.96681  -0.82754  -0.78525
  Beta  occ. eigenvalues --   -0.77555  -0.75114
  Beta virt. eigenvalues --   -0.26778  -0.14159  -0.09934  -0.08989  -0.07455
  Beta virt. eigenvalues --   -0.05927  -0.05772  -0.02113  -0.02106  -0.02096
  Beta virt. eigenvalues --   -0.01450   0.00109   0.01721   0.02248   0.03600

 Mulliken charges and spin densities:
               1          2
     1  C   -0.070041   0.519334
     2  H    0.312872  -0.013250
     3  C    0.262202   0.901186
     4  H    0.314291  -0.018157
     5  C   -0.825152  -0.192785
     6  H    0.254107   0.076170
     7  H    0.254107   0.076170
     8  C    0.497614   1.651331
 Sum of Mulliken charges =   1.00000   3.00000

 Dipole moment (field-independent basis, Debye):
    X=             -1.3013    Y=              0.8670    Z=              0.0000  Tot=              1.5637
 Quadrupole moment (field-independent basis, Debye-Ang):
   XX=            -12.0590   YY=            -18.4052   ZZ=            -21.2029
   XY=              0.1912   XZ=              0.0003   YZ=              0.0002

 D=-153.8534249\CCSD(T)=-153.8738714\S2=3.770664\S2-1=3.755265\S2A=3.75
 Normal termination of Gaussian 09 at Tue Oct 10 15:05:21 2017.
