 Gaussian 09, Revision E.01,
 Gaussian 09:  ES64L-G09RevE.01 30-Nov-2015

 -----------------------------------
 #p ccsd(t,maxcyc=200)/6-311++G(d,p)
 -----------------------------------

 -------------
 ccsd(t) iener
 -------------
 Symbolic Z-matrix:
 Charge =  0 Multiplicity = 1

                         Standard orientation:
 ---------------------------------------------------------------------
 Center     Atomic      Atomic             Coordinates (Angstroms)
 Number     Number       Type             X           Y           Z
 ---------------------------------------------------------------------
      1          6           0        0.578216   -0.555832    0.000000
      2          1           0       -1.203928   -1.700733    0.000000
      3          1           0        1.664973   -0.590966    0.000000
      4          6           0        0.000000    0.743782   -0.000000
      5          6           0       -0.454564    1.860361   -0.000000
      6          1           0       -0.864897    2.840457   -0.000000
      7          6           0       -0.120365   -1.697153    0.000000
      8          1           0        0.384133   -2.655703    0.000000
 ---------------------------------------------------------------------

 SCF Done:  E(RHF) =  -153.748152142     A.U. after   17 cycles
 E2 =    -0.5445185633D+00 EUMP2 =    -0.15429267070551D+03
 CCSD(T)
 CCSD(T)= -0.15434893625D+03

 The electronic state is 1-A'.
 Alpha  occ. eigenvalues --  -11.26561 -11.25119 -11.24277 -11.23319  -1.09484
 Alpha  occ. eigenvalues --   -1.00858  -0.84601  -0.72473  -0.67649  -0.62638
 Alpha  occ. eigenvalues --   -0.54390  -0.46658  -0.39822  -0.34583
 Alpha virt. eigenvalues --    0.04014   0.04793   0.06195   0.07217   0.08079
 Alpha virt. eigenvalues --    0.11864   0.12343   0.13540   0.14068   0.14257
 Alpha virt. eigenvalues --    0.17235   0.17705   0.18224   0.18526   0.19894

 Mulliken charges:
               1
     1  C    0.341913
     2  H    0.149728
     3  H    0.190266
     4  C    1.703745
     5  C   -2.212776
     6  H    0.154167
     7  C   -0.484305
     8  H    0.157262
 Sum of Mulliken charges =   0.00000

 Dipole moment (field-independent basis, Debye):
    X=              0.0368    Y=             -0.5315    Z=              0.0000  Tot=              0.5328
 Quadrupole moment (field-independent basis, Debye-Ang):
   XX=            -22.9412   YY=            -18.4773   ZZ=            -27.7066
   XY=             -1.8968   XZ=             -0.0000   YZ=             -0.0000

 D=-154.3219475\CCSD(T)=-154.3489362\RMSD=1.654e-09\PG=CS [SG(C4H4)]\\@
 Normal termination of Gaussian 09 at Tue Oct 10 12:10:17 2017.
