 Gaussian 09, Revision E.01,
 Gaussian 09:  ES64L-G09RevE.01 30-Nov-2015

 -----------------------------------
 #p ccsd(t,maxcyc=200)/6-311++G(d,p)
 -----------------------------------

 -------------
 ccsd(t) iener
 -------------
 Symbolic Z-matrix:
 Charge =  1 Multiplicity = 2

                         Standard orientation:
 ---------------------------------------------------------------------
 Center     Atomic      Atomic             Coordinates (Angstroms)
 Number     Number       Type             X           Y           Z
 ---------------------------------------------------------------------
      1          6           0        0.723894    0.827564    0.000079
      2          6           0       -1.167390   -0.371112    0.000032
      3          8           0       -0.558986    0.968889   -0.000071
      4          6           0        0.024560   -1.223337   -0.000014
      5          6           0        1.175962   -0.523053   -0.000020
      6          1           0        1.310632    1.741894    0.000020
      7          1           0       -1.792456   -0.449283    0.895269
      8          1           0       -1.792580   -0.449334   -0.895112
      9          1           0        2.204134   -0.854760   -0.000068
 ---------------------------------------------------------------------

 SCF Done:  E(UHF) =  -228.359336565     A.U. after   26 cycles
 E2 =    -0.6862806528D+00 EUMP2 =    -0.22904561721763D+03
 CCSD(T)
 CCSD(T)= -0.22911858107D+03

 The electronic state is 2-A.
 Alpha  occ. eigenvalues --  -20.87777 -11.61399 -11.54917 -11.53676 -11.48468
 Alpha  occ. eigenvalues --   -1.71963  -1.36827  -1.26386  -1.06503  -1.03755
 Alpha  occ. eigenvalues --   -0.98019  -0.91087  -0.87069  -0.82163  -0.78459
 Alpha  occ. eigenvalues --   -0.75500  -0.71085  -0.64857
 Alpha virt. eigenvalues --   -0.19025  -0.09200  -0.07055  -0.06217  -0.05833
 Alpha virt. eigenvalues --   -0.04197  -0.03156  -0.02992  -0.01880  -0.01291
 Alpha virt. eigenvalues --    0.00957   0.02107   0.02930   0.03999   0.04337

  Beta  occ. eigenvalues --  -20.88033 -11.61226 -11.53697 -11.51086 -11.49188
  Beta  occ. eigenvalues --   -1.72109  -1.33588  -1.25816  -1.05643  -1.01290
  Beta  occ. eigenvalues --   -0.94089  -0.92098  -0.86553  -0.80659  -0.77574
  Beta  occ. eigenvalues --   -0.76733  -0.64755
  Beta virt. eigenvalues --   -0.15244  -0.15211  -0.09105  -0.06887  -0.05857
  Beta virt. eigenvalues --   -0.05698  -0.03824  -0.02822  -0.01849  -0.01733
  Beta virt. eigenvalues --   -0.01544   0.00980   0.02447   0.03106   0.04167

 Mulliken charges and spin densities:
               1          2
     1  C    0.270782  -0.038869
     2  C   -0.703366  -0.002078
     3  O   -0.051368  -0.037569
     4  C    0.715870   1.254973
     5  C   -0.393089  -0.255796
     6  H    0.329013   0.007626
     7  H    0.275924   0.014223
     8  H    0.275884   0.014225
     9  H    0.280350   0.043265
 Sum of Mulliken charges =   1.00000   1.00000

 Dipole moment (field-independent basis, Debye):
    X=              1.1245    Y=             -0.4216    Z=              0.0003  Tot=              1.2010
 Quadrupole moment (field-independent basis, Debye-Ang):
   XX=            -15.7538   YY=            -22.3060   ZZ=            -26.2500
   XY=              4.0064   XZ=             -0.0002   YZ=              0.0004

 826698\CCSD=-229.0856399\CCSD(T)=-229.1185811\S2=0.926107\S2-1=0.88901
 Normal termination of Gaussian 09 at Mon Oct  9 22:27:24 2017.
