 Gaussian 09, Revision E.01,
 Gaussian 09:  ES64L-G09RevE.01 30-Nov-2015

 -----------------------------------
 #p ccsd(t,maxcyc=200)/6-311++G(d,p)
 -----------------------------------

 -------------
 ccsd(t) iener
 -------------
 Symbolic Z-matrix:
 Charge =  0 Multiplicity = 1

                         Standard orientation:
 ---------------------------------------------------------------------
 Center     Atomic      Atomic             Coordinates (Angstroms)
 Number     Number       Type             X           Y           Z
 ---------------------------------------------------------------------
      1          8           0       -0.000000   -0.000000    2.294340
      2          6           0        0.000000    0.754889   -1.438394
      3          6           0       -0.000000   -0.754889   -1.438394
      4          6           0        0.000000    0.000000   -0.159721
      5          6           0       -0.000000   -0.000000    1.123577
      6          1           0       -0.915936    1.266363   -1.719283
      7          1           0        0.915936    1.266363   -1.719283
      8          1           0        0.915936   -1.266363   -1.719283
      9          1           0       -0.915936   -1.266363   -1.719283
 ---------------------------------------------------------------------

 SCF Done:  E(RHF) =  -228.633994311     A.U. after   15 cycles
 E2 =    -0.7519538247D+00 EUMP2 =    -0.22938594813561D+03
 CCSD(T)
 CCSD(T)= -0.22944290277D+03

 The electronic state is 1-A1.
 Alpha  occ. eigenvalues --  -20.60843 -11.37026 -11.27200 -11.27132 -11.24440
 Alpha  occ. eigenvalues --   -1.45143  -1.17185  -0.97901  -0.85258  -0.72862
 Alpha  occ. eigenvalues --   -0.69833  -0.67855  -0.61830  -0.60104  -0.54431
 Alpha  occ. eigenvalues --   -0.48248  -0.45157  -0.34628
 Alpha virt. eigenvalues --    0.04122   0.05230   0.05682   0.08058   0.08448
 Alpha virt. eigenvalues --    0.10846   0.11079   0.11818   0.12977   0.13430
 Alpha virt. eigenvalues --    0.15794   0.16763   0.17670   0.18215   0.19628

 Mulliken charges:
               1
     1  O   -0.330683
     2  C   -0.111480
     3  C   -0.111480
     4  C    0.857553
     5  C   -0.906083
     6  H    0.150543
     7  H    0.150543
     8  H    0.150543
     9  H    0.150543
 Sum of Mulliken charges =  -0.00000

 Dipole moment (field-independent basis, Debye):
    X=             -0.0000    Y=              0.0000    Z=             -3.2531  Tot=              3.2531
 Quadrupole moment (field-independent basis, Debye-Ang):
   XX=            -28.7958   YY=            -27.6087   ZZ=            -34.4638
   XY=              0.0000   XZ=             -0.0000   YZ=             -0.0000

 .3994397\MP4SDQ=-229.4109048\CCSD=-229.4076921\CCSD(T)=-229.4429028\RM
 Normal termination of Gaussian 09 at Mon Oct  9 16:34:58 2017.
