 Gaussian 09, Revision E.01,
 Gaussian 09:  ES64L-G09RevE.01 30-Nov-2015

 -----------------------------------
 #p ccsd(t,maxcyc=200)/6-311++G(d,p)
 -----------------------------------

 -------------
 ccsd(t) iener
 -------------
 Symbolic Z-matrix:
 Charge =  0 Multiplicity = 1

                         Standard orientation:
 ---------------------------------------------------------------------
 Center     Atomic      Atomic             Coordinates (Angstroms)
 Number     Number       Type             X           Y           Z
 ---------------------------------------------------------------------
      1          8           0       -2.339190    0.204667    0.000000
      2          6           0        0.000000    0.597247    0.000000
      3          6           0       -1.215135   -0.243215    0.000000
      4          6           0        1.199065    0.062579    0.000000
      5          6           0        2.370402   -0.499524    0.000000
      6          1           0       -0.142634    1.674382    0.000000
      7          1           0       -1.028458   -1.335701    0.000000
      8          1           0        2.879310   -0.739270    0.928611
      9          1           0        2.879310   -0.739270   -0.928611
 ---------------------------------------------------------------------

 SCF Done:  E(RHF) =  -228.652748962     A.U. after   16 cycles
 E2 =    -0.7371681109D+00 EUMP2 =    -0.22938991707320D+03
 CCSD(T)
 CCSD(T)= -0.22945468681D+03

 The electronic state is 1-A'.
 Alpha  occ. eigenvalues --  -20.55994 -11.34458 -11.29872 -11.27170 -11.26458
 Alpha  occ. eigenvalues --   -1.39788  -1.11887  -1.01362  -0.83922  -0.75345
 Alpha  occ. eigenvalues --   -0.68601  -0.64835  -0.63954  -0.61623  -0.54549
 Alpha  occ. eigenvalues --   -0.44865  -0.40649  -0.39859
 Alpha virt. eigenvalues --    0.03567   0.05372   0.05671   0.06127   0.08452
 Alpha virt. eigenvalues --    0.09797   0.10811   0.12138   0.12341   0.14165
 Alpha virt. eigenvalues --    0.14189   0.16337   0.16776   0.18398   0.18656

 Mulliken charges:
               1
     1  O   -0.319913
     2  C   -0.367837
     3  C   -0.103303
     4  C    0.667385
     5  C   -0.559696
     6  H    0.240170
     7  H    0.139763
     8  H    0.151715
     9  H    0.151715
 Sum of Mulliken charges =   0.00000

 Dipole moment (field-independent basis, Debye):
    X=              4.1743    Y=             -1.0863    Z=             -0.0000  Tot=              4.3133
 Quadrupole moment (field-independent basis, Debye-Ang):
   XX=            -35.0131   YY=            -28.3892   ZZ=            -29.2958
   XY=             -0.2464   XZ=             -0.0000   YZ=              0.0000

 Q=-229.4107194\MP4SDQ=-229.4216678\CCSD=-229.420133\CCSD(T)=-229.45468
 Normal termination of Gaussian 09 at Mon Oct  9 16:32:19 2017.
