 Gaussian 09, Revision E.01,
 Gaussian 09:  ES64L-G09RevE.01 30-Nov-2015

 -----------------------------------
 #p ccsd(t,maxcyc=200)/6-311++G(d,p)
 -----------------------------------

 -------------
 ccsd(t) iener
 -------------
 Symbolic Z-matrix:
 Charge =  0 Multiplicity = 3

                         Standard orientation:
 ---------------------------------------------------------------------
 Center     Atomic      Atomic             Coordinates (Angstroms)
 Number     Number       Type             X           Y           Z
 ---------------------------------------------------------------------
      1          6           0        1.144635   -0.000010    0.132447
      2          6           0        0.000026    0.868477   -0.254657
      3          1           0        2.048268    0.000036   -0.474250
      4          1           0        1.380078   -0.000092    1.208950
      5          1           0       -1.380322   -0.000092    1.208670
      6          6           0        0.000026   -0.868438   -0.254789
      7          6           0       -1.144662   -0.000010    0.132215
      8          1           0       -2.048172    0.000036   -0.474664
 ---------------------------------------------------------------------

 SCF Done:  E(UHF) =  -153.603669235     A.U. after   20 cycles
 E2 =    -0.5285122931D+00 EUMP2 =    -0.15413218152793D+03
 CCSD(T)
 CCSD(T)= -0.15419287009D+03

 The electronic state is 3-A.
 Alpha  occ. eigenvalues --  -11.28375 -11.28330 -11.27975 -11.27957  -1.23825
 Alpha  occ. eigenvalues --   -0.96776  -0.78831  -0.78429  -0.69085  -0.60752
 Alpha  occ. eigenvalues --   -0.56060  -0.51548  -0.46183  -0.37284  -0.34585
 Alpha virt. eigenvalues --    0.04466   0.05437   0.06037   0.08071   0.08256
 Alpha virt. eigenvalues --    0.11365   0.12458   0.13689   0.14609   0.15541
 Alpha virt. eigenvalues --    0.16695   0.17364   0.17506   0.19440   0.19913

  Beta  occ. eigenvalues --  -11.28141 -11.28139 -11.25985 -11.25958  -1.18398
  Beta  occ. eigenvalues --   -0.95810  -0.75183  -0.69107  -0.62960  -0.58007
  Beta  occ. eigenvalues --   -0.54819  -0.49159  -0.33567
  Beta virt. eigenvalues --    0.04029   0.05467   0.06094   0.06461   0.06734
  Beta virt. eigenvalues --    0.08294   0.09898   0.12195   0.13694   0.13767
  Beta virt. eigenvalues --    0.14961   0.16691   0.17423   0.18854   0.19056

 Mulliken charges and spin densities:
               1          2
     1  C   -0.546790  -0.128995
     2  C    0.223968   0.955936
     3  H    0.172906   0.050922
     4  H    0.149916   0.122137
     5  H    0.149916   0.122137
     6  C    0.223968   0.955936
     7  C   -0.546790  -0.128995
     8  H    0.172906   0.050922
 Sum of Mulliken charges =  -0.00000   2.00000

 Dipole moment (field-independent basis, Debye):
    X=             -0.0001    Y=             -0.0001    Z=              1.1570  Tot=              1.1570
 Quadrupole moment (field-independent basis, Debye-Ang):
   XX=            -20.1122   YY=            -31.3192   ZZ=            -24.1643
   XY=             -0.0000   XZ=              0.0004   YZ=             -0.0005

 MP3-0=-154.160619\MP4SDQ=-154.1648754\CCSD=-154.1657466\CCSD(T)=-154.1
 Normal termination of Gaussian 09 at Tue Oct 10 12:38:06 2017.
