 Gaussian 09, Revision E.01,
 Gaussian 09:  ES64L-G09RevE.01 30-Nov-2015

 -----------------------------------
 #p ccsd(t,maxcyc=200)/6-311++G(d,p)
 -----------------------------------

 -------------
 ccsd(t) iener
 -------------
 Symbolic Z-matrix:
 Charge =  0 Multiplicity = 1

                         Standard orientation:
 ---------------------------------------------------------------------
 Center     Atomic      Atomic             Coordinates (Angstroms)
 Number     Number       Type             X           Y           Z
 ---------------------------------------------------------------------
      1          6           0       -1.488464    0.623041    0.000000
      2          1           0       -1.864466    1.165903    0.875880
      3          1           0       -1.880818   -0.392219    0.000000
      4          1           0       -1.864466    1.165903   -0.875880
      5          6           0        0.000000    0.649051    0.000000
      6          1           0        0.462967    1.638458    0.000000
      7          6           0        0.791027   -0.422113    0.000000
      8          6           0        1.555234   -1.446320    0.000000
 ---------------------------------------------------------------------

 SCF Done:  E(RHF) =  -153.676871575     A.U. after   15 cycles
 E2 =    -0.5274579558D+00 EUMP2 =    -0.15420432953061D+03
 CCSD(T)
 CCSD(T)= -0.15427105916D+03

 The electronic state is 1-A'.
 Alpha  occ. eigenvalues --  -11.33204 -11.26998 -11.26646 -11.22718  -1.12074
 Alpha  occ. eigenvalues --   -1.00802  -0.89761  -0.72204  -0.62483  -0.60906
 Alpha  occ. eigenvalues --   -0.57134  -0.44057  -0.42030  -0.37996
 Alpha virt. eigenvalues --    0.01393   0.02894   0.05251   0.06126   0.07054
 Alpha virt. eigenvalues --    0.11354   0.12222   0.12693   0.12913   0.14048
 Alpha virt. eigenvalues --    0.14117   0.16169   0.17544   0.18314   0.19697

 Mulliken charges:
               1
     1  C   -0.751628
     2  H    0.163779
     3  H    0.176179
     4  H    0.163779
     5  C   -0.591389
     6  H    0.208955
     7  C    0.687231
     8  C   -0.056905
 Sum of Mulliken charges =  -0.00000

 Dipole moment (field-independent basis, Debye):
    X=             -3.5221    Y=              3.9754    Z=             -0.0000  Tot=              5.3112
 Quadrupole moment (field-independent basis, Debye-Ang):
   XX=            -28.6739   YY=            -27.9190   ZZ=            -24.7570
   XY=              3.9704   XZ=              0.0000   YZ=             -0.0000

 4.2434801\CCSD=-154.2435072\CCSD(T)=-154.2710592\RMSD=8.101e-09\PG=CS
 Normal termination of Gaussian 09 at Tue Oct 10 11:59:32 2017.
