 Gaussian 09, Revision E.01,
 Gaussian 09:  ES64L-G09RevE.01 30-Nov-2015

 -----------------------------------
 #p ccsd(t,maxcyc=200)/6-311++G(d,p)
 -----------------------------------

 -------------
 ccsd(t) iener
 -------------
 Symbolic Z-matrix:
 Charge =  1 Multiplicity = 2

                         Standard orientation:
 ---------------------------------------------------------------------
 Center     Atomic      Atomic             Coordinates (Angstroms)
 Number     Number       Type             X           Y           Z
 ---------------------------------------------------------------------
      1          6           0        0.088382   -0.196101    0.908561
      2          6           0        0.088382    1.025123    0.000000
      3          6           0       -0.529253   -1.032886   -0.000000
      4          6           0        0.088382   -0.196101   -0.908561
      5          1           0        0.996798    1.632748    0.000000
      6          1           0       -0.825941    1.610999    0.000000
      7          1           0        0.706894   -0.421975   -1.774698
      8          1           0        0.706894   -0.421975    1.774698
 ---------------------------------------------------------------------

 SCF Done:  E(UHF) =  -153.406630565     A.U. after   23 cycles
 E2 =    -0.4979517373D+00 EUMP2 =    -0.15390458230271D+03
 CCSD(T)
 CCSD(T)= -0.15396574630D+03

 The electronic state is 2-A'.
 Alpha  occ. eigenvalues --  -11.56481 -11.56450 -11.55852 -11.50317  -1.49718
 Alpha  occ. eigenvalues --   -1.18242  -1.12196  -0.98390  -0.91802  -0.83609
 Alpha  occ. eigenvalues --   -0.82601  -0.75109  -0.73561  -0.65830
 Alpha virt. eigenvalues --   -0.13362  -0.13023  -0.08971  -0.07191  -0.07177
 Alpha virt. eigenvalues --   -0.06178  -0.02847  -0.01788  -0.01577  -0.00707
 Alpha virt. eigenvalues --   -0.00667   0.02479   0.02937   0.03641   0.04171

  Beta  occ. eigenvalues --  -11.56598 -11.56580 -11.52421 -11.50004  -1.47348
  Beta  occ. eigenvalues --   -1.14597  -1.12246  -0.97843  -0.85880  -0.82406
  Beta  occ. eigenvalues --   -0.80501  -0.75127  -0.65857
  Beta virt. eigenvalues --   -0.17516  -0.14588  -0.10096  -0.07905  -0.07146
  Beta virt. eigenvalues --   -0.06937  -0.05251  -0.01824  -0.01773  -0.01472
  Beta virt. eigenvalues --   -0.00622   0.00030   0.02755   0.02918   0.03868

 Mulliken charges and spin densities:
               1          2
     1  C    0.254480  -0.051484
     2  C   -0.637175   0.083007
     3  C    0.065572   0.995657
     4  C    0.254480  -0.051484
     5  H    0.227210   0.028380
     6  H    0.244576  -0.027791
     7  H    0.295429   0.011857
     8  H    0.295429   0.011857
 Sum of Mulliken charges =   1.00000   1.00000

 Dipole moment (field-independent basis, Debye):
    X=              1.1026    Y=              0.1372    Z=              0.0000  Tot=              1.1111
 Quadrupole moment (field-independent basis, Debye-Ang):
   XX=            -19.9128   YY=            -17.8857   ZZ=            -14.7295
   XY=             -0.0555   XZ=              0.0000   YZ=             -0.0000

 Normal termination of Gaussian 09 at Tue Oct 10 14:36:38 2017.
