 Gaussian 09, Revision E.01,
 Gaussian 09:  ES64L-G09RevE.01 30-Nov-2015

 -----------------------------------
 #p ccsd(t,maxcyc=200)/6-311++G(d,p)
 -----------------------------------

 -------------
 ccsd(t) iener
 -------------
 Symbolic Z-matrix:
 Charge =  0 Multiplicity = 1

                         Standard orientation:
 ---------------------------------------------------------------------
 Center     Atomic      Atomic             Coordinates (Angstroms)
 Number     Number       Type             X           Y           Z
 ---------------------------------------------------------------------
      1          6           0       -1.550062   -0.115850   -0.000018
      2          1           0       -2.049733   -1.080583   -0.000275
      3          1           0       -2.174888    0.773695    0.000807
      4          6           0       -0.221614    0.008897   -0.000559
      5          6           0        1.129756   -0.521182    0.000107
      6          1           0        1.578746   -0.928207   -0.907716
      7          1           0        1.576723   -0.929584    0.908303
      8          6           0        0.820112    0.988915    0.000284
 ---------------------------------------------------------------------

 SCF Done:  E(RHF) =  -153.640189745     A.U. after   14 cycles
 E2 =    -0.5298957014D+00 EUMP2 =    -0.15417008544651D+03
 CCSD(T)
 CCSD(T)= -0.15423654615D+03

 The electronic state is 1-A.
 Alpha  occ. eigenvalues --  -11.28507 -11.28140 -11.25343 -11.24769  -1.17343
 Alpha  occ. eigenvalues --   -1.00368  -0.80728  -0.71031  -0.64311  -0.61329
 Alpha  occ. eigenvalues --   -0.56698  -0.44373  -0.39662  -0.36167
 Alpha virt. eigenvalues --    0.02280   0.04106   0.05564   0.06282   0.06763
 Alpha virt. eigenvalues --    0.10994   0.11313   0.11748   0.13872   0.16044
 Alpha virt. eigenvalues --    0.16133   0.17761   0.18599   0.19214   0.20197

 Mulliken charges:
               1
     1  C   -0.381208
     2  H    0.158908
     3  H    0.166994
     4  C    0.261076
     5  C   -0.538420
     6  H    0.155836
     7  H    0.155848
     8  C    0.020965
 Sum of Mulliken charges =  -0.00000

 Dipole moment (field-independent basis, Debye):
    X=             -1.7581    Y=             -2.4279    Z=              0.0009  Tot=              2.9976
 Quadrupole moment (field-independent basis, Debye-Ang):
   XX=            -21.7950   YY=            -28.6651   ZZ=            -24.4475
   XY=             -3.1950   XZ=             -0.0036   YZ=             -0.0015

 74232\MP4DQ=-154.2030579\MP4SDQ=-154.2090555\CCSD=-154.210002\CCSD(T)=
 Normal termination of Gaussian 09 at Tue Oct 10 12:09:08 2017.
