 Gaussian 09, Revision E.01,
 Gaussian 09:  ES64L-G09RevE.01 30-Nov-2015

 -----------------------------------
 #p ccsd(t,maxcyc=200)/6-311++G(d,p)
 -----------------------------------

 -------------
 ccsd(t) iener
 -------------
 Symbolic Z-matrix:
 Charge =  0 Multiplicity = 3

                         Standard orientation:
 ---------------------------------------------------------------------
 Center     Atomic      Atomic             Coordinates (Angstroms)
 Number     Number       Type             X           Y           Z
 ---------------------------------------------------------------------
      1          1           0       -1.684610   -0.254942    0.895499
      2          6           0        0.201915   -1.047317    0.000000
      3          1           0       -0.088056    2.005410   -0.000000
      4          6           0        0.000000    0.924640   -0.000000
      5          6           0        1.077950    0.037118    0.000000
      6          6           0       -1.062324   -0.189011   -0.000000
      7          1           0        2.152025    0.151891    0.000000
      8          1           0       -1.684610   -0.254942   -0.895499
 ---------------------------------------------------------------------

 SCF Done:  E(UHF) =  -153.683331791     A.U. after   18 cycles
 E2 =    -0.4901008983D+00 EUMP2 =    -0.15417343268965D+03
 CCSD(T)
 CCSD(T)= -0.15424582563D+03

 The electronic state is 3-A".
 Alpha  occ. eigenvalues --  -11.26564 -11.24969 -11.24388 -11.23434  -1.18673
 Alpha  occ. eigenvalues --   -0.90389  -0.88612  -0.70996  -0.65582  -0.62345
 Alpha  occ. eigenvalues --   -0.54771  -0.51065  -0.43259  -0.40826  -0.33407
 Alpha virt. eigenvalues --    0.04347   0.05276   0.06121   0.06819   0.10356
 Alpha virt. eigenvalues --    0.12531   0.13588   0.13765   0.15155   0.16027
 Alpha virt. eigenvalues --    0.16050   0.16654   0.19283   0.19436   0.20899

  Beta  occ. eigenvalues --  -11.24758 -11.24584 -11.22833 -11.22020  -1.14323
  Beta  occ. eigenvalues --   -0.91394  -0.78017  -0.70927  -0.58475  -0.56635
  Beta  occ. eigenvalues --   -0.50360  -0.49720  -0.40148
  Beta virt. eigenvalues --    0.04292   0.05148   0.05558   0.06913   0.08377
  Beta virt. eigenvalues --    0.10205   0.13301   0.13897   0.14065   0.14067
  Beta virt. eigenvalues --    0.15708   0.16283   0.17258   0.19444   0.19793

 Mulliken charges and spin densities:
               1          2
     1  H    0.116635   0.033319
     2  C    0.247673   1.866889
     3  H    0.189990  -0.011345
     4  C    0.120814   1.131817
     5  C   -0.391832  -0.840588
     6  C   -0.562395  -0.255162
     7  H    0.162479   0.041751
     8  H    0.116635   0.033319
 Sum of Mulliken charges =  -0.00000   2.00000

 Dipole moment (field-independent basis, Debye):
    X=             -0.1399    Y=              0.8971    Z=              0.0000  Tot=              0.9079
 Quadrupole moment (field-independent basis, Debye-Ang):
   XX=            -21.6962   YY=            -25.0431   ZZ=            -25.8605
   XY=              0.3705   XZ=              0.0000   YZ=             -0.0000

 .2225172\CCSD(T)=-154.2458256\S2=2.241178\S2-1=2.171347\S2A=2.007939\R
 Normal termination of Gaussian 09 at Tue Oct 10 12:24:09 2017.
