 Gaussian 09, Revision E.01,
 Gaussian 09:  ES64L-G09RevE.01 30-Nov-2015

 -----------------------------------
 #p ccsd(t,maxcyc=200)/6-311++G(d,p)
 -----------------------------------

 -------------
 ccsd(t) iener
 -------------
 Symbolic Z-matrix:
 Charge =  0 Multiplicity = 3

                         Standard orientation:
 ---------------------------------------------------------------------
 Center     Atomic      Atomic             Coordinates (Angstroms)
 Number     Number       Type             X           Y           Z
 ---------------------------------------------------------------------
      1          6           0       -0.076858   -0.000079    0.480372
      2          1           0       -0.102769   -0.000260    1.571951
      3          6           0       -1.415229    0.000033   -0.198396
      4          1           0       -1.996878   -0.881587    0.095949
      5          1           0       -1.996878    0.881556    0.096240
      6          1           0       -1.308090    0.000212   -1.284661
      7          6           0        1.196428   -0.646383   -0.181052
      8          6           0        1.196428    0.646443   -0.180838
 ---------------------------------------------------------------------

 SCF Done:  E(UHF) =  -153.589381555     A.U. after   53 cycles
 E2 =    -0.5265140817D+00 EUMP2 =    -0.15411589563684D+03
 CCSD(T)
 CCSD(T)= -0.15418150802D+03

 The electronic state is 3-A.
 Alpha  occ. eigenvalues --  -11.30112 -11.29866 -11.29588 -11.23200  -1.19486
 Alpha  occ. eigenvalues --   -0.99982  -0.80606  -0.69929  -0.63225  -0.58103
 Alpha  occ. eigenvalues --   -0.57310  -0.54207  -0.49363  -0.39569  -0.37358
 Alpha virt. eigenvalues --    0.04222   0.06062   0.06970   0.07563   0.09940
 Alpha virt. eigenvalues --    0.10186   0.10571   0.11833   0.13663   0.16524
 Alpha virt. eigenvalues --    0.17075   0.17323   0.17962   0.18766   0.18881

  Beta  occ. eigenvalues --  -11.28375 -11.27640 -11.27471 -11.23337  -1.14161
  Beta  occ. eigenvalues --   -0.98297  -0.76506  -0.61485  -0.58247  -0.55364
  Beta  occ. eigenvalues --   -0.49614  -0.47804  -0.37234
  Beta virt. eigenvalues --   -0.00622   0.04716   0.05589   0.06107   0.07397
  Beta virt. eigenvalues --    0.08219   0.10967   0.11204   0.12040   0.12698
  Beta virt. eigenvalues --    0.13946   0.17330   0.17464   0.18084   0.18763

 Mulliken charges and spin densities:
               1          2
     1  C    0.343920   0.463839
     2  H    0.153527  -0.054630
     3  C   -0.712289  -0.004784
     4  H    0.134847   0.022655
     5  H    0.134847   0.022655
     6  H    0.134007  -0.003532
     7  C   -0.094429   0.776898
     8  C   -0.094429   0.776898
 Sum of Mulliken charges =  -0.00000   2.00000

 Dipole moment (field-independent basis, Debye):
    X=             -1.6004    Y=             -0.0000    Z=              0.1552  Tot=              1.6079
 Quadrupole moment (field-independent basis, Debye-Ang):
   XX=            -26.3981   YY=            -25.4044   ZZ=            -24.5203
   XY=              0.0001   XZ=             -0.4796   YZ=             -0.0001

 -0=-154.1444058\MP4SDQ=-154.1510153\CCSD=-154.1536067\CCSD(T)=-154.181
 Normal termination of Gaussian 09 at Tue Oct 10 13:17:34 2017.
