 Gaussian 09, Revision E.01,
 Gaussian 09:  ES64L-G09RevE.01 30-Nov-2015

 -----------------------------------
 #p ccsd(t,maxcyc=200)/6-311++G(d,p)
 -----------------------------------

 -------------
 ccsd(t) iener
 -------------
 Symbolic Z-matrix:
 Charge =  1 Multiplicity = 4

                         Standard orientation:
 ---------------------------------------------------------------------
 Center     Atomic      Atomic             Coordinates (Angstroms)
 Number     Number       Type             X           Y           Z
 ---------------------------------------------------------------------
      1          6           0        1.849270   -0.018554    0.000211
      2          6           0        0.518393   -0.317338   -0.000347
      3          6           0       -0.688055    0.365749   -0.000325
      4          1           0        2.201883    1.016675    0.000490
      5          1           0        2.602155   -0.804217    0.000523
      6          1           0       -0.682960    1.467807   -0.000234
      7          6           0       -1.877170   -0.299040    0.000222
      8          1           0       -2.935706   -0.065165    0.000660
 ---------------------------------------------------------------------

 SCF Done:  E(UHF) =  -153.390123176     A.U. after   22 cycles
 E2 =    -0.4352780552D+00 EUMP2 =    -0.15382540123085D+03
 CCSD(T)
 CCSD(T)= -0.15389916431D+03

 The electronic state is 4-A.
 Alpha  occ. eigenvalues --  -11.54871 -11.54347 -11.51696 -11.50222  -1.37841
 Alpha  occ. eigenvalues --   -1.28715  -1.10744  -0.97735  -0.91434  -0.88964
 Alpha  occ. eigenvalues --   -0.84048  -0.72885  -0.67487  -0.63935  -0.62602
 Alpha virt. eigenvalues --   -0.17815  -0.08859  -0.07020  -0.06443  -0.04803
 Alpha virt. eigenvalues --   -0.04022  -0.02824  -0.02637  -0.00180   0.00430
 Alpha virt. eigenvalues --    0.00750   0.02207   0.04176   0.04850   0.05073

  Beta  occ. eigenvalues --  -11.53329 -11.51812 -11.51123 -11.47585  -1.31461
  Beta  occ. eigenvalues --   -1.20567  -1.02585  -0.91125  -0.86290  -0.84873
  Beta  occ. eigenvalues --   -0.81480  -0.65549
  Beta virt. eigenvalues --   -0.23251  -0.13974  -0.09617  -0.07940  -0.07531
  Beta virt. eigenvalues --   -0.06753  -0.05948  -0.03828  -0.02721  -0.01106
  Beta virt. eigenvalues --   -0.00713   0.00212   0.01555   0.02527   0.03683

 Mulliken charges and spin densities:
               1          2
     1  C   -0.358908   0.573443
     2  C    0.497760   1.063420
     3  C   -0.105640  -0.484085
     4  H    0.229276   0.016032
     5  H    0.261893  -0.023271
     6  H    0.264570   0.135875
     7  C   -0.079959   1.771572
     8  H    0.291007  -0.052987
 Sum of Mulliken charges =   1.00000   3.00000

 Dipole moment (field-independent basis, Debye):
    X=              1.2791    Y=              0.9841    Z=              0.0011  Tot=              1.6139
 Quadrupole moment (field-independent basis, Debye-Ang):
   XX=             -0.8515   YY=            -19.7212   ZZ=            -23.2569
   XY=             -0.7426   XZ=              0.0000   YZ=             -0.0003

 3-0=-153.8713574\MP4SDQ=-153.87372\CCSD=-153.8788235\CCSD(T)=-153.8991
 Normal termination of Gaussian 09 at Tue Oct 10 15:33:23 2017.
