 Gaussian 09, Revision E.01,
 Gaussian 09:  ES64L-G09RevE.01 30-Nov-2015

 -----------------------------------
 #p ccsd(t,maxcyc=200)/6-311++G(d,p)
 -----------------------------------

 -------------
 ccsd(t) iener
 -------------
 Symbolic Z-matrix:
 Charge =  0 Multiplicity = 1

                         Standard orientation:
 ---------------------------------------------------------------------
 Center     Atomic      Atomic             Coordinates (Angstroms)
 Number     Number       Type             X           Y           Z
 ---------------------------------------------------------------------
      1          6           0        0.000000    0.000000    1.591746
      2          1           0       -0.000000   -0.928444    2.148656
      3          1           0        0.000000    0.928444    2.148656
      4          6           0       -0.000000    0.000000    0.262067
      5          6           0        0.000000   -0.658984   -1.019478
      6          1           0        0.000000   -1.571673   -1.593229
      7          6           0        0.000000    0.658984   -1.019478
      8          1           0        0.000000    1.571673   -1.593229
 ---------------------------------------------------------------------

 SCF Done:  E(RHF) =  -153.708426710     A.U. after   12 cycles
 E2 =    -0.5446684353D+00 EUMP2 =    -0.15425309514528D+03
 CCSD(T)
 CCSD(T)= -0.15430892351D+03

 The electronic state is 1-A1.
 Alpha  occ. eigenvalues --  -11.27991 -11.27797 -11.27379 -11.19017  -1.20973
 Alpha  occ. eigenvalues --   -0.97036  -0.80008  -0.76120  -0.65719  -0.58214
 Alpha  occ. eigenvalues --   -0.52969  -0.51135  -0.44116  -0.29748
 Alpha virt. eigenvalues --    0.03740   0.04738   0.06553   0.07668   0.09336
 Alpha virt. eigenvalues --    0.10304   0.10621   0.14719   0.14998   0.15496
 Alpha virt. eigenvalues --    0.16083   0.17944   0.18968   0.19106   0.20661

 Mulliken charges:
               1
     1  C   -0.702836
     2  H    0.129368
     3  H    0.129368
     4  C    0.446279
     5  C   -0.195284
     6  H    0.194195
     7  C   -0.195284
     8  H    0.194195
 Sum of Mulliken charges =  -0.00000

 Dipole moment (field-independent basis, Debye):
    X=              0.0000    Y=             -0.0000    Z=             -2.4310  Tot=              2.4310
 Quadrupole moment (field-independent basis, Debye-Ang):
   XX=            -27.5678   YY=            -20.4160   ZZ=            -23.2872
   XY=              0.0000   XZ=             -0.0000   YZ=             -0.0000

 4.2821341\CCSD(T)=-154.3089235\RMSD=8.683e-09\PG=C02V [C2(C1C1),SGV(C2
 Normal termination of Gaussian 09 at Tue Oct 10 12:06:50 2017.
