 Gaussian 09, Revision E.01,
 Gaussian 09:  ES64L-G09RevE.01 30-Nov-2015

 -----------------------------------
 #p ccsd(t,maxcyc=200)/6-311++G(d,p)
 -----------------------------------

 -------------
 ccsd(t) iener
 -------------
 Symbolic Z-matrix:
 Charge =  1 Multiplicity = 2

                         Standard orientation:
 ---------------------------------------------------------------------
 Center     Atomic      Atomic             Coordinates (Angstroms)
 Number     Number       Type             X           Y           Z
 ---------------------------------------------------------------------
      1          6           0       -0.000000   -0.688698    0.751994
      2          1           0       -0.000000   -1.456678    1.515738
      3          6           0        0.000000   -0.688698   -0.751994
      4          1           0        0.000000   -1.456678   -1.515738
      5          6           0        0.000000    0.688698    0.751994
      6          6           0        0.000000    0.688698   -0.751994
      7          1           0        0.000000    1.456678   -1.515738
      8          1           0        0.000000    1.456678    1.515738
 ---------------------------------------------------------------------

 SCF Done:  E(UHF) =  -153.445647540     A.U. after   12 cycles
 E2 =    -0.5042356907D+00 EUMP2 =    -0.15394988323099D+03
 CCSD(T)
 CCSD(T)= -0.15400903370D+03

 The electronic state is 2-B2G.
 Alpha  occ. eigenvalues --  -11.53350 -11.53288 -11.53207 -11.53143  -1.46494
 Alpha  occ. eigenvalues --   -1.18387  -1.11373  -0.96117  -0.95869  -0.82319
 Alpha  occ. eigenvalues --   -0.80651  -0.77279  -0.74828  -0.55324
 Alpha virt. eigenvalues --   -0.20250  -0.08919  -0.07498  -0.07443  -0.04648
 Alpha virt. eigenvalues --   -0.04206  -0.02984  -0.02445  -0.01940   0.00114
 Alpha virt. eigenvalues --    0.00176   0.00957   0.01269   0.04731   0.05132

  Beta  occ. eigenvalues --  -11.52777 -11.52700 -11.52648 -11.52580  -1.43756
  Beta  occ. eigenvalues --   -1.13877  -1.09982  -0.95389  -0.94511  -0.81415
  Beta  occ. eigenvalues --   -0.79845  -0.74617  -0.67044
  Beta virt. eigenvalues --   -0.19333  -0.16069  -0.08849  -0.07379  -0.07375
  Beta virt. eigenvalues --   -0.04576  -0.03785  -0.02142  -0.01877   0.00404
  Beta virt. eigenvalues --    0.00989   0.01024   0.01426   0.01983   0.04858

 Mulliken charges and spin densities:
               1          2
     1  C   -0.056224   0.269423
     2  H    0.306224  -0.019423
     3  C   -0.056224   0.269423
     4  H    0.306224  -0.019423
     5  C   -0.056224   0.269423
     6  C   -0.056224   0.269423
     7  H    0.306224  -0.019423
     8  H    0.306224  -0.019423
 Sum of Mulliken charges =   1.00000   1.00000

 Dipole moment (field-independent basis, Debye):
    X=              0.0000    Y=              0.0000    Z=             -0.0000  Tot=              0.0000
 Quadrupole moment (field-independent basis, Debye-Ang):
   XX=            -22.9836   YY=            -13.3477   ZZ=            -13.5194
   XY=              0.0000   XZ=             -0.0000   YZ=              0.0000

 .98401\CCSD(T)=-154.0090337\S2=0.75601\S2-1=0.750037\S2A=0.750026\RMSD
 Normal termination of Gaussian 09 at Tue Oct 10 14:03:20 2017.
