 Gaussian 09, Revision E.01,
 Gaussian 09:  ES64L-G09RevE.01 30-Nov-2015

 -----------------------------------
 #p ccsd(t,maxcyc=200)/6-311++G(d,p)
 -----------------------------------

 -------------
 ccsd(t) iener
 -------------
 Symbolic Z-matrix:
 Charge =  1 Multiplicity = 2

                         Standard orientation:
 ---------------------------------------------------------------------
 Center     Atomic      Atomic             Coordinates (Angstroms)
 Number     Number       Type             X           Y           Z
 ---------------------------------------------------------------------
      1          6           0       -1.101717    0.423337    0.000000
      2          6           0        0.538188   -1.057881    0.000000
      3          8           0       -0.689914   -1.021223    0.000000
      4          6           0        1.216158    0.257780    0.000000
      5          6           0        0.000000    1.156984    0.000000
      6          1           0       -2.172551    0.541025    0.000000
      7          1           0        1.868450    0.355092    0.879729
      8          1           0        1.868450    0.355092   -0.879729
      9          1           0        0.039191    2.237257    0.000000
 ---------------------------------------------------------------------

 SCF Done:  E(UHF) =  -228.338633271     A.U. after   29 cycles
 E2 =    -0.6949630892D+00 EUMP2 =    -0.22903359636005D+03
 CCSD(T)
 CCSD(T)= -0.22910554167D+03

 The electronic state is 2-A'.
 Alpha  occ. eigenvalues --  -20.91563 -11.65572 -11.54117 -11.50348 -11.47909
 Alpha  occ. eigenvalues --   -1.76755  -1.34792  -1.27302  -1.08524  -1.02264
 Alpha  occ. eigenvalues --   -0.97657  -0.90841  -0.86794  -0.83224  -0.79523
 Alpha  occ. eigenvalues --   -0.78779  -0.71505  -0.61988
 Alpha virt. eigenvalues --   -0.16014  -0.09249  -0.06915  -0.06706  -0.06244
 Alpha virt. eigenvalues --   -0.06066  -0.03817  -0.03005  -0.02152  -0.00733
 Alpha virt. eigenvalues --    0.00908   0.00915   0.02715   0.04023   0.04921

  Beta  occ. eigenvalues --  -20.92099 -11.62330 -11.53156 -11.49986 -11.48497
  Beta  occ. eigenvalues --   -1.76562  -1.34277  -1.23228  -1.08048  -1.00658
  Beta  occ. eigenvalues --   -0.92411  -0.91723  -0.83226  -0.82771  -0.81368
  Beta  occ. eigenvalues --   -0.78516  -0.61194
  Beta virt. eigenvalues --   -0.18391  -0.12127  -0.08852  -0.07067  -0.06524
  Beta virt. eigenvalues --   -0.05660  -0.05636  -0.03467  -0.02390  -0.01885
  Beta virt. eigenvalues --   -0.00291   0.01227   0.01478   0.02968   0.04583

 Mulliken charges and spin densities:
               1          2
     1  C   -0.245942   0.425903
     2  C    0.526800   1.023274
     3  O    0.067856  -0.197169
     4  C   -0.725515   0.115595
     5  C    0.226182  -0.335552
     6  H    0.318870  -0.021761
     7  H    0.266827  -0.015710
     8  H    0.266827  -0.015710
     9  H    0.298094   0.021131
 Sum of Mulliken charges =   1.00000   1.00000

 Dipole moment (field-independent basis, Debye):
    X=              1.6288    Y=              0.8619    Z=             -0.0000  Tot=              1.8427
 Quadrupole moment (field-independent basis, Debye-Ang):
   XX=            -16.9503   YY=            -21.2458   ZZ=            -26.5718
   XY=             -1.5717   XZ=             -0.0000   YZ=             -0.0000

 9.061533\MP4SDQ=-229.0703621\CCSD=-229.0725745\CCSD(T)=-229.1055417\S2
 Normal termination of Gaussian 09 at Mon Oct  9 19:58:35 2017.
