 Gaussian 09, Revision E.01,
 Gaussian 09:  ES64L-G09RevE.01 30-Nov-2015

 -----------------------------------
 #p ccsd(t,maxcyc=200)/6-311++G(d,p)
 -----------------------------------

 -------------
 ccsd(t) iener
 -------------
 Symbolic Z-matrix:
 Charge =  0 Multiplicity = 1

                         Standard orientation:
 ---------------------------------------------------------------------
 Center     Atomic      Atomic             Coordinates (Angstroms)
 Number     Number       Type             X           Y           Z
 ---------------------------------------------------------------------
      1          8           0       -0.317338   -2.091086   -0.000000
      2          6           0       -0.442913    0.294422    0.000000
      3          6           0        0.245838    1.493263    0.641749
      4          6           0        0.245838    1.493263   -0.641749
      5          6           0        0.245838   -1.021647   -0.000000
      6          1           0       -1.530428    0.226917   -0.000000
      7          1           0        0.471677    1.951814    1.588268
      8          1           0        0.471677    1.951814   -1.588268
      9          1           0        1.358171   -0.957663   -0.000000
 ---------------------------------------------------------------------

 SCF Done:  E(RHF) =  -228.614139147     A.U. after   15 cycles
 E2 =    -0.7471316791D+00 EUMP2 =    -0.22936127082652D+03
 CCSD(T)
 CCSD(T)= -0.22942147266D+03

 The electronic state is 1-A'.
 Alpha  occ. eigenvalues --  -20.55153 -11.32932 -11.28128 -11.27896 -11.27184
 Alpha  occ. eigenvalues --   -1.38981  -1.19692  -0.92675  -0.79916  -0.78504
 Alpha  occ. eigenvalues --   -0.71915  -0.64548  -0.63300  -0.54257  -0.53396
 Alpha  occ. eigenvalues --   -0.44105  -0.43138  -0.38900
 Alpha virt. eigenvalues --    0.03491   0.04386   0.05946   0.06354   0.07761
 Alpha virt. eigenvalues --    0.10656   0.11775   0.12085   0.12995   0.14867
 Alpha virt. eigenvalues --    0.15711   0.15990   0.17778   0.17799   0.18494

 Mulliken charges:
               1
     1  O   -0.333469
     2  C    0.306208
     3  C   -0.289337
     4  C   -0.289337
     5  C   -0.147071
     6  H    0.205398
     7  H    0.218596
     8  H    0.218596
     9  H    0.110416
 Sum of Mulliken charges =  -0.00000

 Dipole moment (field-independent basis, Debye):
    X=              1.3307    Y=              4.0972    Z=              0.0000  Tot=              4.3079
 Quadrupole moment (field-independent basis, Debye-Ang):
   XX=            -29.3937   YY=            -36.1880   ZZ=            -25.9715
   XY=             -1.5960   XZ=              0.0000   YZ=              0.0000

 55\MP4SDQ=-229.3886998\CCSD=-229.3871658\CCSD(T)=-229.4214727\RMSD=3.3
 Normal termination of Gaussian 09 at Mon Oct  9 17:03:24 2017.
