 Gaussian 09, Revision E.01,
 Gaussian 09:  ES64L-G09RevE.01 30-Nov-2015

 -----------------------------------
 #p ccsd(t,maxcyc=200)/6-311++G(d,p)
 -----------------------------------

 -------------
 ccsd(t) iener
 -------------
 Symbolic Z-matrix:
 Charge =  1 Multiplicity = 4

                         Standard orientation:
 ---------------------------------------------------------------------
 Center     Atomic      Atomic             Coordinates (Angstroms)
 Number     Number       Type             X           Y           Z
 ---------------------------------------------------------------------
      1          6           0        0.384749    0.225840   -0.000000
      2          1           0        1.350582    0.768257   -0.000000
      3          6           0       -0.832747    1.177428   -0.000000
      4          1           0       -0.755425    1.802959    0.893171
      5          1           0       -0.755425    1.802959   -0.893171
      6          1           0       -1.768739    0.620843   -0.000000
      7          6           0        0.384749   -1.117885    0.682723
      8          6           0        0.384749   -1.117885   -0.682723
 ---------------------------------------------------------------------

 SCF Done:  E(UHF) =  -153.279808728     A.U. after   19 cycles
 E2 =    -0.4734680754D+00 EUMP2 =    -0.15375327680392D+03
 CCSD(T)
 CCSD(T)= -0.15382453235D+03

 The electronic state is 4-A".
 Alpha  occ. eigenvalues --  -11.64386 -11.64210 -11.55011 -11.44806  -1.52145
 Alpha  occ. eigenvalues --   -1.22485  -1.05393  -1.02910  -0.91164  -0.85605
 Alpha  occ. eigenvalues --   -0.79802  -0.78956  -0.74840  -0.68780  -0.66982
 Alpha virt. eigenvalues --   -0.19165  -0.09021  -0.07212  -0.06225  -0.06189
 Alpha virt. eigenvalues --   -0.03582  -0.02786  -0.02470  -0.01582  -0.00903
 Alpha virt. eigenvalues --    0.01392   0.01427   0.02708   0.03416   0.04647

  Beta  occ. eigenvalues --  -11.60234 -11.60143 -11.54787 -11.44512  -1.43113
  Beta  occ. eigenvalues --   -1.18822  -0.99079  -0.83266  -0.83258  -0.76281
  Beta  occ. eigenvalues --   -0.73723  -0.73118
  Beta virt. eigenvalues --   -0.25421  -0.24676  -0.18989  -0.08263  -0.06684
  Beta virt. eigenvalues --   -0.06613  -0.05360  -0.05299  -0.03187  -0.02099
  Beta virt. eigenvalues --   -0.01697  -0.00765   0.02147   0.02244   0.02855

 Mulliken charges and spin densities:
               1          2
     1  C    0.149311  -0.040582
     2  H    0.293105   0.092802
     3  C   -0.662586   0.118384
     4  H    0.209889   0.008556
     5  H    0.209889   0.008556
     6  H    0.168717   0.004715
     7  C    0.315838   1.403784
     8  C    0.315838   1.403784
 Sum of Mulliken charges =   1.00000   3.00000

 Dipole moment (field-independent basis, Debye):
    X=              1.0440    Y=             -0.9646    Z=             -0.0000  Tot=              1.4214
 Quadrupole moment (field-independent basis, Debye-Ang):
   XX=            -18.2649   YY=            -15.5248   ZZ=            -19.7917
   XY=             -1.6807   XZ=             -0.0000   YZ=             -0.0000

 \PMP3-0=-153.7885842\MP4SDQ=-153.7956231\CCSD=-153.7995744\CCSD(T)=-15
 Normal termination of Gaussian 09 at Tue Oct 10 15:41:50 2017.
