 Gaussian 09, Revision E.01,
 Gaussian 09:  ES64L-G09RevE.01 30-Nov-2015

 -----------------------------------
 #p ccsd(t,maxcyc=200)/6-311++G(d,p)
 -----------------------------------

 -------------
 ccsd(t) iener
 -------------
 Symbolic Z-matrix:
 Charge =  1 Multiplicity = 2

                         Standard orientation:
 ---------------------------------------------------------------------
 Center     Atomic      Atomic             Coordinates (Angstroms)
 Number     Number       Type             X           Y           Z
 ---------------------------------------------------------------------
      1          6           0        0.131338   -0.126345    0.000000
      2          6           0       -1.014264    0.705266   -0.000001
      3          1           0       -2.050106    0.335057   -0.000005
      4          1           0       -0.922991    1.794895    0.000002
      5          6           0       -0.831228   -1.085460   -0.000005
      6          6           0        1.523706    0.094578    0.000004
      7          1           0        1.925141    1.099592    0.000008
      8          1           0        2.190649   -0.757775    0.000004
 ---------------------------------------------------------------------

 SCF Done:  E(UHF) =  -153.349636424     A.U. after   27 cycles
 E2 =    -0.4811691392D+00 EUMP2 =    -0.15383080556291D+03
 CCSD(T)
 CCSD(T)= -0.15390328049D+03

 The electronic state is 2-A.
 Alpha  occ. eigenvalues --  -11.61980 -11.57015 -11.53777 -11.49497  -1.45227
 Alpha  occ. eigenvalues --   -1.24354  -1.12277  -0.96990  -0.88215  -0.83508
 Alpha  occ. eigenvalues --   -0.80403  -0.76534  -0.71173  -0.59463
 Alpha virt. eigenvalues --   -0.20812  -0.14560  -0.09504  -0.07089  -0.06508
 Alpha virt. eigenvalues --   -0.05361  -0.04062  -0.02954  -0.01323  -0.00820
 Alpha virt. eigenvalues --    0.00075   0.00971   0.01993   0.02369   0.04069

  Beta  occ. eigenvalues --  -11.62139 -11.55931 -11.54473 -11.47406  -1.44893
  Beta  occ. eigenvalues --   -1.17424  -1.10719  -0.95745  -0.87234  -0.82568
  Beta  occ. eigenvalues --   -0.79816  -0.73159  -0.71259
  Beta virt. eigenvalues --   -0.17622  -0.16167  -0.14514  -0.09332  -0.06949
  Beta virt. eigenvalues --   -0.06251  -0.05354  -0.03978  -0.02806  -0.01136
  Beta virt. eigenvalues --    0.01176   0.01565   0.01754   0.02427   0.04290

 Mulliken charges and spin densities:
               1          2
     1  C    0.941929  -0.376955
     2  C   -0.642203   0.590235
     3  H    0.343234  -0.038492
     4  H    0.319654  -0.034393
     5  C    0.055065  -0.114998
     6  C   -0.493266   1.162380
     7  H    0.235535  -0.095986
     8  H    0.240054  -0.091792
 Sum of Mulliken charges =   1.00000   1.00000

 Dipole moment (field-independent basis, Debye):
    X=             -0.4321    Y=              1.6345    Z=              0.0000  Tot=              1.6907
 Quadrupole moment (field-independent basis, Debye-Ang):
   XX=            -12.3476   YY=            -17.1464   ZZ=            -23.3759
   XY=             -3.0851   XZ=              0.0000   YZ=              0.0000

 Normal termination of Gaussian 09 at Tue Oct 10 14:32:29 2017.
