 Gaussian 09, Revision E.01,
 Gaussian 09:  ES64L-G09RevE.01 30-Nov-2015

 -----------------------------------
 #p ccsd(t,maxcyc=200)/6-311++G(d,p)
 -----------------------------------

 -------------
 ccsd(t) iener
 -------------
 Symbolic Z-matrix:
 Charge =  1 Multiplicity = 2

                         Standard orientation:
 ---------------------------------------------------------------------
 Center     Atomic      Atomic             Coordinates (Angstroms)
 Number     Number       Type             X           Y           Z
 ---------------------------------------------------------------------
      1          8           0        2.049345   -0.673023   -0.000025
      2          6           0       -2.426176   -0.157916    0.000303
      3          6           0       -1.023313    0.093418    0.000409
      4          6           0        0.172513    0.381673    0.000178
      5          6           0        1.579063    0.460371   -0.000138
      6          1           0       -2.720731   -0.673330    0.922521
      7          1           0       -2.701968   -0.768917   -0.868308
      8          1           0       -2.977196    0.792307   -0.058140
      9          1           0        2.192611    1.368847   -0.000390
 ---------------------------------------------------------------------

 SCF Done:  E(UHF) =  -228.319834513     A.U. after   36 cycles
 E2 =    -0.6839098433D+00 EUMP2 =    -0.22900374435589D+03
 CCSD(T)
 CCSD(T)= -0.22908230390D+03

 The electronic state is 2-A.
 Alpha  occ. eigenvalues --  -20.97734 -11.65064 -11.52066 -11.47100 -11.43466
 Alpha  occ. eigenvalues --   -1.81278  -1.31304  -1.22964  -1.14505  -1.08010
 Alpha  occ. eigenvalues --   -0.99842  -0.93928  -0.87126  -0.83440  -0.78103
 Alpha  occ. eigenvalues --   -0.77709  -0.62970  -0.61750
 Alpha virt. eigenvalues --   -0.18924  -0.09248  -0.07365  -0.06276  -0.04563
 Alpha virt. eigenvalues --   -0.03909  -0.02779  -0.02752  -0.01603   0.00818
 Alpha virt. eigenvalues --    0.01924   0.02096   0.03357   0.04004   0.04268

  Beta  occ. eigenvalues --  -20.92938 -11.65506 -11.52440 -11.46514 -11.43421
  Beta  occ. eigenvalues --   -1.68078  -1.30551  -1.20641  -1.12761  -0.97604
  Beta  occ. eigenvalues --   -0.95120  -0.86352  -0.84301  -0.78539  -0.78003
  Beta  occ. eigenvalues --   -0.62000  -0.61461
  Beta virt. eigenvalues --   -0.20036  -0.18465  -0.09172  -0.07302  -0.06017
  Beta virt. eigenvalues --   -0.04510  -0.03745  -0.02738  -0.02568  -0.00384
  Beta virt. eigenvalues --    0.00917   0.02048   0.02378   0.03569   0.03719

 Mulliken charges and spin densities:
               1          2
     1  O    0.235296   1.086921
     2  C   -0.806320   0.020878
     3  C    0.706646  -0.196252
     4  C    0.641058   0.199106
     5  C   -0.728343  -0.155952
     6  H    0.215012  -0.009616
     7  H    0.214564  -0.008226
     8  H    0.220256   0.000991
     9  H    0.301831   0.062150
 Sum of Mulliken charges =   1.00000   1.00000

 Dipole moment (field-independent basis, Debye):
    X=              1.2786    Y=              1.6677    Z=              0.0019  Tot=              2.1015
 Quadrupole moment (field-independent basis, Debye-Ang):
   XX=             -2.1522   YY=            -24.6050   ZZ=            -26.6800
   XY=              5.8850   XZ=             -0.0131   YZ=             -0.0030

 21295\CCSD=-229.0466746\CCSD(T)=-229.0823039\S2=0.825928\S2-1=0.804266
 Normal termination of Gaussian 09 at Mon Oct  9 23:44:57 2017.
