 Gaussian 09, Revision E.01,
 Gaussian 09:  ES64L-G09RevE.01 30-Nov-2015

 -----------------------------------
 #p ccsd(t,maxcyc=200)/6-311++G(d,p)
 -----------------------------------

 -------------
 ccsd(t) iener
 -------------
 Symbolic Z-matrix:
 Charge =  1 Multiplicity = 2

                         Standard orientation:
 ---------------------------------------------------------------------
 Center     Atomic      Atomic             Coordinates (Angstroms)
 Number     Number       Type             X           Y           Z
 ---------------------------------------------------------------------
      1          6           0        0.657426    0.513611   -0.006305
      2          6           0        1.646823   -0.257965   -0.128692
      3          6           0       -1.672937   -0.110963   -0.618938
      4          6           0       -0.817327   -0.117567    0.461720
      5          1           0        2.392552   -1.027501   -0.203713
      6          1           0        0.603817    1.590763   -0.128376
      7          1           0       -0.726047   -1.185187    0.747323
      8          1           0       -1.154232    0.459236    1.338058
 ---------------------------------------------------------------------

 SCF Done:  E(UHF) =  -153.293257403     A.U. after   45 cycles
 E2 =    -0.4737980877D+00 EUMP2 =    -0.15376705549105D+03
 CCSD(T)
 CCSD(T)= -0.15385392441D+03

 The electronic state is 2-A.
 Alpha  occ. eigenvalues --  -11.65184 -11.51273 -11.48780 -11.48437  -1.36769
 Alpha  occ. eigenvalues --   -1.27302  -1.01362  -0.97840  -0.89442  -0.83316
 Alpha  occ. eigenvalues --   -0.80694  -0.75027  -0.63766  -0.57275
 Alpha virt. eigenvalues --   -0.22103  -0.20181  -0.09228  -0.07482  -0.06786
 Alpha virt. eigenvalues --   -0.05646  -0.04904  -0.03341  -0.01785  -0.00872
 Alpha virt. eigenvalues --   -0.00132   0.00704   0.02136   0.02945   0.03472

  Beta  occ. eigenvalues --  -11.64758 -11.50897 -11.50081 -11.45613  -1.35541
  Beta  occ. eigenvalues --   -1.23116  -0.98810  -0.95860  -0.88409  -0.82897
  Beta  occ. eigenvalues --   -0.79195  -0.74021  -0.63010
  Beta virt. eigenvalues --   -0.19656  -0.19211  -0.10966  -0.07832  -0.07298
  Beta virt. eigenvalues --   -0.06487  -0.05124  -0.04572  -0.03389  -0.01650
  Beta virt. eigenvalues --   -0.00151   0.01057   0.01750   0.02454   0.03357

 Mulliken charges and spin densities:
               1          2
     1  C   -0.068029  -0.690754
     2  C   -0.115950   1.412063
     3  C    0.553846   0.245480
     4  C   -0.564536   0.089458
     5  H    0.329187  -0.096672
     6  H    0.275992   0.065299
     7  H    0.286771  -0.004343
     8  H    0.302718  -0.020532
 Sum of Mulliken charges =   1.00000   1.00000

 Dipole moment (field-independent basis, Debye):
    X=             -1.1725    Y=             -0.7176    Z=              1.0042  Tot=              1.7024
 Quadrupole moment (field-independent basis, Debye-Ang):
   XX=            -11.8289   YY=            -17.1786   ZZ=            -22.1368
   XY=             -2.2048   XZ=             -2.5130   YZ=             -0.1211

 53.8167436\MP4SDQ=-153.8170233\CCSD=-153.8275712\CCSD(T)=-153.8539244\
 Normal termination of Gaussian 09 at Tue Oct 10 14:45:08 2017.
