 Gaussian 09, Revision E.01,
 Gaussian 09:  ES64L-G09RevE.01 30-Nov-2015

 -----------------------------------
 #p ccsd(t,maxcyc=200)/6-311++G(d,p)
 -----------------------------------

 -------------
 ccsd(t) iener
 -------------
 Symbolic Z-matrix:
 Charge =  0 Multiplicity = 3

                         Standard orientation:
 ---------------------------------------------------------------------
 Center     Atomic      Atomic             Coordinates (Angstroms)
 Number     Number       Type             X           Y           Z
 ---------------------------------------------------------------------
      1          6           0        0.096307   -0.174525   -0.003211
      2          6           0        1.534237    0.101708   -0.004230
      3          1           0        1.831520    0.607809    0.920524
      4          1           0        2.098981   -0.830885   -0.090897
      5          1           0        1.806526    0.753139   -0.840887
      6          6           0       -1.036331   -0.817454   -0.044499
      7          6           0       -1.274441    0.576319    0.141048
      8          1           0       -1.655658    1.353655   -0.523391
 ---------------------------------------------------------------------

 SCF Done:  E(UHF) =  -153.628087408     A.U. after   27 cycles
 E2 =    -0.5208607206D+00 EUMP2 =    -0.15414894812901D+03
 CCSD(T)
 CCSD(T)= -0.15420974960D+03

 The electronic state is 3-A.
 Alpha  occ. eigenvalues --  -11.28098 -11.27800 -11.27575 -11.25869  -1.20064
 Alpha  occ. eigenvalues --   -1.01632  -0.82302  -0.70241  -0.63027  -0.60916
 Alpha  occ. eigenvalues --   -0.57417  -0.55014  -0.49648  -0.37859  -0.30584
 Alpha virt. eigenvalues --    0.03872   0.05785   0.07056   0.07320   0.10280
 Alpha virt. eigenvalues --    0.10779   0.11900   0.13053   0.13777   0.15508
 Alpha virt. eigenvalues --    0.16623   0.17671   0.18424   0.18620   0.18972

  Beta  occ. eigenvalues --  -11.27209 -11.26006 -11.25944 -11.24696  -1.15748
  Beta  occ. eigenvalues --   -1.00783  -0.73837  -0.66851  -0.60402  -0.59592
  Beta  occ. eigenvalues --   -0.51301  -0.45684  -0.40868
  Beta virt. eigenvalues --    0.03123   0.05199   0.05896   0.06916   0.07720
  Beta virt. eigenvalues --    0.10116   0.10862   0.11569   0.12969   0.14061
  Beta virt. eigenvalues --    0.15476   0.16780   0.17306   0.18160   0.18790

 Mulliken charges and spin densities:
               1          2
     1  C    0.434181   0.687467
     2  C   -0.671304  -0.016881
     3  H    0.160255   0.023521
     4  H    0.166216   0.019954
     5  H    0.154828   0.008531
     6  C   -0.118387   0.006918
     7  C   -0.232578   1.281386
     8  H    0.106790  -0.010896
 Sum of Mulliken charges =  -0.00000   2.00000

 Dipole moment (field-independent basis, Debye):
    X=              2.1383    Y=              0.9736    Z=             -0.6314  Tot=              2.4329
 Quadrupole moment (field-independent basis, Debye-Ang):
   XX=            -24.0962   YY=            -25.2056   ZZ=            -25.5297
   XY=             -1.1905   XZ=              1.1129   YZ=             -0.9327

 -0=-154.1776868\MP4SDQ=-154.1824933\CCSD=-154.1836461\CCSD(T)=-154.209
 Normal termination of Gaussian 09 at Tue Oct 10 12:47:31 2017.
