 Gaussian 09, Revision E.01,
 Gaussian 09:  ES64L-G09RevE.01 30-Nov-2015

 -----------------------------------
 #p ccsd(t,maxcyc=200)/6-311++G(d,p)
 -----------------------------------

 -------------
 ccsd(t) iener
 -------------
 Symbolic Z-matrix:
 Charge =  1 Multiplicity = 2

                         Standard orientation:
 ---------------------------------------------------------------------
 Center     Atomic      Atomic             Coordinates (Angstroms)
 Number     Number       Type             X           Y           Z
 ---------------------------------------------------------------------
      1          6           0        1.525502    0.079265   -0.000063
      2          1           0        1.823068    1.128134   -0.003169
      3          1           0        1.934094   -0.433855   -0.879747
      4          1           0        1.932988   -0.427912    0.883636
      5          6           0        0.082283   -0.084568   -0.000086
      6          6           0       -1.076230   -0.809901    0.000066
      7          6           0       -1.190623    0.526969   -0.000030
      8          1           0       -1.735743    1.463044   -0.000055
 ---------------------------------------------------------------------

 SCF Done:  E(UHF) =  -153.430143767     A.U. after   22 cycles
 E2 =    -0.4942418489D+00 EUMP2 =    -0.15392438561626D+03
 CCSD(T)
 CCSD(T)= -0.15398347809D+03

 The electronic state is 2-A.
 Alpha  occ. eigenvalues --  -11.58931 -11.57964 -11.56505 -11.45505  -1.51793
 Alpha  occ. eigenvalues --   -1.24200  -1.05604  -0.97834  -0.89750  -0.81667
 Alpha  occ. eigenvalues --   -0.81529  -0.77783  -0.72755  -0.68462
 Alpha virt. eigenvalues --   -0.12388  -0.11245  -0.09397  -0.07319  -0.05998
 Alpha virt. eigenvalues --   -0.05285  -0.03298  -0.02963  -0.01887  -0.01635
 Alpha virt. eigenvalues --    0.01283   0.01430   0.02363   0.03065   0.04594

  Beta  occ. eigenvalues --  -11.57734 -11.56414 -11.55742 -11.45529  -1.49732
  Beta  occ. eigenvalues --   -1.23808  -1.03861  -0.92803  -0.84568  -0.81514
  Beta  occ. eigenvalues --   -0.77802  -0.74149  -0.71753
  Beta virt. eigenvalues --   -0.20265  -0.12322  -0.08980  -0.08248  -0.07175
  Beta virt. eigenvalues --   -0.05469  -0.05189  -0.03196  -0.02088  -0.01781
  Beta virt. eigenvalues --   -0.01668   0.01788   0.02155   0.02413   0.03574

 Mulliken charges and spin densities:
               1          2
     1  C   -0.777784  -0.027404
     2  H    0.225528   0.003194
     3  H    0.221333   0.003700
     4  H    0.221394   0.003598
     5  C    0.504508   0.151658
     6  C    0.335667   0.734475
     7  C   -0.046970   0.129823
     8  H    0.316325   0.000955
 Sum of Mulliken charges =   1.00000   1.00000

 Dipole moment (field-independent basis, Debye):
    X=             -0.9334    Y=              0.9504    Z=              0.0008  Tot=              1.3321
 Quadrupole moment (field-independent basis, Debye-Ang):
   XX=            -11.4844   YY=            -17.6097   ZZ=            -20.9438
   XY=             -2.2173   XZ=              0.0016   YZ=             -0.0001

 MP3-0=-153.9536415\MP4SDQ=-153.9576713\CCSD=-153.9589455\CCSD(T)=-153.
 Normal termination of Gaussian 09 at Tue Oct 10 14:27:06 2017.
