 Gaussian 09, Revision E.01,
 Gaussian 09:  ES64L-G09RevE.01 30-Nov-2015

 -----------------------------------
 #p ccsd(t,maxcyc=200)/6-311++G(d,p)
 -----------------------------------

 -------------
 ccsd(t) iener
 -------------
 Symbolic Z-matrix:
 Charge =  1 Multiplicity = 4

                         Standard orientation:
 ---------------------------------------------------------------------
 Center     Atomic      Atomic             Coordinates (Angstroms)
 Number     Number       Type             X           Y           Z
 ---------------------------------------------------------------------
      1          6           0       -0.000000   -0.000000   -1.087475
      2          1           0       -0.000000   -0.000000   -2.166104
      3          6           0       -0.000000    0.980001    0.000000
      4          1           0        0.723697    1.816098    0.000000
      5          6           0       -0.000000   -0.980001    0.000000
      6          6           0       -0.000000   -0.000000    1.087475
      7          1           0       -0.723697   -1.816098    0.000000
      8          1           0       -0.000000   -0.000000    2.166104
 ---------------------------------------------------------------------

 SCF Done:  E(UHF) =  -153.345358164     A.U. after   16 cycles
 E2 =    -0.4664047510D+00 EUMP2 =    -0.15381176291501D+03
 CCSD(T)
 CCSD(T)= -0.15388264043D+03

 The electronic state is 4-AU.
 Alpha  occ. eigenvalues --  -11.54393 -11.54387 -11.53368 -11.53355  -1.48558
 Alpha  occ. eigenvalues --   -1.18422  -1.16344  -0.97816  -0.94607  -0.87142
 Alpha  occ. eigenvalues --   -0.82583  -0.81528  -0.71002  -0.61089  -0.57920
 Alpha virt. eigenvalues --   -0.14351  -0.09174  -0.07663  -0.07465  -0.05187
 Alpha virt. eigenvalues --   -0.04783  -0.01998  -0.01923  -0.00766  -0.00055
 Alpha virt. eigenvalues --    0.00710   0.01249   0.04385   0.04997   0.05144

  Beta  occ. eigenvalues --  -11.52743 -11.52730 -11.51640 -11.51634  -1.39398
  Beta  occ. eigenvalues --   -1.10171  -1.07609  -0.94648  -0.88891  -0.79818
  Beta  occ. eigenvalues --   -0.78381  -0.74696
  Beta virt. eigenvalues --   -0.25401  -0.14176  -0.12686  -0.08766  -0.07353
  Beta virt. eigenvalues --   -0.07210  -0.04436  -0.03999  -0.01665  -0.00925
  Beta virt. eigenvalues --    0.00776   0.01230   0.01293   0.02107   0.02647

 Mulliken charges and spin densities:
               1          2
     1  C    0.267352   1.075779
     2  H    0.327192  -0.037192
     3  C   -0.324353   0.448356
     4  H    0.229810   0.013057
     5  C   -0.324353   0.448356
     6  C    0.267352   1.075779
     7  H    0.229810   0.013057
     8  H    0.327192  -0.037192
 Sum of Mulliken charges =   1.00000   3.00000

 Dipole moment (field-independent basis, Debye):
    X=             -0.0000    Y=             -0.0000    Z=              0.0000  Tot=              0.0000
 Quadrupole moment (field-independent basis, Debye-Ang):
   XX=            -22.0389   YY=            -16.0011   ZZ=            -12.7818
   XY=              2.7250   XZ=             -0.0000   YZ=              0.0000

 -0=-153.8510145\MP4SDQ=-153.8557381\CCSD=-153.8600032\CCSD(T)=-153.882
 Normal termination of Gaussian 09 at Tue Oct 10 15:00:02 2017.
