 Gaussian 09, Revision E.01,
 Gaussian 09:  ES64L-G09RevE.01 30-Nov-2015

 -----------------------------------
 #p ccsd(t,maxcyc=200)/6-311++G(d,p)
 -----------------------------------

 -------------
 ccsd(t) iener
 -------------
 Symbolic Z-matrix:
 Charge =  1 Multiplicity = 2

                         Standard orientation:
 ---------------------------------------------------------------------
 Center     Atomic      Atomic             Coordinates (Angstroms)
 Number     Number       Type             X           Y           Z
 ---------------------------------------------------------------------
      1          6           0        1.129784   -0.128312    0.144927
      2          1           0        2.208839   -0.160889    0.146534
      3          6           0        0.117439    0.818928   -0.001415
      4          1           0        0.170719    1.789736   -0.500662
      5          6           0       -1.134806   -0.068491    0.100551
      6          1           0       -1.918922    0.076138   -0.639833
      7          1           0       -1.494890   -0.224059    1.115588
      8          6           0        0.059958   -0.868945   -0.264334
 ---------------------------------------------------------------------

 SCF Done:  E(UHF) =  -153.420852980     A.U. after   26 cycles
 E2 =    -0.5003068383D+00 EUMP2 =    -0.15392115981810D+03
 CCSD(T)
 CCSD(T)= -0.15398375403D+03

 The electronic state is 2-A.
 Alpha  occ. eigenvalues --  -11.58622 -11.56785 -11.52894 -11.51086  -1.50944
 Alpha  occ. eigenvalues --   -1.19747  -1.10679  -0.98226  -0.93148  -0.83908
 Alpha  occ. eigenvalues --   -0.83165  -0.79738  -0.68091  -0.65724
 Alpha virt. eigenvalues --   -0.14132  -0.11037  -0.08918  -0.07244  -0.06995
 Alpha virt. eigenvalues --   -0.06266  -0.03405  -0.01861  -0.01714  -0.00702
 Alpha virt. eigenvalues --    0.00084   0.01790   0.03066   0.04378   0.04592

  Beta  occ. eigenvalues --  -11.56020 -11.55763 -11.53533 -11.51140  -1.48730
  Beta  occ. eigenvalues --   -1.20140  -1.05827  -0.98250  -0.86841  -0.82336
  Beta  occ. eigenvalues --   -0.81790  -0.76812  -0.67390
  Beta virt. eigenvalues --   -0.18069  -0.10560  -0.09868  -0.08495  -0.07205
  Beta virt. eigenvalues --   -0.06516  -0.05601  -0.02789  -0.01749  -0.01529
  Beta virt. eigenvalues --   -0.00785   0.01353   0.01869   0.03623   0.04557

 Mulliken charges and spin densities:
               1          2
     1  C   -0.220593  -0.273416
     2  H    0.292176   0.021068
     3  C    0.215191   0.326736
     4  H    0.294082   0.018547
     5  C   -0.591813  -0.015745
     6  H    0.231602   0.014227
     7  H    0.244780   0.017634
     8  C    0.534577   0.890948
 Sum of Mulliken charges =   1.00000   1.00000

 Dipole moment (field-independent basis, Debye):
    X=              0.4202    Y=              0.8743    Z=             -0.1661  Tot=              0.9841
 Quadrupole moment (field-independent basis, Debye-Ang):
   XX=            -12.4778   YY=            -18.0085   ZZ=            -20.9957
   XY=             -0.0464   XZ=              0.1232   YZ=             -1.0912

 -0=-153.9533351\MP4SDQ=-153.9552791\CCSD=-153.9579803\CCSD(T)=-153.983
 Normal termination of Gaussian 09 at Tue Oct 10 13:28:56 2017.
