 Gaussian 09, Revision E.01,
 Gaussian 09:  ES64L-G09RevE.01 30-Nov-2015

 -----------------------------------
 #p ccsd(t,maxcyc=200)/6-311++G(d,p)
 -----------------------------------

 -------------
 ccsd(t) iener
 -------------
 Symbolic Z-matrix:
 Charge =  0 Multiplicity = 1

                         Standard orientation:
 ---------------------------------------------------------------------
 Center     Atomic      Atomic             Coordinates (Angstroms)
 Number     Number       Type             X           Y           Z
 ---------------------------------------------------------------------
      1          6           0       -0.104004    1.082118   -0.000000
      2          6           0       -0.104004   -0.186533    0.803302
      3          1           0        0.828017    1.637116   -0.000000
      4          1           0       -0.990892    1.718762   -0.000000
      5          1           0       -0.812875   -0.434437    1.589022
      6          6           0        0.610115   -1.123553    0.000000
      7          6           0       -0.104004   -0.186533   -0.803302
      8          1           0       -0.812875   -0.434437   -1.589022
 ---------------------------------------------------------------------

 SCF Done:  E(RHF) =  -153.667604233     A.U. after   16 cycles
 E2 =    -0.5452823468D+00 EUMP2 =    -0.15421288658008D+03
 CCSD(T)
 CCSD(T)= -0.15427012357D+03

 The electronic state is 1-A'.
 Alpha  occ. eigenvalues --  -11.28890 -11.28846 -11.27482 -11.24654  -1.24210
 Alpha  occ. eigenvalues --   -0.94169  -0.84342  -0.73959  -0.67306  -0.60503
 Alpha  occ. eigenvalues --   -0.50982  -0.47425  -0.44214  -0.35634
 Alpha virt. eigenvalues --    0.03635   0.05329   0.05600   0.06502   0.10037
 Alpha virt. eigenvalues --    0.10884   0.11999   0.12989   0.13605   0.15061
 Alpha virt. eigenvalues --    0.16116   0.18176   0.18377   0.18640   0.19606

 Mulliken charges:
               1
     1  C   -0.544014
     2  C    0.089570
     3  H    0.157696
     4  H    0.120104
     5  H    0.177315
     6  C   -0.267557
     7  C    0.089570
     8  H    0.177315
 Sum of Mulliken charges =  -0.00000

 Dipole moment (field-independent basis, Debye):
    X=             -2.2805    Y=              3.0303    Z=             -0.0000  Tot=              3.7925
 Quadrupole moment (field-independent basis, Debye-Ang):
   XX=            -24.9141   YY=            -29.2917   ZZ=            -23.0030
   XY=              3.1571   XZ=              0.0000   YZ=              0.0000

 MP4SDQ=-154.2428007\CCSD=-154.2428871\CCSD(T)=-154.2701236\RMSD=9.577e
 Normal termination of Gaussian 09 at Tue Oct 10 11:56:38 2017.
