 Gaussian 09, Revision E.01,
 Gaussian 09:  ES64L-G09RevE.01 30-Nov-2015

 -----------------------------------
 #p ccsd(t,maxcyc=200)/6-311++G(d,p)
 -----------------------------------

 -------------
 ccsd(t) iener
 -------------
 Symbolic Z-matrix:
 Charge =  0 Multiplicity = 1

                         Standard orientation:
 ---------------------------------------------------------------------
 Center     Atomic      Atomic             Coordinates (Angstroms)
 Number     Number       Type             X           Y           Z
 ---------------------------------------------------------------------
      1          6           0        1.864874    0.005084   -0.004880
      2          1           0        2.306544    0.917057   -0.419409
      3          1           0        2.283860   -0.872506   -0.508844
      4          1           0        2.179756   -0.056399    1.045725
      5          6           0        0.422422    0.013186   -0.016046
      6          6           0       -0.816366    0.017634   -0.004151
      7          6           0       -2.147048   -0.163587    0.004280
      8          1           0       -2.713450    0.777948    0.007313
 ---------------------------------------------------------------------

 SCF Done:  E(RHF) =  -153.659772646     A.U. after   17 cycles
 E2 =    -0.5258549159D+00 EUMP2 =    -0.15418562756167D+03
 CCSD(T)
 CCSD(T)= -0.15424996862D+03

 The electronic state is 1-A.
 Alpha  occ. eigenvalues --  -11.27942 -11.27320 -11.26678 -11.24589  -1.09677
 Alpha  occ. eigenvalues --   -1.01965  -0.90504  -0.67243  -0.62624  -0.61266
 Alpha  occ. eigenvalues --   -0.60676  -0.46027  -0.42415  -0.32295
 Alpha virt. eigenvalues --    0.02962   0.03449   0.05927   0.06857   0.07061
 Alpha virt. eigenvalues --    0.10034   0.12488   0.13142   0.14263   0.14822
 Alpha virt. eigenvalues --    0.15141   0.17316   0.17789   0.18809   0.19316

 Mulliken charges:
               1
     1  C   -0.713934
     2  H    0.161231
     3  H    0.165154
     4  H    0.168848
     5  C    0.366129
     6  C    0.292778
     7  C   -0.535539
     8  H    0.095332
 Sum of Mulliken charges =   0.00000

 Dipole moment (field-independent basis, Debye):
    X=              3.1662    Y=              1.6366    Z=              0.1093  Tot=              3.5658
 Quadrupole moment (field-independent basis, Debye-Ang):
   XX=            -23.9207   YY=            -26.8173   ZZ=            -24.2902
   XY=             -4.9185   XZ=              0.2408   YZ=              0.0152

 Normal termination of Gaussian 09 at Tue Oct 10 12:06:14 2017.
