 Gaussian 09, Revision E.01,
 Gaussian 09:  ES64L-G09RevE.01 30-Nov-2015

 -----------------------------------
 #p ccsd(t,maxcyc=200)/6-311++G(d,p)
 -----------------------------------

 -------------
 ccsd(t) iener
 -------------
 Symbolic Z-matrix:
 Charge =  0 Multiplicity = 1

                         Standard orientation:
 ---------------------------------------------------------------------
 Center     Atomic      Atomic             Coordinates (Angstroms)
 Number     Number       Type             X           Y           Z
 ---------------------------------------------------------------------
      1          6           0        0.000000    0.666782    0.788625
      2          1           0        0.000000    1.433282    1.551289
      3          6           0        0.000000    0.666782   -0.788625
      4          1           0        0.000000    1.433282   -1.551289
      5          6           0       -0.000000   -0.666782    0.788625
      6          6           0       -0.000000   -0.666782   -0.788625
      7          1           0       -0.000000   -1.433282   -1.551289
      8          1           0       -0.000000   -1.433282    1.551289
 ---------------------------------------------------------------------

 SCF Done:  E(RHF) =  -153.680445041     A.U. after   11 cycles
 E2 =    -0.5531081521D+00 EUMP2 =    -0.15423355319289D+03
 CCSD(T)
 CCSD(T)= -0.15429532025D+03

 The electronic state is 1-AG.
 Alpha  occ. eigenvalues --  -11.24681 -11.24636 -11.24511 -11.24465  -1.16149
 Alpha  occ. eigenvalues --   -0.91897  -0.82433  -0.70236  -0.69768  -0.56031
 Alpha  occ. eigenvalues --   -0.54012  -0.47602  -0.45404  -0.28093
 Alpha virt. eigenvalues --    0.04427   0.05042   0.05106   0.06686   0.06721
 Alpha virt. eigenvalues --    0.12572   0.13587   0.15306   0.15314   0.15752
 Alpha virt. eigenvalues --    0.16275   0.16708   0.18878   0.19013   0.19026

 Mulliken charges:
               1
     1  C   -0.186023
     2  H    0.186023
     3  C   -0.186023
     4  H    0.186023
     5  C   -0.186023
     6  C   -0.186023
     7  H    0.186023
     8  H    0.186023
 Sum of Mulliken charges =   0.00000

 Dipole moment (field-independent basis, Debye):
    X=             -0.0000    Y=             -0.0000    Z=             -0.0000  Tot=              0.0000
 Quadrupole moment (field-independent basis, Debye-Ang):
   XX=            -27.9048   YY=            -20.7484   ZZ=            -22.5809
   XY=              0.0000   XZ=             -0.0000   YZ=             -0.0000

 154.2666685\CCSD(T)=-154.2953202\RMSD=3.285e-09\PG=D02H [SG(C4H4)]\\@
 Normal termination of Gaussian 09 at Tue Oct 10 11:55:14 2017.
