 Gaussian 09, Revision E.01,
 Gaussian 09:  ES64L-G09RevE.01 30-Nov-2015

 -----------------------------------
 #p ccsd(t,maxcyc=200)/6-311++G(d,p)
 -----------------------------------

 -------------
 ccsd(t) iener
 -------------
 Symbolic Z-matrix:
 Charge =  1 Multiplicity = 2

                         Standard orientation:
 ---------------------------------------------------------------------
 Center     Atomic      Atomic             Coordinates (Angstroms)
 Number     Number       Type             X           Y           Z
 ---------------------------------------------------------------------
      1          6           0        1.309723    1.064652   -0.000000
      2          1           0        1.513718    2.130494   -0.000000
      3          1           0        2.156368    0.384935   -0.000000
      4          6           0       -0.000000    0.598936    0.000000
      5          1           0       -0.820414    1.310172    0.000000
      6          6           0       -1.565690   -1.259790    0.000000
      7          6           0       -0.298871   -0.781725    0.000000
      8          1           0        0.479359   -1.558042   -0.000000
 ---------------------------------------------------------------------

 SCF Done:  E(UHF) =  -153.388896053     A.U. after   27 cycles
 E2 =    -0.4639052387D+00 EUMP2 =    -0.15385280129169D+03
 CCSD(T)
 CCSD(T)= -0.15392991658D+03

 The electronic state is 2-A".
 Alpha  occ. eigenvalues --  -11.58497 -11.54389 -11.53106 -11.51154  -1.38315
 Alpha  occ. eigenvalues --   -1.28377  -1.08010  -0.98835  -0.88578  -0.86028
 Alpha  occ. eigenvalues --   -0.78903  -0.73457  -0.70799  -0.63127
 Alpha virt. eigenvalues --   -0.17505  -0.17466  -0.09255  -0.07969  -0.06358
 Alpha virt. eigenvalues --   -0.05859  -0.04010  -0.03635  -0.01857  -0.01099
 Alpha virt. eigenvalues --    0.00061   0.01028   0.03331   0.03589   0.04838

  Beta  occ. eigenvalues --  -11.57439 -11.54454 -11.51855 -11.51331  -1.36775
  Beta  occ. eigenvalues --   -1.23013  -1.05830  -0.98229  -0.88090  -0.84749
  Beta  occ. eigenvalues --   -0.78670  -0.68977  -0.67023
  Beta virt. eigenvalues --   -0.25161  -0.16367  -0.09146  -0.08915  -0.07933
  Beta virt. eigenvalues --   -0.06224  -0.04504  -0.03581  -0.02074  -0.01759
  Beta virt. eigenvalues --   -0.00885   0.00983   0.01062   0.03437   0.03681

 Mulliken charges and spin densities:
               1          2
     1  C   -0.364901   0.716420
     2  H    0.254933  -0.056840
     3  H    0.229121  -0.052403
     4  C    0.264557  -0.091257
     5  H    0.290708  -0.000816
     6  C    0.426827   0.494976
     7  C   -0.396958  -0.015939
     8  H    0.295713   0.005858
 Sum of Mulliken charges =   1.00000   1.00000

 Dipole moment (field-independent basis, Debye):
    X=              2.1829    Y=              1.0683    Z=              0.0000  Tot=              2.4303
 Quadrupole moment (field-independent basis, Debye-Ang):
   XX=            -16.6436   YY=            -13.0290   ZZ=            -23.6932
   XY=              1.7908   XZ=             -0.0000   YZ=              0.0000

 SD=-153.9076407\CCSD(T)=-153.9299166\S2=0.880563\S2-1=0.837906\S2A=0.7
 Normal termination of Gaussian 09 at Tue Oct 10 13:22:40 2017.
