 Gaussian 09, Revision E.01,
 Gaussian 09:  ES64L-G09RevE.01 30-Nov-2015

 -----------------------------------
 #p ccsd(t,maxcyc=200)/6-311++G(d,p)
 -----------------------------------

 -------------
 ccsd(t) iener
 -------------
 Symbolic Z-matrix:
 Charge =  0 Multiplicity = 3

                         Standard orientation:
 ---------------------------------------------------------------------
 Center     Atomic      Atomic             Coordinates (Angstroms)
 Number     Number       Type             X           Y           Z
 ---------------------------------------------------------------------
      1          6           0       -1.573366   -0.158088   -0.000087
      2          1           0       -1.888619   -1.193255   -0.000009
      3          1           0       -2.335938    0.612956   -0.000211
      4          6           0       -0.264690    0.184810   -0.000035
      5          6           0        1.190980   -0.512212    0.000127
      6          1           0        1.507152   -1.006891   -0.918503
      7          1           0        1.507032   -1.006715    0.918891
      8          6           0        0.848805    0.917807   -0.000033
 ---------------------------------------------------------------------

 SCF Done:  E(UHF) =  -153.655709118     A.U. after   21 cycles
 E2 =    -0.4988690146D+00 EUMP2 =    -0.15415457813307D+03
 CCSD(T)
 CCSD(T)= -0.15422672448D+03

 The electronic state is 3-A.
 Alpha  occ. eigenvalues --  -11.27914 -11.26252 -11.25746 -11.25589  -1.17871
 Alpha  occ. eigenvalues --   -1.01499  -0.83911  -0.70381  -0.63143  -0.62830
 Alpha  occ. eigenvalues --   -0.59561  -0.52120  -0.45507  -0.36707  -0.35449
 Alpha virt. eigenvalues --    0.04400   0.05858   0.06464   0.06910   0.09883
 Alpha virt. eigenvalues --    0.10964   0.12636   0.13983   0.15058   0.16263
 Alpha virt. eigenvalues --    0.16909   0.17536   0.18984   0.20322   0.21085

  Beta  occ. eigenvalues --  -11.27038 -11.25670 -11.23874 -11.23679  -1.14581
  Beta  occ. eigenvalues --   -0.96178  -0.79867  -0.67544  -0.61280  -0.60430
  Beta  occ. eigenvalues --   -0.49226  -0.44216  -0.40407
  Beta virt. eigenvalues --    0.03738   0.05329   0.06097   0.06235   0.07225
  Beta virt. eigenvalues --    0.07960   0.10819   0.12113   0.12611   0.14114
  Beta virt. eigenvalues --    0.16583   0.17381   0.18393   0.19410   0.19451

 Mulliken charges and spin densities:
               1          2
     1  C   -0.672514   1.020258
     2  H    0.163539  -0.084448
     3  H    0.144148  -0.066601
     4  C    0.436917  -0.570211
     5  C   -0.454825   0.274532
     6  H    0.123073   0.003993
     7  H    0.123073   0.003993
     8  C    0.136589   1.418485
 Sum of Mulliken charges =  -0.00000   2.00000

 Dipole moment (field-independent basis, Debye):
    X=             -0.7915    Y=             -1.1054    Z=              0.0001  Tot=              1.3596
 Quadrupole moment (field-independent basis, Debye-Ang):
   XX=            -22.9771   YY=            -24.4788   ZZ=            -25.6200
   XY=             -1.2784   XZ=              0.0003   YZ=             -0.0002

 06\CCSD=-154.20201\CCSD(T)=-154.2267245\S2=2.208773\S2-1=2.137788\S2A=
 Normal termination of Gaussian 09 at Tue Oct 10 12:52:24 2017.
