 Gaussian 09, Revision E.01,
 Gaussian 09:  ES64L-G09RevE.01 30-Nov-2015

 -----------------------------------
 #p ccsd(t,maxcyc=200)/6-311++G(d,p)
 -----------------------------------

 -------------
 ccsd(t) iener
 -------------
 Symbolic Z-matrix:
 Charge =  0 Multiplicity = 3

                         Standard orientation:
 ---------------------------------------------------------------------
 Center     Atomic      Atomic             Coordinates (Angstroms)
 Number     Number       Type             X           Y           Z
 ---------------------------------------------------------------------
      1          6           0        0.061372   -1.744474   -0.000000
      2          1           0        0.337736   -2.232997    0.929365
      3          1           0        0.337736   -2.232997   -0.929365
      4          6           0       -0.648402   -0.465060   -0.000000
      5          1           0       -1.738738   -0.459089   -0.000000
      6          6           0        0.000000    0.748697    0.000000
      7          6           0        0.582914    1.822209    0.000000
      8          1           0        1.087959    2.756850    0.000000
 ---------------------------------------------------------------------

 SCF Done:  E(UHF) =  -153.694176650     A.U. after   25 cycles
 E2 =    -0.4866124213D+00 EUMP2 =    -0.15418078907094D+03
 CCSD(T)
 CCSD(T)= -0.15425418202D+03

 The electronic state is 3-A".
 Alpha  occ. eigenvalues --  -11.26689 -11.24932 -11.24376 -11.23050  -1.10038
 Alpha  occ. eigenvalues --   -1.01770  -0.88761  -0.72817  -0.66038  -0.62001
 Alpha  occ. eigenvalues --   -0.60401  -0.47402  -0.40461  -0.37694  -0.34316
 Alpha virt. eigenvalues --    0.04064   0.05141   0.06158   0.06856   0.11362
 Alpha virt. eigenvalues --    0.12432   0.12489   0.14149   0.14562   0.15444
 Alpha virt. eigenvalues --    0.15840   0.17983   0.18088   0.19574   0.20563

  Beta  occ. eigenvalues --  -11.24857 -11.24733 -11.22823 -11.22199  -1.06595
  Beta  occ. eigenvalues --   -0.94948  -0.81526  -0.70809  -0.63475  -0.58537
  Beta  occ. eigenvalues --   -0.57865  -0.42153  -0.38962
  Beta virt. eigenvalues --    0.04169   0.05229   0.06282   0.06893   0.07379
  Beta virt. eigenvalues --    0.08036   0.11429   0.12225   0.13348   0.14805
  Beta virt. eigenvalues --    0.15111   0.18335   0.18340   0.18939   0.19629

 Mulliken charges and spin densities:
               1          2
     1  C   -0.372190   1.182656
     2  H    0.128920  -0.066692
     3  H    0.128920  -0.066692
     4  C   -0.181070   1.066130
     5  H    0.175454  -0.051540
     6  C    1.939285  -1.039092
     7  C   -1.974470   1.055524
     8  H    0.155152  -0.080292
 Sum of Mulliken charges =  -0.00000   2.00000

 Dipole moment (field-independent basis, Debye):
    X=             -0.0376    Y=             -0.2881    Z=             -0.0000  Tot=              0.2906
 Quadrupole moment (field-independent basis, Debye-Ang):
   XX=            -24.0740   YY=            -20.3559   ZZ=            -25.5441
   XY=              2.0012   XZ=             -0.0000   YZ=              0.0000

 427\PMP3-0=-154.2240221\MP4SDQ=-154.2249188\CCSD=-154.231565\CCSD(T)=-
 Normal termination of Gaussian 09 at Tue Oct 10 12:53:09 2017.
