 Gaussian 09, Revision E.01,
 Gaussian 09:  ES64L-G09RevE.01 30-Nov-2015

 -----------------------------------
 #p ccsd(t,maxcyc=200)/6-311++G(d,p)
 -----------------------------------

 -------------
 ccsd(t) iener
 -------------
 Symbolic Z-matrix:
 Charge =  1 Multiplicity = 2

                         Standard orientation:
 ---------------------------------------------------------------------
 Center     Atomic      Atomic             Coordinates (Angstroms)
 Number     Number       Type             X           Y           Z
 ---------------------------------------------------------------------
      1          1           0       -1.171362   -1.695663   -0.000000
      2          6           0        0.000000    0.720351    0.000000
      3          6           0       -0.540082    1.821816    0.000000
      4          1           0       -1.014143    2.783226    0.000000
      5          6           0        0.631782   -0.502998   -0.000000
      6          6           0       -0.086187   -1.693056   -0.000000
      7          1           0        1.719795   -0.518043   -0.000000
      8          1           0        0.432632   -2.646193   -0.000000
 ---------------------------------------------------------------------

 SCF Done:  E(UHF) =  -153.452105501     A.U. after   30 cycles
 E2 =    -0.4842799721D+00 EUMP2 =    -0.15393638547325D+03
 CCSD(T)
 CCSD(T)= -0.15400510636D+03

 The electronic state is 2-A".
 Alpha  occ. eigenvalues --  -11.53437 -11.52837 -11.52290 -11.50373  -1.35965
 Alpha  occ. eigenvalues --   -1.28550  -1.10990  -0.97023  -0.92678  -0.87070
 Alpha  occ. eigenvalues --   -0.79361  -0.73281  -0.65771  -0.63366
 Alpha virt. eigenvalues --   -0.16792  -0.09304  -0.07367  -0.06609  -0.05147
 Alpha virt. eigenvalues --   -0.04333  -0.03624  -0.01855  -0.01497  -0.00746
 Alpha virt. eigenvalues --    0.01220   0.01241   0.03580   0.03750   0.04302

  Beta  occ. eigenvalues --  -11.53396 -11.51722 -11.51214 -11.50392  -1.34582
  Beta  occ. eigenvalues --   -1.22546  -1.08939  -0.95806  -0.92105  -0.86682
  Beta  occ. eigenvalues --   -0.79210  -0.66522  -0.64130
  Beta virt. eigenvalues --   -0.24733  -0.09337  -0.09138  -0.07352  -0.06585
  Beta virt. eigenvalues --   -0.04981  -0.04277  -0.02581  -0.01129  -0.00613
  Beta virt. eigenvalues --   -0.00310   0.01728   0.02781   0.03835   0.04367

 Mulliken charges and spin densities:
               1          2
     1  H    0.242000  -0.042822
     2  C    1.516473  -0.524062
     3  C   -1.917105   0.836460
     4  H    0.258440  -0.056559
     5  C    0.692111   0.197582
     6  C   -0.351877   0.641965
     7  H    0.301714  -0.003882
     8  H    0.258243  -0.048682
 Sum of Mulliken charges =   1.00000   1.00000

 Dipole moment (field-independent basis, Debye):
    X=             -0.3224    Y=             -0.4451    Z=             -0.0000  Tot=              0.5496
 Quadrupole moment (field-independent basis, Debye-Ang):
   XX=            -17.5754   YY=             -1.9855   ZZ=            -22.9671
   XY=             -4.6172   XZ=             -0.0000   YZ=              0.0000

 =-153.9810533\CCSD(T)=-154.0051064\S2=0.931902\S2-1=0.878028\S2A=0.765
 Normal termination of Gaussian 09 at Tue Oct 10 14:30:22 2017.
