 Gaussian 09, Revision E.01,
 Gaussian 09:  ES64L-G09RevE.01 30-Nov-2015

 -----------------------------------
 #p ccsd(t,maxcyc=200)/6-311++G(d,p)
 -----------------------------------

 -------------
 ccsd(t) iener
 -------------
 Symbolic Z-matrix:
 Charge =  0 Multiplicity = 1

                         Standard orientation:
 ---------------------------------------------------------------------
 Center     Atomic      Atomic             Coordinates (Angstroms)
 Number     Number       Type             X           Y           Z
 ---------------------------------------------------------------------
      1          6           0        1.633224   -0.101607    0.001190
      2          1           0       -0.375044    1.436597    0.923021
      3          6           0       -0.397677    0.873881   -0.000083
      4          1           0       -0.378400    1.436626   -0.923289
      5          6           0        0.426895   -0.498955   -0.002787
      6          6           0       -1.031224   -0.482076    0.000936
      7          1           0       -1.519698   -0.810218   -0.911748
      8          1           0       -1.514171   -0.810464    0.916482
 ---------------------------------------------------------------------

 SCF Done:  E(RHF) =  -153.661866246     A.U. after   14 cycles
 E2 =    -0.5436963703D+00 EUMP2 =    -0.15420556261632D+03
 CCSD(T)
 CCSD(T)= -0.15426507753D+03

 The electronic state is 1-A.
 Alpha  occ. eigenvalues --  -11.30251 -11.29728 -11.26224 -11.24042  -1.19175
 Alpha  occ. eigenvalues --   -0.97060  -0.86829  -0.71363  -0.69609  -0.56732
 Alpha  occ. eigenvalues --   -0.54326  -0.44098  -0.43421  -0.38275
 Alpha virt. eigenvalues --    0.03701   0.05072   0.05382   0.07969   0.08591
 Alpha virt. eigenvalues --    0.11311   0.12311   0.12886   0.14400   0.14444
 Alpha virt. eigenvalues --    0.15368   0.16048   0.16575   0.19038   0.19674

 Mulliken charges:
               1
     1  C   -0.017662
     2  H    0.159749
     3  C   -0.255160
     4  H    0.159593
     5  C    0.031301
     6  C   -0.416504
     7  H    0.169389
     8  H    0.169293
 Sum of Mulliken charges =  -0.00000

 Dipole moment (field-independent basis, Debye):
    X=             -4.3510    Y=              0.4875    Z=              0.0033  Tot=              4.3782
 Quadrupole moment (field-independent basis, Debye-Ang):
   XX=            -30.6440   YY=            -23.2095   ZZ=            -24.0967
   XY=              0.2438   XZ=              0.0012   YZ=             -0.0046

 757\MP4DQ=-154.2315441\MP4SDQ=-154.2374973\CCSD=-154.2372699\CCSD(T)=-
 Normal termination of Gaussian 09 at Tue Oct 10 11:50:23 2017.
