 Gaussian 09, Revision E.01,
 Gaussian 09:  ES64L-G09RevE.01 30-Nov-2015

 -----------------------------------
 #p ccsd(t,maxcyc=200)/6-311++G(d,p)
 -----------------------------------

 -------------
 ccsd(t) iener
 -------------
 Symbolic Z-matrix:
 Charge =  1 Multiplicity = 2

                         Standard orientation:
 ---------------------------------------------------------------------
 Center     Atomic      Atomic             Coordinates (Angstroms)
 Number     Number       Type             X           Y           Z
 ---------------------------------------------------------------------
      1          6           0        0.000000    0.776295    0.000000
      2          6           0        0.000000    0.000000    1.232747
      3          6           0       -0.000000   -0.776295   -0.000000
      4          6           0       -0.000000    0.000000   -1.232747
      5          1           0       -0.909229    0.000000    1.855991
      6          1           0        0.909229   -0.000000    1.855991
      7          1           0       -0.909229    0.000000   -1.855991
      8          1           0        0.909229   -0.000000   -1.855991
 ---------------------------------------------------------------------

 SCF Done:  E(UHF) =  -153.324333998     A.U. after   14 cycles
 E2 =    -0.5305690442D+00 EUMP2 =    -0.15385490304222D+03
 CCSD(T)
 CCSD(T)= -0.15391324340D+03

 The electronic state is 2-BU.
 Alpha  occ. eigenvalues --  -11.59057 -11.58972 -11.55632 -11.55625  -1.55623
 Alpha  occ. eigenvalues --   -1.26257  -1.04394  -0.99962  -0.93984  -0.88358
 Alpha  occ. eigenvalues --   -0.85701  -0.78516  -0.66970  -0.59406
 Alpha virt. eigenvalues --   -0.19598  -0.12695  -0.09801  -0.07447  -0.07429
 Alpha virt. eigenvalues --   -0.05982  -0.04300  -0.03603  -0.02092  -0.00879
 Alpha virt. eigenvalues --    0.01200   0.01836   0.02930   0.03221   0.03995

  Beta  occ. eigenvalues --  -11.58063 -11.57997 -11.56050 -11.56041  -1.51864
  Beta  occ. eigenvalues --   -1.26040  -1.01571  -0.96993  -0.88613  -0.86320
  Beta  occ. eigenvalues --   -0.81963  -0.78514  -0.64585
  Beta virt. eigenvalues --   -0.22154  -0.12813  -0.10744  -0.09634  -0.07401
  Beta virt. eigenvalues --   -0.07381  -0.05731  -0.04219  -0.03456  -0.02012
  Beta virt. eigenvalues --   -0.00696   0.01958   0.03056   0.03211   0.03534

 Mulliken charges and spin densities:
               1          2
     1  C    0.701531   0.463617
     2  C   -0.730628  -0.209396
     3  C    0.701531   0.463617
     4  C   -0.730628  -0.209396
     5  H    0.264548   0.122890
     6  H    0.264548   0.122890
     7  H    0.264548   0.122890
     8  H    0.264548   0.122890
 Sum of Mulliken charges =   1.00000   1.00000

 Dipole moment (field-independent basis, Debye):
    X=             -0.0000    Y=              0.0000    Z=              0.0000  Tot=              0.0000
 Quadrupole moment (field-independent basis, Debye-Ang):
   XX=            -18.6967   YY=            -24.6229   ZZ=             -9.9283
   XY=             -0.0000   XZ=              0.0000   YZ=              0.0000

 -153.87733\MP4SDQ=-153.8836772\CCSD=-153.8839336\CCSD(T)=-153.9132434\
 Normal termination of Gaussian 09 at Tue Oct 10 14:04:45 2017.
