 Gaussian 09, Revision E.01,
 Gaussian 09:  ES64L-G09RevE.01 30-Nov-2015

 -----------------------------------
 #p ccsd(t,maxcyc=200)/6-311++G(d,p)
 -----------------------------------

 -------------
 ccsd(t) iener
 -------------
 Symbolic Z-matrix:
 Charge =  1 Multiplicity = 4

                         Standard orientation:
 ---------------------------------------------------------------------
 Center     Atomic      Atomic             Coordinates (Angstroms)
 Number     Number       Type             X           Y           Z
 ---------------------------------------------------------------------
      1          6           0        0.480253    0.396855   -0.000291
      2          6           0       -0.637038   -0.422421   -0.000289
      3          6           0       -1.997022   -0.110474    0.000378
      4          1           0       -2.495962    0.863842    0.000683
      5          1           0        0.341475    1.481932   -0.000599
      6          6           0        1.756297   -0.137763    0.000131
      7          1           0        1.912057   -1.211778    0.000100
      8          1           0        2.627490    0.508823    0.000248
 ---------------------------------------------------------------------

 SCF Done:  E(UHF) =  -153.377679772     A.U. after   22 cycles
 E2 =    -0.4366588626D+00 EUMP2 =    -0.15381433863442D+03
 CCSD(T)
 CCSD(T)= -0.15388652258D+03

 The electronic state is 4-A.
 Alpha  occ. eigenvalues --  -11.56768 -11.56206 -11.51409 -11.50029  -1.38204
 Alpha  occ. eigenvalues --   -1.28317  -1.10764  -0.98849  -0.91348  -0.87333
 Alpha  occ. eigenvalues --   -0.79166  -0.75731  -0.73050  -0.64345  -0.61983
 Alpha virt. eigenvalues --   -0.18828  -0.08719  -0.07219  -0.06340  -0.05117
 Alpha virt. eigenvalues --   -0.03957  -0.03562  -0.02210  -0.00458   0.00387
 Alpha virt. eigenvalues --    0.00458   0.01891   0.04062   0.04972   0.04998

  Beta  occ. eigenvalues --  -11.54026 -11.51919 -11.50364 -11.50180  -1.32274
  Beta  occ. eigenvalues --   -1.17325  -1.04340  -0.92991  -0.87774  -0.83060
  Beta  occ. eigenvalues --   -0.77398  -0.65563
  Beta virt. eigenvalues --   -0.22384  -0.18799  -0.09913  -0.08392  -0.06994
  Beta virt. eigenvalues --   -0.06510  -0.05660  -0.03504  -0.03237  -0.00842
  Beta virt. eigenvalues --   -0.00658   0.00015   0.00844   0.01793   0.03726

 Mulliken charges and spin densities:
               1          2
     1  C    0.095638  -0.239121
     2  C    0.228560   0.890131
     3  C    0.007615   1.697737
     4  H    0.226222  -0.010677
     5  H    0.286633   0.065609
     6  C   -0.327864   0.684544
     7  H    0.233637  -0.043142
     8  H    0.249559  -0.045081
 Sum of Mulliken charges =   1.00000   3.00000

 Dipole moment (field-independent basis, Debye):
    X=             -0.0289    Y=              0.8786    Z=              0.0005  Tot=              0.8791
 Quadrupole moment (field-independent basis, Debye-Ang):
   XX=             -4.6428   YY=            -18.6727   ZZ=            -23.3749
   XY=             -2.0960   XZ=             -0.0014   YZ=             -0.0005

 6\PMP3-0=-153.858451\MP4SDQ=-153.8620484\CCSD=-153.8659533\CCSD(T)=-15
 Normal termination of Gaussian 09 at Tue Oct 10 15:38:18 2017.
