 Gaussian 09, Revision E.01,
 Gaussian 09:  ES64L-G09RevE.01 30-Nov-2015

 -----------------------------------
 #p ccsd(t,maxcyc=200)/6-311++G(d,p)
 -----------------------------------

 -------------
 ccsd(t) iener
 -------------
 Symbolic Z-matrix:
 Charge =  0 Multiplicity = 3

                         Standard orientation:
 ---------------------------------------------------------------------
 Center     Atomic      Atomic             Coordinates (Angstroms)
 Number     Number       Type             X           Y           Z
 ---------------------------------------------------------------------
      1          6           0        1.784484   -0.187158   -0.000041
      2          1           0        2.338791   -0.337504    0.925653
      3          1           0        2.338763   -0.338913   -0.925519
      4          6           0        0.530652    0.156491   -0.000294
      5          6           0       -0.773748    0.504773   -0.000393
      6          1           0       -1.004994    1.571587    0.000904
      7          1           0       -1.945816   -1.454826    0.000535
      8          6           0       -1.829179   -0.380830    0.000464
 ---------------------------------------------------------------------

 SCF Done:  E(UHF) =  -153.693264522     A.U. after   25 cycles
 E2 =    -0.4736631999D+00 EUMP2 =    -0.15416692772223D+03
 CCSD(T)
 CCSD(T)= -0.15424586487D+03

 The electronic state is 3-A.
 Alpha  occ. eigenvalues --  -11.26691 -11.26036 -11.24868 -11.23442  -1.11415
 Alpha  occ. eigenvalues --   -1.01788  -0.87425  -0.72842  -0.65021  -0.62216
 Alpha  occ. eigenvalues --   -0.62030  -0.47239  -0.44035  -0.38903  -0.33740
 Alpha virt. eigenvalues --    0.04188   0.05814   0.06021   0.06634   0.10581
 Alpha virt. eigenvalues --    0.11704   0.12882   0.13492   0.13677   0.14931
 Alpha virt. eigenvalues --    0.17736   0.18108   0.18836   0.19173   0.20978

  Beta  occ. eigenvalues --  -11.26525 -11.24614 -11.23258 -11.22148  -1.07555
  Beta  occ. eigenvalues --   -0.99716  -0.77917  -0.69857  -0.63394  -0.59376
  Beta  occ. eigenvalues --   -0.59030  -0.42187  -0.39159
  Beta virt. eigenvalues --    0.04223   0.05661   0.06163   0.06578   0.08165
  Beta virt. eigenvalues --    0.09703   0.11968   0.12663   0.13813   0.14371
  Beta virt. eigenvalues --    0.15124   0.16481   0.17813   0.18933   0.19612

 Mulliken charges and spin densities:
               1          2
     1  C   -0.862903  -0.656035
     2  H    0.122039   0.092726
     3  H    0.122015   0.092733
     4  C    0.376201   1.322527
     5  C    0.053417  -0.875175
     6  H    0.185512   0.103864
     7  H    0.170762  -0.079062
     8  C   -0.167043   1.998421
 Sum of Mulliken charges =  -0.00000   2.00000

 Dipole moment (field-independent basis, Debye):
    X=              0.4399    Y=             -0.1999    Z=              0.0013  Tot=              0.4833
 Quadrupole moment (field-independent basis, Debye-Ang):
   XX=            -23.7752   YY=            -23.4290   ZZ=            -25.5953
   XY=             -0.2533   XZ=             -0.0008   YZ=              0.0032

 -154.2174515\MP4SDQ=-154.2134832\CCSD=-154.2231279\CCSD(T)=-154.245864
 Normal termination of Gaussian 09 at Tue Oct 10 12:47:22 2017.
