 Gaussian 09, Revision E.01,
 Gaussian 09:  ES64L-G09RevE.01 30-Nov-2015

 -----------------------------------
 #p ccsd(t,maxcyc=200)/6-311++G(d,p)
 -----------------------------------

 -------------
 ccsd(t) iener
 -------------
 Symbolic Z-matrix:
 Charge =  0 Multiplicity = 3

                         Standard orientation:
 ---------------------------------------------------------------------
 Center     Atomic      Atomic             Coordinates (Angstroms)
 Number     Number       Type             X           Y           Z
 ---------------------------------------------------------------------
      1          6           0       -1.773311    0.063274   -0.164041
      2          1           0       -2.226233    1.018796   -0.381514
      3          6           0       -0.606920   -0.449995    0.129191
      4          1           0       -0.495365   -1.522234    0.290605
      5          6           0        0.676175    0.359109    0.207810
      6          1           0        1.121778    0.252868    1.238897
      7          1           0        0.512248    1.439656    0.067249
      8          6           0        1.885318   -0.170569   -0.375500
 ---------------------------------------------------------------------

 SCF Done:  E(UHF) =  -153.594468563     A.U. after   45 cycles
 E2 =    -0.4678415461D+00 EUMP2 =    -0.15406231010891D+03
 CCSD(T)
 CCSD(T)= -0.15414380828D+03

 The electronic state is 3-A.
 Alpha  occ. eigenvalues --  -11.29625 -11.26888 -11.26552 -11.25220  -1.11888
 Alpha  occ. eigenvalues --   -1.03030  -0.80908  -0.75185  -0.65369  -0.61703
 Alpha  occ. eigenvalues --   -0.57648  -0.47354  -0.42190  -0.41128  -0.36650
 Alpha virt. eigenvalues --    0.03812   0.05589   0.05949   0.06314   0.07719
 Alpha virt. eigenvalues --    0.10817   0.11327   0.12837   0.13480   0.15127
 Alpha virt. eigenvalues --    0.16035   0.17056   0.17482   0.18029   0.19051

  Beta  occ. eigenvalues --  -11.27338 -11.26424 -11.26303 -11.23350  -1.09995
  Beta  occ. eigenvalues --   -0.97451  -0.75160  -0.69938  -0.62808  -0.60105
  Beta  occ. eigenvalues --   -0.55149  -0.43189  -0.38273
  Beta virt. eigenvalues --    0.03889   0.05164   0.05673   0.07154   0.07580
  Beta virt. eigenvalues --    0.08760   0.09505   0.11082   0.11976   0.13681
  Beta virt. eigenvalues --    0.16318   0.16710   0.17956   0.18487   0.18575

 Mulliken charges and spin densities:
               1          2
     1  C   -0.261095   1.662102
     2  H    0.167432  -0.041474
     3  C    0.064105  -0.712128
     4  H    0.199895   0.084613
     5  C   -0.466055  -0.011844
     6  H    0.146255  -0.040084
     7  H    0.178865   0.044898
     8  C   -0.029402   1.013915
 Sum of Mulliken charges =  -0.00000   2.00000

 Dipole moment (field-independent basis, Debye):
    X=             -1.6236    Y=              1.3266    Z=              1.0453  Tot=              2.3428
 Quadrupole moment (field-independent basis, Debye-Ang):
   XX=            -32.5884   YY=            -23.8028   ZZ=            -25.5127
   XY=              0.0290   XZ=              3.2669   YZ=             -1.0912

 P3-0=-154.1123241\MP4SDQ=-154.1147012\CCSD=-154.1224456\CCSD(T)=-154.1
 Normal termination of Gaussian 09 at Tue Oct 10 12:18:00 2017.
