 Gaussian 09, Revision E.01,
 Gaussian 09:  ES64L-G09RevE.01 30-Nov-2015

 -----------------------------------
 #p ccsd(t,maxcyc=200)/6-311++G(d,p)
 -----------------------------------

 -------------
 ccsd(t) iener
 -------------
 Symbolic Z-matrix:
 Charge =  0 Multiplicity = 1

                         Standard orientation:
 ---------------------------------------------------------------------
 Center     Atomic      Atomic             Coordinates (Angstroms)
 Number     Number       Type             X           Y           Z
 ---------------------------------------------------------------------
      1          6           0        0.523047    0.523047    0.523047
      2          1           0        1.140977    1.140977    1.140977
      3          6           0       -0.523047   -0.523047    0.523047
      4          1           0       -1.140977   -1.140977    1.140977
      5          6           0        0.523047   -0.523047   -0.523047
      6          1           0        1.140977   -1.140977   -1.140977
      7          6           0       -0.523047    0.523047   -0.523047
      8          1           0       -1.140977    1.140977   -1.140977
 ---------------------------------------------------------------------

 SCF Done:  E(RHF) =  -153.635297093     A.U. after   10 cycles
 E2 =    -0.5608023105D+00 EUMP2 =    -0.15419609940348D+03
 CCSD(T)
 CCSD(T)= -0.15424631642D+03

 The electronic state is 1-A1.
 Alpha  occ. eigenvalues --  -11.24892 -11.24744 -11.24744 -11.24744  -1.29150
 Alpha  occ. eigenvalues --   -0.80915  -0.80915  -0.80915  -0.71251  -0.53750
 Alpha  occ. eigenvalues --   -0.53750  -0.53750  -0.33762  -0.33762
 Alpha virt. eigenvalues --    0.04039   0.05568   0.05568   0.05568   0.10686
 Alpha virt. eigenvalues --    0.10686   0.10686   0.15082   0.15082   0.16300
 Alpha virt. eigenvalues --    0.17264   0.17264   0.17264   0.19718   0.19718

 Mulliken charges:
               1
     1  C   -0.212512
     2  H    0.212512
     3  C   -0.212512
     4  H    0.212512
     5  C   -0.212512
     6  H    0.212512
     7  C   -0.212512
     8  H    0.212512
 Sum of Mulliken charges =  -0.00000

 Dipole moment (field-independent basis, Debye):
    X=             -0.0000    Y=              0.0000    Z=              0.0000  Tot=              0.0000
 Quadrupole moment (field-independent basis, Debye-Ang):
   XX=            -23.2046   YY=            -23.2046   ZZ=            -23.2046
   XY=              0.0000   XZ=              0.0000   YZ=              0.0000

 Normal termination of Gaussian 09 at Tue Oct 10 11:58:35 2017.
