 Gaussian 09, Revision E.01,
 Gaussian 09:  ES64L-G09RevE.01 30-Nov-2015

 -----------------------------------
 #p ccsd(t,maxcyc=200)/6-311++G(d,p)
 -----------------------------------

 -------------
 ccsd(t) iener
 -------------
 Symbolic Z-matrix:
 Charge =  0 Multiplicity = 1

                         Standard orientation:
 ---------------------------------------------------------------------
 Center     Atomic      Atomic             Coordinates (Angstroms)
 Number     Number       Type             X           Y           Z
 ---------------------------------------------------------------------
      1          6           0        1.251893    1.132640   -0.000000
      2          1           0        1.448325    2.197560   -0.000000
      3          1           0        2.111588    0.471570   -0.000000
      4          6           0        0.000000    0.667192    0.000000
      5          1           0       -0.837362    1.356574    0.000000
      6          6           0       -1.429626   -1.471080    0.000000
      7          6           0       -0.349978   -0.746403    0.000000
      8          1           0        0.443712   -1.519797   -0.000000
 ---------------------------------------------------------------------

 SCF Done:  E(RHF) =  -153.686111893     A.U. after   15 cycles
 E2 =    -0.5205879514D+00 EUMP2 =    -0.15420669984413D+03
 CCSD(T)
 CCSD(T)= -0.15427535740D+03

 The electronic state is 1-A'.
 Alpha  occ. eigenvalues --  -11.29770 -11.27375 -11.25449 -11.24990  -1.11786
 Alpha  occ. eigenvalues --   -1.02635  -0.82949  -0.72506  -0.63640  -0.61004
 Alpha  occ. eigenvalues --   -0.53670  -0.47388  -0.45718  -0.35196
 Alpha virt. eigenvalues --    0.03621   0.05082   0.05408   0.06749   0.08115
 Alpha virt. eigenvalues --    0.08603   0.11842   0.12060   0.12801   0.14211
 Alpha virt. eigenvalues --    0.15558   0.16166   0.17154   0.18231   0.19655

 Mulliken charges:
               1
     1  C   -0.506745
     2  H    0.166912
     3  H    0.137924
     4  C    0.164464
     5  H    0.187763
     6  C    0.052087
     7  C   -0.397368
     8  H    0.194963
 Sum of Mulliken charges =  -0.00000

 Dipole moment (field-independent basis, Debye):
    X=              2.1495    Y=              1.6721    Z=             -0.0000  Tot=              2.7233
 Quadrupole moment (field-independent basis, Debye-Ang):
   XX=            -26.2682   YY=            -25.3915   ZZ=            -28.4195
   XY=             -4.9609   XZ=              0.0000   YZ=             -0.0000

 154.2499926\CCSD(T)=-154.2753574\RMSD=6.692e-09\PG=CS [SG(C4H4)]\\@
 Normal termination of Gaussian 09 at Tue Oct 10 11:51:31 2017.
