 Gaussian 09, Revision E.01,
 Gaussian 09:  ES64L-G09RevE.01 30-Nov-2015

 -----------------------------------
 #p ccsd(t,maxcyc=200)/6-311++G(d,p)
 -----------------------------------

 -------------
 ccsd(t) iener
 -------------
 Symbolic Z-matrix:
 Charge =  1 Multiplicity = 4

                         Standard orientation:
 ---------------------------------------------------------------------
 Center     Atomic      Atomic             Coordinates (Angstroms)
 Number     Number       Type             X           Y           Z
 ---------------------------------------------------------------------
      1          6           0       -0.339405    0.619378    0.000000
      2          1           0       -1.432541    0.625057    0.000000
      3          6           0        0.339405   -0.619378    0.000000
      4          1           0        1.432541   -0.625057    0.000000
      5          6           0        0.339405    1.803807    0.000000
      6          6           0       -0.339405   -1.803807    0.000000
      7          1           0       -0.118329   -2.865255    0.000000
      8          1           0        0.118329    2.865255    0.000000
 ---------------------------------------------------------------------

 SCF Done:  E(UHF) =  -153.396342215     A.U. after   15 cycles
 E2 =    -0.4339535340D+00 EUMP2 =    -0.15383029574865D+03
 CCSD(T)
 CCSD(T)= -0.15390178116D+03

 The electronic state is 4-AU.
 Alpha  occ. eigenvalues --  -11.53405 -11.53405 -11.52273 -11.52173  -1.37575
 Alpha  occ. eigenvalues --   -1.28569  -1.09325  -0.99773  -0.92332  -0.86393
 Alpha  occ. eigenvalues --   -0.83828  -0.72363  -0.67259  -0.66179  -0.63711
 Alpha virt. eigenvalues --   -0.17131  -0.08715  -0.07392  -0.06550  -0.05059
 Alpha virt. eigenvalues --   -0.04380  -0.03645  -0.01316  -0.00107   0.00112
 Alpha virt. eigenvalues --    0.00118   0.02058   0.03944   0.05043   0.05209

  Beta  occ. eigenvalues --  -11.52604 -11.52485 -11.49393 -11.49393  -1.34089
  Beta  occ. eigenvalues --   -1.17590  -1.00345  -0.95083  -0.89225  -0.82345
  Beta  occ. eigenvalues --   -0.80357  -0.66209
  Beta virt. eigenvalues --   -0.22732  -0.13261  -0.10996  -0.07940  -0.07013
  Beta virt. eigenvalues --   -0.06959  -0.05493  -0.04080  -0.03786  -0.00517
  Beta virt. eigenvalues --    0.00059   0.00638   0.01147   0.01341   0.03249

 Mulliken charges and spin densities:
               1          2
     1  C    0.064077  -0.215707
     2  H    0.269167   0.067210
     3  C    0.064077  -0.215707
     4  H    0.269167   0.067210
     5  C   -0.127466   1.705548
     6  C   -0.127466   1.705548
     7  H    0.294222  -0.057052
     8  H    0.294222  -0.057052
 Sum of Mulliken charges =   1.00000   3.00000

 Dipole moment (field-independent basis, Debye):
    X=              0.0000    Y=              0.0000    Z=              0.0000  Tot=              0.0000
 Quadrupole moment (field-independent basis, Debye-Ang):
   XX=            -19.5937   YY=             -2.5511   ZZ=            -23.2983
   XY=             -0.7580   XZ=              0.0000   YZ=              0.0000

 16\CCSD(T)=-153.9017812\S2=3.974723\S2-1=3.910141\S2A=3.755278\RMSD=2.
 Normal termination of Gaussian 09 at Tue Oct 10 15:35:56 2017.
