 Gaussian 09, Revision E.01,
 Gaussian 09:  ES64L-G09RevE.01 30-Nov-2015

 -----------------------------------
 #p ccsd(t,maxcyc=200)/6-311++G(d,p)
 -----------------------------------

 -------------
 ccsd(t) iener
 -------------
 Symbolic Z-matrix:
 Charge =  0 Multiplicity = 1

                         Standard orientation:
 ---------------------------------------------------------------------
 Center     Atomic      Atomic             Coordinates (Angstroms)
 Number     Number       Type             X           Y           Z
 ---------------------------------------------------------------------
      1          6           0        0.151763   -0.110674    1.231071
      2          1           0        1.005191   -0.731136    1.522917
      3          6           0        0.151763    0.736579   -0.000000
      4          1           0       -0.411325    0.298554   -2.060460
      5          6           0       -0.653243   -0.371036    0.000000
      6          1           0       -0.411325    0.298554    2.060460
      7          6           0        0.151763   -0.110674   -1.231071
      8          1           0        1.005191   -0.731136   -1.522917
 ---------------------------------------------------------------------

 SCF Done:  E(RHF) =  -153.618713163     A.U. after   14 cycles
 E2 =    -0.5744439285D+00 EUMP2 =    -0.15419315709110D+03
 CCSD(T)
 CCSD(T)= -0.15424466724D+03

 The electronic state is 1-A'.
 Alpha  occ. eigenvalues --  -11.29791 -11.29788 -11.26460 -11.26301  -1.25851
 Alpha  occ. eigenvalues --   -0.98344  -0.80560  -0.66648  -0.66507  -0.64142
 Alpha  occ. eigenvalues --   -0.57387  -0.44399  -0.38844  -0.38328
 Alpha virt. eigenvalues --    0.04454   0.05249   0.05572   0.06077   0.08133
 Alpha virt. eigenvalues --    0.08768   0.11049   0.13672   0.14444   0.15304
 Alpha virt. eigenvalues --    0.16919   0.17685   0.17729   0.18291   0.19513

 Mulliken charges:
               1
     1  C   -0.368981
     2  H    0.097378
     3  C    0.095660
     4  H    0.175642
     5  C    0.096261
     6  H    0.175642
     7  C   -0.368981
     8  H    0.097378
 Sum of Mulliken charges =  -0.00000

 Dipole moment (field-independent basis, Debye):
    X=              0.9069    Y=             -0.6661    Z=             -0.0000  Tot=              1.1252
 Quadrupole moment (field-independent basis, Debye-Ang):
   XX=            -26.0894   YY=            -27.8055   ZZ=            -19.7943
   XY=             -2.6386   XZ=              0.0000   YZ=              0.0000

 DQ=-154.2074733\MP4SDQ=-154.2135926\CCSD=-154.2134988\CCSD(T)=-154.244
 Normal termination of Gaussian 09 at Tue Oct 10 11:58:37 2017.
