 Gaussian 09, Revision E.01,
 Gaussian 09:  ES64L-G09RevE.01 30-Nov-2015

 -----------------------------------
 #p ccsd(t,maxcyc=200)/6-311++G(d,p)
 -----------------------------------

 -------------
 ccsd(t) iener
 -------------
 Symbolic Z-matrix:
 Charge =  0 Multiplicity = 1

                         Standard orientation:
 ---------------------------------------------------------------------
 Center     Atomic      Atomic             Coordinates (Angstroms)
 Number     Number       Type             X           Y           Z
 ---------------------------------------------------------------------
      1          6           0       -0.283864    0.572938   -0.000000
      2          1           0        1.745848    0.677125   -0.000000
      3          1           0       -1.261613    1.050138   -0.000000
      4          6           0        0.879504    1.365515   -0.000000
      5          6           0       -0.283864   -0.894646    0.630593
      6          6           0       -0.283864   -0.894646   -0.630593
      7          1           0       -0.325855   -1.311117    1.618529
      8          1           0       -0.325855   -1.311117   -1.618529
 ---------------------------------------------------------------------

 SCF Done:  E(RHF) =  -153.606649499     A.U. after   13 cycles
 E2 =    -0.5359749771D+00 EUMP2 =    -0.15414262447616D+03
 CCSD(T)
 CCSD(T)= -0.15420515023D+03

 The electronic state is 1-A'.
 Alpha  occ. eigenvalues --  -11.29372 -11.29109 -11.25801 -11.23804  -1.18395
 Alpha  occ. eigenvalues --   -0.95678  -0.80504  -0.76160  -0.70961  -0.56071
 Alpha  occ. eigenvalues --   -0.55135  -0.42836  -0.41864  -0.33596
 Alpha virt. eigenvalues --    0.03466   0.03910   0.06175   0.06677   0.07207
 Alpha virt. eigenvalues --    0.10211   0.10714   0.12842   0.13579   0.14052
 Alpha virt. eigenvalues --    0.16429   0.16539   0.18386   0.18840   0.19399

 Mulliken charges:
               1
     1  C    0.083972
     2  H    0.053976
     3  H    0.156717
     4  C   -0.362434
     5  C   -0.209686
     6  C   -0.209686
     7  H    0.243570
     8  H    0.243570
 Sum of Mulliken charges =  -0.00000

 Dipole moment (field-independent basis, Debye):
    X=             -1.1506    Y=             -3.9479    Z=             -0.0000  Tot=              4.1121
 Quadrupole moment (field-independent basis, Debye-Ang):
   XX=            -25.8929   YY=            -31.9480   ZZ=            -20.4790
   XY=             -2.7993   XZ=              0.0000   YZ=              0.0000

 42\MP4DQ=-154.171305\MP4SDQ=-154.1769424\CCSD=-154.1782033\CCSD(T)=-15
 Normal termination of Gaussian 09 at Tue Oct 10 12:10:41 2017.
