 Gaussian 09, Revision E.01,
 Gaussian 09:  ES64L-G09RevE.01 30-Nov-2015

 -----------------------------------
 #p ccsd(t,maxcyc=200)/6-311++G(d,p)
 -----------------------------------

 -------------
 ccsd(t) iener
 -------------
 Symbolic Z-matrix:
 Charge =  0 Multiplicity = 3

                         Standard orientation:
 ---------------------------------------------------------------------
 Center     Atomic      Atomic             Coordinates (Angstroms)
 Number     Number       Type             X           Y           Z
 ---------------------------------------------------------------------
      1          6           0        0.000000    0.799751   -0.583178
      2          1           0       -0.902293    1.229802   -1.022718
      3          1           0        0.902293    1.229802   -1.022718
      4          6           0       -0.000000   -0.799751   -0.583178
      5          1           0       -0.902293   -1.229802   -1.022718
      6          1           0        0.902293   -1.229802   -1.022718
      7          6           0        0.000000    0.667566    0.924085
      8          6           0       -0.000000   -0.667566    0.924085
 ---------------------------------------------------------------------

 SCF Done:  E(UHF) =  -153.627620518     A.U. after   15 cycles
 E2 =    -0.5133129234D+00 EUMP2 =    -0.15414093344145D+03
 CCSD(T)
 CCSD(T)= -0.15420632530D+03

 The electronic state is 3-B2.
 Alpha  occ. eigenvalues --  -11.27606 -11.27421 -11.26068 -11.26022  -1.18903
 Alpha  occ. eigenvalues --   -0.91914  -0.90095  -0.65663  -0.65159  -0.63562
 Alpha  occ. eigenvalues --   -0.55713  -0.53731  -0.43057  -0.39408  -0.37994
 Alpha virt. eigenvalues --    0.04484   0.05853   0.06136   0.08431   0.09329
 Alpha virt. eigenvalues --    0.10805   0.12588   0.13567   0.13853   0.14799
 Alpha virt. eigenvalues --    0.15944   0.17483   0.18220   0.21007   0.21031

  Beta  occ. eigenvalues --  -11.25573 -11.25528 -11.24871 -11.24732  -1.13745
  Beta  occ. eigenvalues --   -0.87105  -0.86795  -0.64660  -0.55985  -0.55859
  Beta  occ. eigenvalues --   -0.53380  -0.49423  -0.34909
  Beta virt. eigenvalues --    0.03868   0.04763   0.05140   0.06171   0.08476
  Beta virt. eigenvalues --    0.09148   0.11873   0.13787   0.14140   0.14784
  Beta virt. eigenvalues --    0.14929   0.14984   0.16072   0.18241   0.18912

 Mulliken charges and spin densities:
               1          2
     1  C   -0.372961   0.100515
     2  H    0.132326   0.007033
     3  H    0.132326   0.007033
     4  C   -0.372961   0.100515
     5  H    0.132326   0.007033
     6  H    0.132326   0.007033
     7  C    0.108309   0.885419
     8  C    0.108309   0.885419
 Sum of Mulliken charges =  -0.00000   2.00000

 Dipole moment (field-independent basis, Debye):
    X=              0.0000    Y=              0.0000    Z=             -1.8490  Tot=              1.8490
 Quadrupole moment (field-independent basis, Debye-Ang):
   XX=            -24.6921   YY=            -24.5165   ZZ=            -25.9841
   XY=              0.0000   XZ=              0.0000   YZ=              0.0000

 =-154.1791952\CCSD=-154.1809833\CCSD(T)=-154.2063253\S2=2.009633\S2-1=
 Normal termination of Gaussian 09 at Tue Oct 10 12:31:22 2017.
