 Gaussian 09, Revision E.01,
 Gaussian 09:  ES64L-G09RevE.01 30-Nov-2015

 -----------------------------------
 #p ccsd(t,maxcyc=200)/6-311++G(d,p)
 -----------------------------------

 -------------
 ccsd(t) iener
 -------------
 Symbolic Z-matrix:
 Charge =  0 Multiplicity = 3

                         Standard orientation:
 ---------------------------------------------------------------------
 Center     Atomic      Atomic             Coordinates (Angstroms)
 Number     Number       Type             X           Y           Z
 ---------------------------------------------------------------------
      1          6           0        0.000000   -0.000000    0.625051
      2          6           0        0.000000    0.000000   -0.625051
      3          6           0        0.000000    0.000000   -1.984748
      4          1           0       -0.928245    0.000000   -2.546946
      5          1           0        0.928245    0.000000   -2.546946
      6          6           0       -0.000000   -0.000000    1.984748
      7          1           0       -0.000000    0.928245    2.546946
      8          1           0        0.000000   -0.928245    2.546946
 ---------------------------------------------------------------------

 SCF Done:  E(UHF) =  -153.709538621     A.U. after   17 cycles
 E2 =    -0.4945667669D+00 EUMP2 =    -0.15420410538825D+03
 CCSD(T)
 CCSD(T)= -0.15427536353D+03

 The electronic state is 3-A1.
 Alpha  occ. eigenvalues --  -11.25967 -11.25966 -11.24849 -11.24568  -1.10303
 Alpha  occ. eigenvalues --   -1.03203  -0.92102  -0.69717  -0.64899  -0.62836
 Alpha  occ. eigenvalues --   -0.62836  -0.48049  -0.48049  -0.32920  -0.32920
 Alpha virt. eigenvalues --    0.04500   0.05585   0.06422   0.06422   0.10435
 Alpha virt. eigenvalues --    0.12132   0.12132   0.13618   0.17753   0.17753
 Alpha virt. eigenvalues --    0.18024   0.18266   0.20634   0.21407   0.21407

  Beta  occ. eigenvalues --  -11.24562 -11.24313 -11.24160 -11.24139  -1.05536
  Beta  occ. eigenvalues --   -0.96482  -0.86411  -0.66985  -0.63026  -0.59468
  Beta  occ. eigenvalues --   -0.59468  -0.40557  -0.40557
  Beta virt. eigenvalues --    0.04630   0.05766   0.05907   0.05907   0.07035
  Beta virt. eigenvalues --    0.07035   0.10456   0.13197   0.13197   0.13638
  Beta virt. eigenvalues --    0.18538   0.18590   0.18815   0.18815   0.20947

 Mulliken charges and spin densities:
               1          2
     1  C    0.431625  -0.051111
     2  C    0.431625  -0.051111
     3  C   -0.704511   1.153212
     4  H    0.136443  -0.051050
     5  H    0.136443  -0.051050
     6  C   -0.704511   1.153212
     7  H    0.136443  -0.051050
     8  H    0.136443  -0.051050
 Sum of Mulliken charges =  -0.00000   2.00000

 Dipole moment (field-independent basis, Debye):
    X=              0.0000    Y=              0.0000    Z=             -0.0000  Tot=              0.0000
 Quadrupole moment (field-independent basis, Debye-Ang):
   XX=            -25.4241   YY=            -25.4241   ZZ=            -18.2404
   XY=              0.0000   XZ=             -0.0000   YZ=              0.0000

 0=-154.2436422\MP4SDQ=-154.2469259\CCSD=-154.2515044\CCSD(T)=-154.2753
 Normal termination of Gaussian 09 at Tue Oct 10 12:40:00 2017.
