 Gaussian 09, Revision E.01,
 Gaussian 09:  ES64L-G09RevE.01 30-Nov-2015

 -----------------------------------
 #p ccsd(t,maxcyc=200)/6-311++G(d,p)
 -----------------------------------

 -------------
 ccsd(t) iener
 -------------
 Symbolic Z-matrix:
 Charge =  1 Multiplicity = 4

                         Standard orientation:
 ---------------------------------------------------------------------
 Center     Atomic      Atomic             Coordinates (Angstroms)
 Number     Number       Type             X           Y           Z
 ---------------------------------------------------------------------
      1          6           0        1.314617    1.042342    0.000000
      2          1           0        1.546019    2.102612    0.000000
      3          1           0        2.146570    0.344132    0.000000
      4          6           0       -0.000000    0.602498   -0.000000
      5          1           0       -0.816112    1.317621   -0.000000
      6          6           0       -1.589124   -1.243670   -0.000000
      7          6           0       -0.290419   -0.775677    0.000000
      8          1           0        0.513075   -1.517326    0.000000
 ---------------------------------------------------------------------

 SCF Done:  E(UHF) =  -153.380634883     A.U. after   23 cycles
 E2 =    -0.4314434275D+00 EUMP2 =    -0.15381207831009D+03
 CCSD(T)
 CCSD(T)= -0.15388282021D+03

 The electronic state is 4-A".
 Alpha  occ. eigenvalues --  -11.55254 -11.53317 -11.52847 -11.51932  -1.37458
 Alpha  occ. eigenvalues --   -1.28237  -1.09186  -1.00256  -0.89076  -0.88174
 Alpha  occ. eigenvalues --   -0.79156  -0.78592  -0.72416  -0.64757  -0.63786
 Alpha virt. eigenvalues --   -0.17885  -0.08996  -0.07532  -0.06298  -0.05583
 Alpha virt. eigenvalues --   -0.03620  -0.03572  -0.02580  -0.00671   0.00255
 Alpha virt. eigenvalues --    0.00478   0.02348   0.03694   0.05141   0.05252

  Beta  occ. eigenvalues --  -11.53722 -11.51787 -11.51665 -11.47792  -1.34489
  Beta  occ. eigenvalues --   -1.18950  -1.02782  -0.94661  -0.86605  -0.82120
  Beta  occ. eigenvalues --   -0.77665  -0.66399
  Beta virt. eigenvalues --   -0.22898  -0.16739  -0.08779  -0.07812  -0.07244
  Beta virt. eigenvalues --   -0.06729  -0.05258  -0.03793  -0.02646  -0.00628
  Beta virt. eigenvalues --   -0.00462  -0.00412   0.00898   0.01398   0.04403

 Mulliken charges and spin densities:
               1          2
     1  C   -0.340127   0.667371
     2  H    0.256239  -0.049844
     3  H    0.227713  -0.045035
     4  C    0.216955   0.057977
     5  H    0.277234   0.003474
     6  C    0.190626   2.564276
     7  C   -0.081179  -0.270946
     8  H    0.252539   0.072728
 Sum of Mulliken charges =   1.00000   3.00000

 Dipole moment (field-independent basis, Debye):
    X=              1.1059    Y=              0.6493    Z=              0.0000  Tot=              1.2824
 Quadrupole moment (field-independent basis, Debye-Ang):
   XX=            -12.1566   YY=            -13.1708   ZZ=            -23.2218
   XY=              4.7851   XZ=              0.0000   YZ=             -0.0000

 9341\MP4SDQ=-153.8573661\CCSD=-153.8628794\CCSD(T)=-153.8828202\S2=3.9
 Normal termination of Gaussian 09 at Tue Oct 10 14:52:47 2017.
