 Gaussian 09, Revision E.01,
 Gaussian 09:  ES64L-G09RevE.01 30-Nov-2015

 -----------------------------------
 #p ccsd(t,maxcyc=200)/6-311++G(d,p)
 -----------------------------------

 -------------
 ccsd(t) iener
 -------------
 Symbolic Z-matrix:
 Charge =  1 Multiplicity = 2

                         Standard orientation:
 ---------------------------------------------------------------------
 Center     Atomic      Atomic             Coordinates (Angstroms)
 Number     Number       Type             X           Y           Z
 ---------------------------------------------------------------------
      1          6           0       -0.437418   -0.002876    0.545502
      2          1           0       -0.478394   -0.006801    1.629509
      3          6           0       -1.510928    0.001022   -0.236035
      4          1           0       -1.803798    0.005606   -1.279398
      5          6           0        0.958180    0.622815   -0.145704
      6          6           0        0.958232   -0.621204   -0.149358
      7          1           0        1.238034   -1.657888   -0.223539
      8          1           0        1.235764    1.660539   -0.213003
 ---------------------------------------------------------------------

 SCF Done:  E(UHF) =  -153.377239247     A.U. after   27 cycles
 E2 =    -0.4998598780D+00 EUMP2 =    -0.15387709912478D+03
 CCSD(T)
 CCSD(T)= -0.15393929441D+03

 The electronic state is 2-A.
 Alpha  occ. eigenvalues --  -11.54606 -11.53483 -11.53183 -11.50901  -1.41371
 Alpha  occ. eigenvalues --   -1.25923  -1.01931  -1.01728  -0.93352  -0.87706
 Alpha  occ. eigenvalues --   -0.82397  -0.67002  -0.66417  -0.64127
 Alpha virt. eigenvalues --   -0.18217  -0.08983  -0.08824  -0.07059  -0.06978
 Alpha virt. eigenvalues --   -0.06528  -0.03053  -0.01918  -0.01598  -0.01021
 Alpha virt. eigenvalues --    0.01100   0.01888   0.02894   0.03501   0.04006

  Beta  occ. eigenvalues --  -11.53392 -11.53100 -11.51639 -11.51299  -1.41113
  Beta  occ. eigenvalues --   -1.20049  -1.02537  -0.98636  -0.93520  -0.85997
  Beta  occ. eigenvalues --   -0.78619  -0.66719  -0.65781
  Beta virt. eigenvalues --   -0.13884  -0.13368  -0.08730  -0.08676  -0.06913
  Beta virt. eigenvalues --   -0.06180  -0.05889  -0.02979  -0.01607  -0.01179
  Beta virt. eigenvalues --    0.00207   0.01042   0.02322   0.03120   0.03842

 Mulliken charges and spin densities:
               1          2
     1  C   -0.010543  -0.323582
     2  H    0.282010   0.052173
     3  C    0.011366   1.295836
     4  H    0.262521  -0.034843
     5  C   -0.120712   0.017958
     6  C   -0.120090   0.020866
     7  H    0.347680  -0.014375
     8  H    0.347768  -0.014034
 Sum of Mulliken charges =   1.00000   1.00000

 Dipole moment (field-independent basis, Debye):
    X=              0.1725    Y=              0.0057    Z=             -0.7999  Tot=              0.8184
 Quadrupole moment (field-independent basis, Debye-Ang):
   XX=            -14.2692   YY=            -15.5081   ZZ=            -19.1988
   XY=             -0.0079   XZ=              1.4906   YZ=              0.0059

 P3-0=-153.9088394\MP4SDQ=-153.9102987\CCSD=-153.9132009\CCSD(T)=-153.9
 Normal termination of Gaussian 09 at Tue Oct 10 14:37:31 2017.
