 Gaussian 09, Revision E.01,
 Gaussian 09:  ES64L-G09RevE.01 30-Nov-2015

 -----------------------------------
 #p ccsd(t,maxcyc=200)/6-311++G(d,p)
 -----------------------------------

 -------------
 ccsd(t) iener
 -------------
 Symbolic Z-matrix:
 Charge =  1 Multiplicity = 2

                         Standard orientation:
 ---------------------------------------------------------------------
 Center     Atomic      Atomic             Coordinates (Angstroms)
 Number     Number       Type             X           Y           Z
 ---------------------------------------------------------------------
      1          8           0       -1.156797    1.036629    0.000000
      2          6           0        0.000000    0.424111    0.000000
      3          6           0        1.237558    1.104902    0.000000
      4          6           0       -0.037128   -0.973883    0.000000
      5          6           0       -0.041711   -2.184340    0.000000
      6          1           0        1.283521    2.189763    0.000000
      7          1           0        2.161070    0.539856    0.000000
      8          1           0       -1.091033    2.007101    0.000000
      9          1           0       -0.051493   -3.254490    0.000000
 ---------------------------------------------------------------------

 SCF Done:  E(UHF) =  -228.347660774     A.U. after   32 cycles
 E2 =    -0.6911453382D+00 EUMP2 =    -0.22903880611219D+03
 CCSD(T)
 CCSD(T)= -0.22911042274D+03

 The electronic state is 2-A".
 Alpha  occ. eigenvalues --  -20.85749 -11.62861 -11.52066 -11.49641 -11.45969
 Alpha  occ. eigenvalues --   -1.69012  -1.33750  -1.26342  -1.13856  -0.99834
 Alpha  occ. eigenvalues --   -0.94983  -0.92567  -0.85759  -0.83309  -0.80076
 Alpha  occ. eigenvalues --   -0.68028  -0.63848  -0.62506
 Alpha virt. eigenvalues --   -0.15204  -0.09847  -0.07277  -0.06432  -0.05085
 Alpha virt. eigenvalues --   -0.03373  -0.03272  -0.01932  -0.00855  -0.00700
 Alpha virt. eigenvalues --    0.00893   0.01623   0.01826   0.04296   0.04493

  Beta  occ. eigenvalues --  -20.85475 -11.62842 -11.50368 -11.48201 -11.46984
  Beta  occ. eigenvalues --   -1.68415  -1.32052  -1.21538  -1.11577  -0.99705
  Beta  occ. eigenvalues --   -0.93658  -0.91643  -0.82875  -0.82705  -0.79401
  Beta  occ. eigenvalues --   -0.63238  -0.62914
  Beta virt. eigenvalues --   -0.22879  -0.09711  -0.08570  -0.07191  -0.06125
  Beta virt. eigenvalues --   -0.05203  -0.03432  -0.01665  -0.00823  -0.00577
  Beta virt. eigenvalues --   -0.00221   0.01233   0.02198   0.02666   0.04696

 Mulliken charges and spin densities:
               1          2
     1  O   -0.127453   0.060947
     2  C    1.725142   0.115149
     3  C   -0.320719   0.953795
     4  C    1.315398  -0.631546
     5  C   -2.714106   0.688712
     6  H    0.228799  -0.077988
     7  H    0.270692  -0.063137
     8  H    0.363237  -0.003067
     9  H    0.259008  -0.042865
 Sum of Mulliken charges =   1.00000   1.00000

 Dipole moment (field-independent basis, Debye):
    X=              2.2745    Y=              1.2235    Z=              0.0000  Tot=              2.5827
 Quadrupole moment (field-independent basis, Debye-Ang):
   XX=            -23.6459   YY=             -1.9556   ZZ=            -28.3183
   XY=              0.8787   XZ=              0.0000   YZ=              0.0000

 -229.0746367\CCSD=-229.0780692\CCSD(T)=-229.1104227\S2=0.897381\S2-1=0
 Normal termination of Gaussian 09 at Tue Oct 10 00:29:12 2017.
