 Gaussian 09, Revision E.01,
 Gaussian 09:  ES64L-G09RevE.01 30-Nov-2015

 -----------------------------------
 #p ccsd(t,maxcyc=200)/6-311++G(d,p)
 -----------------------------------

 -------------
 ccsd(t) iener
 -------------
 Symbolic Z-matrix:
 Charge =  0 Multiplicity = 1

                         Standard orientation:
 ---------------------------------------------------------------------
 Center     Atomic      Atomic             Coordinates (Angstroms)
 Number     Number       Type             X           Y           Z
 ---------------------------------------------------------------------
      1          6           0        0.000000    1.158533    0.000000
      2          6           0       -0.857698   -0.966767    0.000000
      3          8           0       -1.159191    0.317618    0.000000
      4          6           0        0.654661   -1.011419    0.000000
      5          6           0        1.101531    0.424515    0.000000
      6          1           0       -0.206388    2.216360    0.000000
      7          1           0        0.986689   -1.589585    0.872472
      8          1           0        0.986689   -1.589585   -0.872472
      9          1           0        2.115583    0.792691    0.000000
 ---------------------------------------------------------------------

 SCF Done:  E(RHF) =  -228.602625265     A.U. after   15 cycles
 E2 =    -0.7336802826D+00 EUMP2 =    -0.22933630554775D+03
 CCSD(T)
 CCSD(T)= -0.22940641442D+03

 The electronic state is 1-A'.
 Alpha  occ. eigenvalues --  -20.63375 -11.31011 -11.30088 -11.25493 -11.24905
 Alpha  occ. eigenvalues --   -1.46374  -1.09831  -1.00805  -0.83255  -0.76982
 Alpha  occ. eigenvalues --   -0.71839  -0.64636  -0.59713  -0.56725  -0.56287
 Alpha  occ. eigenvalues --   -0.54291  -0.38125  -0.36590
 Alpha virt. eigenvalues --    0.03532   0.04993   0.06088   0.06639   0.10113
 Alpha virt. eigenvalues --    0.10927   0.11277   0.12175   0.13404   0.13505
 Alpha virt. eigenvalues --    0.15792   0.16518   0.17986   0.18556   0.19307

 Mulliken charges:
               1
     1  C   -0.270032
     2  C    0.074083
     3  O   -0.077596
     4  C   -0.658495
     5  C    0.157149
     6  H    0.216404
     7  H    0.175091
     8  H    0.175091
     9  H    0.208305
 Sum of Mulliken charges =  -0.00000

 Dipole moment (field-independent basis, Debye):
    X=              3.4138    Y=              1.5778    Z=             -0.0000  Tot=              3.7608
 Quadrupole moment (field-independent basis, Debye-Ang):
   XX=            -32.7463   YY=            -28.5323   ZZ=            -29.9611
   XY=             -3.6682   XZ=             -0.0000   YZ=             -0.0000

 =-229.3621271\MP4SDQ=-229.3726359\CCSD=-229.3721138\CCSD(T)=-229.40641
 Normal termination of Gaussian 09 at Mon Oct  9 16:05:10 2017.
