 Gaussian 09, Revision E.01,
 Gaussian 09:  ES64L-G09RevE.01 30-Nov-2015

 -----------------------------------
 #p ccsd(t,maxcyc=200)/6-311++G(d,p)
 -----------------------------------

 -------------
 ccsd(t) iener
 -------------
 Symbolic Z-matrix:
 Charge =  1 Multiplicity = 2

                         Standard orientation:
 ---------------------------------------------------------------------
 Center     Atomic      Atomic             Coordinates (Angstroms)
 Number     Number       Type             X           Y           Z
 ---------------------------------------------------------------------
      1          8           0        0.000000    0.452798    0.000000
      2          6           0       -0.981575   -0.499313   -0.000000
      3          6           0       -2.256663   -0.052517    0.000000
      4          6           0        1.242070    0.174809    0.000000
      5          6           0        2.445306    0.012674   -0.000000
      6          1           0       -0.646082   -1.529868   -0.000000
      7          1           0       -3.070236   -0.767550   -0.000000
      8          1           0       -2.481214    1.008392    0.000000
      9          1           0        3.502699   -0.147269   -0.000000
 ---------------------------------------------------------------------

 SCF Done:  E(UHF) =  -228.293202917     A.U. after   28 cycles
 E2 =    -0.6896898251D+00 EUMP2 =    -0.22898289274198D+03
 CCSD(T)
 CCSD(T)= -0.22906317486D+03

 The electronic state is 2-A".
 Alpha  occ. eigenvalues --  -20.96988 -11.55312 -11.54300 -11.51343 -11.47444
 Alpha  occ. eigenvalues --   -1.78896  -1.32969  -1.28061  -1.12983  -1.03257
 Alpha  occ. eigenvalues --   -0.97317  -0.95026  -0.91361  -0.82979  -0.78256
 Alpha  occ. eigenvalues --   -0.68237  -0.65621  -0.61838
 Alpha virt. eigenvalues --   -0.08865  -0.07726  -0.06555  -0.06083  -0.04593
 Alpha virt. eigenvalues --   -0.03803  -0.03685  -0.02375  -0.02276  -0.00655
 Alpha virt. eigenvalues --    0.00674   0.01329   0.02501   0.03981   0.05033

  Beta  occ. eigenvalues --  -20.94670 -11.56643 -11.55298 -11.49324 -11.46142
  Beta  occ. eigenvalues --   -1.74164  -1.32096  -1.23006  -1.09904  -1.02756
  Beta  occ. eigenvalues --   -0.93380  -0.90582  -0.84572  -0.82279  -0.77671
  Beta  occ. eigenvalues --   -0.64177  -0.58290
  Beta virt. eigenvalues --   -0.25125  -0.08781  -0.06430  -0.06129  -0.05807
  Beta virt. eigenvalues --   -0.04602  -0.04233  -0.03093  -0.02185  -0.01040
  Beta virt. eigenvalues --   -0.00278   0.00833   0.03039   0.04332   0.04592

 Mulliken charges and spin densities:
               1          2
     1  O    0.015062   0.452184
     2  C    0.133890  -0.445752
     3  C   -0.328599   0.724717
     4  C    0.252116  -0.544383
     5  C   -0.087093   0.956371
     6  H    0.253006   0.029496
     7  H    0.209243  -0.053833
     8  H    0.238295  -0.055086
     9  H    0.314079  -0.063713
 Sum of Mulliken charges =   1.00000   1.00000

 Dipole moment (field-independent basis, Debye):
    X=              0.6998    Y=             -1.2372    Z=             -0.0000  Tot=              1.4214
 Quadrupole moment (field-independent basis, Debye-Ang):
   XX=              1.4484   YY=            -24.9337   ZZ=            -28.3597
   XY=              0.3205   XZ=             -0.0000   YZ=             -0.0000

 229.0296656\CCSD(T)=-229.0631749\S2=1.016393\S2-1=0.938633\S2A=0.80086
 Normal termination of Gaussian 09 at Tue Oct 10 00:42:21 2017.
