 Gaussian 09, Revision E.01,
 Gaussian 09:  ES64L-G09RevE.01 30-Nov-2015

 -----------------------------------
 #p ccsd(t,maxcyc=200)/6-311++G(d,p)
 -----------------------------------

 -------------
 ccsd(t) iener
 -------------
 Symbolic Z-matrix:
 Charge =  1 Multiplicity = 2

                         Standard orientation:
 ---------------------------------------------------------------------
 Center     Atomic      Atomic             Coordinates (Angstroms)
 Number     Number       Type             X           Y           Z
 ---------------------------------------------------------------------
      1          6           0        0.630400   -0.000000   -0.000000
      2          6           0       -0.630400    0.000000   -0.000000
      3          6           0       -1.957716    0.000000   -0.000000
      4          6           0        1.957716   -0.000000   -0.000000
      5          1           0        2.517742    0.879029    0.317909
      6          1           0        2.517742   -0.879029   -0.317909
      7          1           0       -2.517742    0.879029   -0.317909
      8          1           0       -2.517742   -0.879029    0.317909
 ---------------------------------------------------------------------

 SCF Done:  E(UHF) =  -153.449090107     A.U. after   18 cycles
 E2 =    -0.4859784113D+00 EUMP2 =    -0.15393506851815D+03
 CCSD(T)
 CCSD(T)= -0.15400610560D+03

 The electronic state is 2-B2.
 Alpha  occ. eigenvalues --  -11.52501 -11.52482 -11.52254 -11.52021  -1.35529
 Alpha  occ. eigenvalues --   -1.28826  -1.15672  -0.93766  -0.90161  -0.87242
 Alpha  occ. eigenvalues --   -0.85144  -0.72309  -0.65340  -0.59347
 Alpha virt. eigenvalues --   -0.19962  -0.09134  -0.06938  -0.06068  -0.05780
 Alpha virt. eigenvalues --   -0.04238  -0.03266  -0.01893  -0.01667   0.00497
 Alpha virt. eigenvalues --    0.02626   0.02800   0.03955   0.04802   0.06881

  Beta  occ. eigenvalues --  -11.52489 -11.52224 -11.51304 -11.51302  -1.33828
  Beta  occ. eigenvalues --   -1.23830  -1.13546  -0.92323  -0.89008  -0.85283
  Beta  occ. eigenvalues --   -0.83748  -0.69523  -0.63783
  Beta virt. eigenvalues --   -0.22039  -0.13027  -0.08993  -0.06749  -0.05994
  Beta virt. eigenvalues --   -0.04816  -0.04296  -0.03210  -0.01630   0.00557
  Beta virt. eigenvalues --    0.01436   0.02814   0.03164   0.04412   0.05270

 Mulliken charges and spin densities:
               1          2
     1  C    0.558161  -0.161058
     2  C    0.558161  -0.161058
     3  C   -0.521786   0.738956
     4  C   -0.521786   0.738956
     5  H    0.231813  -0.038949
     6  H    0.231813  -0.038949
     7  H    0.231813  -0.038949
     8  H    0.231813  -0.038949
 Sum of Mulliken charges =   1.00000   1.00000

 Dipole moment (field-independent basis, Debye):
    X=              0.0000    Y=             -0.0000    Z=             -0.0000  Tot=              0.0000
 Quadrupole moment (field-independent basis, Debye-Ang):
   XX=              2.7749   YY=            -19.9616   ZZ=            -22.6646
   XY=             -0.0000   XZ=             -0.0000   YZ=             -0.0000

 06275\CCSD(T)=-154.0061056\S2=0.917339\S2-1=0.863888\S2A=0.758231\RMSD
 Normal termination of Gaussian 09 at Tue Oct 10 14:13:58 2017.
