 Gaussian 09, Revision E.01,
 Gaussian 09:  ES64L-G09RevE.01 30-Nov-2015

 -----------------------------------
 #p ccsd(t,maxcyc=200)/6-311++G(d,p)
 -----------------------------------

 -------------
 ccsd(t) iener
 -------------
 Symbolic Z-matrix:
 Charge =  1 Multiplicity = 2

                         Standard orientation:
 ---------------------------------------------------------------------
 Center     Atomic      Atomic             Coordinates (Angstroms)
 Number     Number       Type             X           Y           Z
 ---------------------------------------------------------------------
      1          6           0       -0.000000    0.851028    0.383934
      2          1           0       -0.000000    1.645530    1.115592
      3          6           0       -0.851028    0.000000   -0.383934
      4          1           0       -1.645530    0.000000   -1.115592
      5          6           0       -0.000000   -0.851028    0.383934
      6          1           0       -0.000000   -1.645530    1.115592
      7          6           0        0.851028   -0.000000   -0.383934
      8          1           0        1.645530   -0.000000   -1.115592
 ---------------------------------------------------------------------

 SCF Done:  E(UHF) =  -153.385050011     A.U. after   12 cycles
 E2 =    -0.5235064781D+00 EUMP2 =    -0.15390855648901D+03
 CCSD(T)
 CCSD(T)= -0.15396143595D+03

 The electronic state is 2-A1.
 Alpha  occ. eigenvalues --  -11.54875 -11.54746 -11.54746 -11.54682  -1.56309
 Alpha  occ. eigenvalues --   -1.11880  -1.11880  -1.04963  -0.96848  -0.84137
 Alpha  occ. eigenvalues --   -0.84137  -0.74624  -0.72996  -0.53610
 Alpha virt. eigenvalues --   -0.09117  -0.09117  -0.08870  -0.07999  -0.04914
 Alpha virt. eigenvalues --   -0.04914  -0.01843  -0.01747  -0.01747  -0.01055
 Alpha virt. eigenvalues --   -0.00749   0.01751   0.02114   0.03360   0.03823

  Beta  occ. eigenvalues --  -11.54339 -11.54215 -11.54215 -11.54134  -1.54489
  Beta  occ. eigenvalues --   -1.09039  -1.09039  -1.01006  -0.95908  -0.82726
  Beta  occ. eigenvalues --   -0.82726  -0.71848  -0.69205
  Beta virt. eigenvalues --   -0.17477  -0.08785  -0.08205  -0.08205  -0.07673
  Beta virt. eigenvalues --   -0.03817  -0.03817  -0.01668  -0.01020   0.00159
  Beta virt. eigenvalues --    0.00353   0.00353   0.02144   0.02278   0.04050

 Mulliken charges and spin densities:
               1          2
     1  C   -0.064485   0.263871
     2  H    0.314485  -0.013871
     3  C   -0.064485   0.263871
     4  H    0.314485  -0.013871
     5  C   -0.064485   0.263871
     6  H    0.314485  -0.013871
     7  C   -0.064485   0.263871
     8  H    0.314485  -0.013871
 Sum of Mulliken charges =   1.00000   1.00000

 Dipole moment (field-independent basis, Debye):
    X=              0.0000    Y=              0.0000    Z=              0.0000  Tot=              0.0000
 Quadrupole moment (field-independent basis, Debye-Ang):
   XX=            -16.5157   YY=            -16.5157   ZZ=            -17.3097
   XY=             -0.0000   XZ=             -0.0000   YZ=             -0.0000

 \PMP3-0=-153.9319623\MP4SDQ=-153.935095\CCSD=-153.9351637\CCSD(T)=-153
 Normal termination of Gaussian 09 at Tue Oct 10 14:09:19 2017.
