 Gaussian 09, Revision E.01,
 Gaussian 09:  ES64L-G09RevE.01 30-Nov-2015

 -----------------------------------
 #p ccsd(t,maxcyc=200)/6-311++G(d,p)
 -----------------------------------

 -------------
 ccsd(t) iener
 -------------
 Symbolic Z-matrix:
 Charge =  1 Multiplicity = 4

                         Standard orientation:
 ---------------------------------------------------------------------
 Center     Atomic      Atomic             Coordinates (Angstroms)
 Number     Number       Type             X           Y           Z
 ---------------------------------------------------------------------
      1          6           0        0.000000    0.810676   -0.571299
      2          1           0       -0.902815    1.268668   -0.993587
      3          1           0        0.902815    1.268668   -0.993587
      4          6           0       -0.000000   -0.810676   -0.571299
      5          1           0       -0.902815   -1.268668   -0.993587
      6          1           0        0.902815   -1.268668   -0.993587
      7          6           0        0.000000    0.710589    0.902495
      8          6           0       -0.000000   -0.710589    0.902495
 ---------------------------------------------------------------------

 SCF Done:  E(UHF) =  -153.335649228     A.U. after   14 cycles
 E2 =    -0.4606622505D+00 EUMP2 =    -0.15379631147839D+03
 CCSD(T)
 CCSD(T)= -0.15386376238D+03

 The electronic state is 4-A2.
 Alpha  occ. eigenvalues --  -11.61117 -11.60984 -11.49821 -11.49778  -1.48509
 Alpha  occ. eigenvalues --   -1.18029  -1.17581  -0.93359  -0.90909  -0.90437
 Alpha  occ. eigenvalues --   -0.83306  -0.77627  -0.70400  -0.68588  -0.68406
 Alpha virt. eigenvalues --   -0.17845  -0.09406  -0.07279  -0.07229  -0.06075
 Alpha virt. eigenvalues --   -0.03360  -0.02877  -0.02607  -0.01515  -0.01125
 Alpha virt. eigenvalues --    0.00928   0.02438   0.03772   0.04588   0.04704

  Beta  occ. eigenvalues --  -11.57132 -11.57060 -11.49528 -11.49487  -1.39411
  Beta  occ. eigenvalues --   -1.13207  -1.08827  -0.86346  -0.81871  -0.80724
  Beta  occ. eigenvalues --   -0.75976  -0.74562
  Beta virt. eigenvalues --   -0.23582  -0.18935  -0.15292  -0.08989  -0.07017
  Beta virt. eigenvalues --   -0.06083  -0.04327  -0.03946  -0.02521  -0.02279
  Beta virt. eigenvalues --   -0.01535  -0.01047   0.00133   0.01526   0.03485

 Mulliken charges and spin densities:
               1          2
     1  C   -0.548589   0.011431
     2  H    0.260246   0.040430
     3  H    0.260246   0.040430
     4  C   -0.548589   0.011431
     5  H    0.260246   0.040430
     6  H    0.260246   0.040430
     7  C    0.528098   1.407709
     8  C    0.528098   1.407709
 Sum of Mulliken charges =   1.00000   3.00000

 Dipole moment (field-independent basis, Debye):
    X=             -0.0000    Y=             -0.0000    Z=             -0.0516  Tot=              0.0516
 Quadrupole moment (field-independent basis, Debye-Ang):
   XX=            -19.2624   YY=            -17.0546   ZZ=            -17.9166
   XY=              0.0000   XZ=             -0.0000   YZ=             -0.0000

 -153.8400387\CCSD=-153.841901\CCSD(T)=-153.8637624\S2=3.761488\S2-1=3.
 Normal termination of Gaussian 09 at Tue Oct 10 15:12:03 2017.
