 Gaussian 09, Revision E.01,
 Gaussian 09:  ES64L-G09RevE.01 30-Nov-2015

 -----------------------------------
 #p ccsd(t,maxcyc=200)/6-311++G(d,p)
 -----------------------------------

 -------------
 ccsd(t) iener
 -------------
 Symbolic Z-matrix:
 Charge =  0 Multiplicity = 1

                         Standard orientation:
 ---------------------------------------------------------------------
 Center     Atomic      Atomic             Coordinates (Angstroms)
 Number     Number       Type             X           Y           Z
 ---------------------------------------------------------------------
      1          6           0       -2.121035   -0.624871    0.000000
      2          6           0        1.356982    0.274660   -0.000000
      3          8           0        1.540785   -0.910978   -0.000000
      4          6           0        0.000000    0.970166   -0.000000
      5          6           0       -1.160365    0.095426    0.000000
      6          1           0       -2.964610   -1.271058    0.000000
      7          1           0        2.208994    0.988658   -0.000000
      8          1           0       -0.012076    1.638964    0.871954
      9          1           0       -0.012076    1.638964   -0.871954
 ---------------------------------------------------------------------

 SCF Done:  E(RHF) =  -228.643365715     A.U. after   16 cycles
 E2 =    -0.7414229205D+00 EUMP2 =    -0.22938478863533D+03
 CCSD(T)
 CCSD(T)= -0.22944516531D+03

 The electronic state is 1-A'.
 Alpha  occ. eigenvalues --  -20.57304 -11.35293 -11.28459 -11.24526 -11.23391
 Alpha  occ. eigenvalues --   -1.41413  -1.09207  -0.99991  -0.83206  -0.72775
 Alpha  occ. eigenvalues --   -0.69361  -0.65892  -0.63793  -0.61566  -0.52432
 Alpha  occ. eigenvalues --   -0.44562  -0.39789  -0.39604
 Alpha virt. eigenvalues --    0.03518   0.04618   0.06080   0.06242   0.10113
 Alpha virt. eigenvalues --    0.10718   0.11889   0.12306   0.13769   0.14231
 Alpha virt. eigenvalues --    0.14395   0.15445   0.17570   0.17626   0.18001

 Mulliken charges:
               1
     1  C   -2.119183
     2  C    0.032143
     3  O   -0.280680
     4  C   -0.100431
     5  C    1.814690
     6  H    0.157555
     7  H    0.139957
     8  H    0.177974
     9  H    0.177974
 Sum of Mulliken charges =  -0.00000

 Dipole moment (field-independent basis, Debye):
    X=             -0.4777    Y=              3.1518    Z=             -0.0000  Tot=              3.1878
 Quadrupole moment (field-independent basis, Debye-Ang):
   XX=            -28.0109   YY=            -28.9270   ZZ=            -29.7193
   XY=              7.5018   XZ=             -0.0000   YZ=              0.0000

 84\MP4SDQ=-229.4136215\CCSD=-229.411793\CCSD(T)=-229.4451653\RMSD=9.28
 Normal termination of Gaussian 09 at Mon Oct  9 14:16:06 2017.
