 Gaussian 09, Revision E.01,
 Gaussian 09:  ES64L-G09RevE.01 30-Nov-2015

 -----------------------------------
 #p ccsd(t,maxcyc=200)/6-311++G(d,p)
 -----------------------------------

 -------------
 ccsd(t) iener
 -------------
 Symbolic Z-matrix:
 Charge =  0 Multiplicity = 1

                         Standard orientation:
 ---------------------------------------------------------------------
 Center     Atomic      Atomic             Coordinates (Angstroms)
 Number     Number       Type             X           Y           Z
 ---------------------------------------------------------------------
      1          8           0       -1.539999    2.075536    0.000000
      2          6           0        1.690241   -1.682630    0.000000
      3          6           0        0.303665   -1.126294    0.000000
      4          6           0        0.000000    0.167445    0.000000
      5          6           0       -0.877196    1.110358    0.000000
      6          1           0        1.836779   -2.325114    0.876680
      7          1           0        1.836779   -2.325114   -0.876680
      8          1           0        2.442217   -0.894455    0.000000
      9          1           0       -0.496045   -1.872879    0.000000
 ---------------------------------------------------------------------

 SCF Done:  E(RHF) =  -228.640122967     A.U. after   18 cycles
 E2 =    -0.7498297016D+00 EUMP2 =    -0.22938995266820D+03
 CCSD(T)
 CCSD(T)= -0.22945001944D+03

 The electronic state is 1-A'.
 Alpha  occ. eigenvalues --  -20.61329 -11.37705 -11.31069 -11.24899 -11.23418
 Alpha  occ. eigenvalues --   -1.45567  -1.11097  -1.01051  -0.87888  -0.72629
 Alpha  occ. eigenvalues --   -0.69862  -0.63343  -0.60796  -0.59037  -0.58833
 Alpha  occ. eigenvalues --   -0.55424  -0.39462  -0.34882
 Alpha virt. eigenvalues --    0.03308   0.04713   0.05398   0.06567   0.06913
 Alpha virt. eigenvalues --    0.09493   0.11339   0.11777   0.12717   0.13590
 Alpha virt. eigenvalues --    0.13695   0.14922   0.16542   0.18023   0.19012

 Mulliken charges:
               1
     1  O   -0.301859
     2  C   -0.499451
     3  C    0.107621
     4  C    0.854629
     5  C   -0.806670
     6  H    0.144602
     7  H    0.144602
     8  H    0.167221
     9  H    0.189305
 Sum of Mulliken charges =  -0.00000

 Dipole moment (field-independent basis, Debye):
    X=              1.3918    Y=             -3.7428    Z=              0.0000  Tot=              3.9932
 Quadrupole moment (field-independent basis, Debye-Ang):
   XX=            -30.7613   YY=            -31.1310   ZZ=            -29.7056
   XY=              1.8054   XZ=              0.0000   YZ=             -0.0000

 .4024069\MP4SDQ=-229.4154905\CCSD=-229.4123981\CCSD(T)=-229.4500194\RM
 Normal termination of Gaussian 09 at Mon Oct  9 17:50:02 2017.
