 Gaussian 09, Revision E.01,
 Gaussian 09:  ES64L-G09RevE.01 30-Nov-2015

 -----------------------------------
 #p ccsd(t,maxcyc=200)/6-311++G(d,p)
 -----------------------------------

 -------------
 ccsd(t) iener
 -------------
 Symbolic Z-matrix:
 Charge =  1 Multiplicity = 2

                         Standard orientation:
 ---------------------------------------------------------------------
 Center     Atomic      Atomic             Coordinates (Angstroms)
 Number     Number       Type             X           Y           Z
 ---------------------------------------------------------------------
      1          6           0        0.000000    0.676513   -1.005405
      2          6           0        0.000000   -0.000000    0.203858
      3          1           0        0.000000    1.604104   -1.560979
      4          1           0       -0.000000   -0.937285    2.152601
      5          6           0        0.000000   -0.000000    1.609744
      6          1           0        0.000000    0.937285    2.152601
      7          6           0       -0.000000   -0.676513   -1.005405
      8          1           0       -0.000000   -1.604104   -1.560979
 ---------------------------------------------------------------------

 SCF Done:  E(UHF) =  -153.474989305     A.U. after   16 cycles
 E2 =    -0.4874024224D+00 EUMP2 =    -0.15396239172786D+03
 CCSD(T)
 CCSD(T)= -0.15402006931D+03

 The electronic state is 2-B1.
 Alpha  occ. eigenvalues --  -11.54816 -11.54235 -11.54091 -11.48882  -1.49086
 Alpha  occ. eigenvalues --   -1.25188  -1.04727  -1.00429  -0.91562  -0.84619
 Alpha  occ. eigenvalues --   -0.78049  -0.77021  -0.72240  -0.60724
 Alpha virt. eigenvalues --   -0.11764  -0.09112  -0.07392  -0.07097  -0.06820
 Alpha virt. eigenvalues --   -0.04239  -0.03370  -0.02436  -0.01941   0.00204
 Alpha virt. eigenvalues --    0.00709   0.02380   0.02784   0.04400   0.04527

  Beta  occ. eigenvalues --  -11.55140 -11.53985 -11.53842 -11.46894  -1.48451
  Beta  occ. eigenvalues --   -1.18016  -1.04180  -0.99577  -0.90133  -0.83513
  Beta  occ. eigenvalues --   -0.76255  -0.73581  -0.72149
  Beta virt. eigenvalues --   -0.18540  -0.10033  -0.08999  -0.07348  -0.06667
  Beta virt. eigenvalues --   -0.05708  -0.04179  -0.03300  -0.01772   0.00687
  Beta virt. eigenvalues --    0.00727   0.02431   0.03479   0.03798   0.04579

 Mulliken charges and spin densities:
               1          2
     1  C    0.021850   0.087988
     2  C    0.270802  -0.230068
     3  H    0.305938  -0.006168
     4  H    0.231784  -0.088909
     5  C   -0.389947   1.244246
     6  H    0.231784  -0.088909
     7  C    0.021850   0.087988
     8  H    0.305938  -0.006168
 Sum of Mulliken charges =   1.00000   1.00000

 Dipole moment (field-independent basis, Debye):
    X=             -0.0000    Y=             -0.0000    Z=             -1.0432  Tot=              1.0432
 Quadrupole moment (field-independent basis, Debye-Ang):
   XX=            -22.4808   YY=            -14.6573   ZZ=            -10.0602
   XY=              0.0000   XZ=              0.0000   YZ=             -0.0000

 PMP3-0=-153.9938458\MP4SDQ=-153.9969051\CCSD=-153.997685\CCSD(T)=-154.
 Normal termination of Gaussian 09 at Tue Oct 10 14:24:57 2017.
