 Gaussian 09, Revision E.01,
 Gaussian 09:  ES64L-G09RevE.01 30-Nov-2015

 -----------------------------------
 #p ccsd(t,maxcyc=200)/6-311++G(d,p)
 -----------------------------------

 -------------
 ccsd(t) iener
 -------------
 Symbolic Z-matrix:
 Charge =  1 Multiplicity = 4

                         Standard orientation:
 ---------------------------------------------------------------------
 Center     Atomic      Atomic             Coordinates (Angstroms)
 Number     Number       Type             X           Y           Z
 ---------------------------------------------------------------------
      1          6           0        1.509592   -0.503947   -0.000271
      2          1           0        1.837590   -0.913886   -0.946116
      3          1           0        1.829713   -0.923635    0.943975
      4          6           0        0.503936    0.616855    0.001010
      5          1           0        0.624313    1.293142    0.881238
      6          1           0        0.627028    1.298326   -0.874530
      7          6           0       -0.864380    0.245803   -0.001385
      8          6           0       -1.968922   -0.484370   -0.000114
 ---------------------------------------------------------------------

 SCF Done:  E(UHF) =  -153.296772952     A.U. after   31 cycles
 E2 =    -0.4348361210D+00 EUMP2 =    -0.15373160907276D+03
 CCSD(T)
 CCSD(T)= -0.15381532415D+03

 The electronic state is 4-A.
 Alpha  occ. eigenvalues --  -11.63938 -11.63518 -11.50683 -11.45243  -1.44412
 Alpha  occ. eigenvalues --   -1.29833  -1.12770  -0.94086  -0.89261  -0.84638
 Alpha  occ. eigenvalues --   -0.79764  -0.78357  -0.72305  -0.71300  -0.58627
 Alpha virt. eigenvalues --   -0.15520  -0.15041  -0.10088  -0.06786  -0.06539
 Alpha virt. eigenvalues --   -0.04553  -0.03068  -0.01954  -0.01601  -0.01297
 Alpha virt. eigenvalues --   -0.00335   0.01290   0.03542   0.04255   0.04478

  Beta  occ. eigenvalues --  -11.61980 -11.60966 -11.51203 -11.42586  -1.33373
  Beta  occ. eigenvalues --   -1.21781  -1.04135  -0.88552  -0.84992  -0.78111
  Beta  occ. eigenvalues --   -0.74229  -0.73381
  Beta virt. eigenvalues --   -0.27342  -0.26733  -0.10452  -0.08717  -0.07048
  Beta virt. eigenvalues --   -0.06597  -0.05757  -0.03488  -0.02922  -0.02848
  Beta virt. eigenvalues --   -0.01587  -0.00903   0.00226   0.01983   0.03699

 Mulliken charges and spin densities:
               1          2
     1  C   -0.167109   1.323824
     2  H    0.198160  -0.104410
     3  H    0.197624  -0.104474
     4  C   -0.748958  -0.283066
     5  H    0.264769   0.078406
     6  H    0.264255   0.078043
     7  C    0.531901   1.129564
     8  C    0.459358   0.882114
 Sum of Mulliken charges =   1.00000   3.00000

 Dipole moment (field-independent basis, Debye):
    X=             -1.4281    Y=              1.4486    Z=             -0.0022  Tot=              2.0342
 Quadrupole moment (field-independent basis, Debye-Ang):
   XX=            -14.8758   YY=            -20.0895   ZZ=            -19.5891
   XY=             -1.4299   XZ=              0.0003   YZ=             -0.0019

 =-153.7818868\MP4SDQ=-153.7858408\CCSD=-153.7942353\CCSD(T)=-153.81532
 Normal termination of Gaussian 09 at Tue Oct 10 14:58:28 2017.
