 Gaussian 09, Revision E.01,
 Gaussian 09:  ES64L-G09RevE.01 30-Nov-2015

 -----------------------------------
 #p ccsd(t,maxcyc=200)/6-311++G(d,p)
 -----------------------------------

 -------------
 ccsd(t) iener
 -------------
 Symbolic Z-matrix:
 Charge =  1 Multiplicity = 4

                         Standard orientation:
 ---------------------------------------------------------------------
 Center     Atomic      Atomic             Coordinates (Angstroms)
 Number     Number       Type             X           Y           Z
 ---------------------------------------------------------------------
      1          6           0        0.408673   -0.442767   -0.000347
      2          6           0        1.673339    0.125492    0.000441
      3          6           0       -2.011507   -0.163805    0.000650
      4          6           0       -0.739683    0.373126   -0.000812
      5          1           0        2.562650   -0.496487    0.000422
      6          1           0        1.811012    1.202824    0.000008
      7          1           0       -0.652276    1.463123    0.000460
      8          1           0        0.293687   -1.521735   -0.000480
 ---------------------------------------------------------------------

 SCF Done:  E(UHF) =  -153.380628188     A.U. after   23 cycles
 E2 =    -0.4314449926D+00 EUMP2 =    -0.15381207318019D+03
 CCSD(T)
 CCSD(T)= -0.15388282641D+03

 The electronic state is 4-A.
 Alpha  occ. eigenvalues --  -11.55253 -11.53318 -11.52850 -11.51941  -1.37448
 Alpha  occ. eigenvalues --   -1.28232  -1.09185  -1.00253  -0.89071  -0.88172
 Alpha  occ. eigenvalues --   -0.79156  -0.78591  -0.72409  -0.64756  -0.63784
 Alpha virt. eigenvalues --   -0.17887  -0.08996  -0.07531  -0.06298  -0.05584
 Alpha virt. eigenvalues --   -0.03619  -0.03572  -0.02580  -0.00670   0.00256
 Alpha virt. eigenvalues --    0.00477   0.02347   0.03694   0.05140   0.05253

  Beta  occ. eigenvalues --  -11.53724 -11.51794 -11.51670 -11.47792  -1.34479
  Beta  occ. eigenvalues --   -1.18946  -1.02783  -0.94654  -0.86600  -0.82123
  Beta  occ. eigenvalues --   -0.77664  -0.66393
  Beta virt. eigenvalues --   -0.22898  -0.16738  -0.08779  -0.07811  -0.07245
  Beta virt. eigenvalues --   -0.06728  -0.05257  -0.03793  -0.02646  -0.00628
  Beta virt. eigenvalues --   -0.00463  -0.00411   0.00897   0.01398   0.04403

 Mulliken charges and spin densities:
               1          2
     1  C    0.216969   0.058070
     2  C   -0.340173   0.667590
     3  C    0.190607   2.564380
     4  C   -0.081170  -0.271345
     5  H    0.256298  -0.049850
     6  H    0.227664  -0.045061
     7  H    0.252563   0.072747
     8  H    0.277241   0.003470
 Sum of Mulliken charges =   1.00000   3.00000

 Dipole moment (field-independent basis, Debye):
    X=              1.2540    Y=              0.2726    Z=              0.0010  Tot=              1.2833
 Quadrupole moment (field-independent basis, Debye-Ang):
   XX=             -7.8489   YY=            -17.4751   ZZ=            -23.2231
   XY=              0.1218   XZ=             -0.0014   YZ=              0.0008

 -0=-153.8549345\MP4SDQ=-153.8573659\CCSD=-153.8628825\CCSD(T)=-153.882
 Normal termination of Gaussian 09 at Tue Oct 10 15:16:12 2017.
