 Gaussian 09, Revision E.01,
 Gaussian 09:  ES64L-G09RevE.01 30-Nov-2015

 -----------------------------------
 #p ccsd(t,maxcyc=200)/6-311++G(d,p)
 -----------------------------------

 -------------
 ccsd(t) iener
 -------------
 Symbolic Z-matrix:
 Charge =  0 Multiplicity = 3

                         Standard orientation:
 ---------------------------------------------------------------------
 Center     Atomic      Atomic             Coordinates (Angstroms)
 Number     Number       Type             X           Y           Z
 ---------------------------------------------------------------------
      1          6           0       -0.000000   -0.000000    1.078929
      2          1           0        0.000000    2.124896    0.203495
      3          6           0        0.000000    1.047452    0.171951
      4          1           0       -0.000000   -2.124896    0.203495
      5          6           0       -0.000000   -1.047452    0.171951
      6          6           0        0.000000    0.000000   -0.962646
      7          1           0       -0.900891    0.000000   -1.584048
      8          1           0        0.900891   -0.000000   -1.584048
 ---------------------------------------------------------------------

 SCF Done:  E(UHF) =  -153.665746779     A.U. after   16 cycles
 E2 =    -0.5025885603D+00 EUMP2 =    -0.15416833533886D+03
 CCSD(T)
 CCSD(T)= -0.15424001587D+03

 The electronic state is 3-A2.
 Alpha  occ. eigenvalues --  -11.26062 -11.25308 -11.25201 -11.25176  -1.19112
 Alpha  occ. eigenvalues --   -0.91463  -0.89161  -0.72183  -0.62772  -0.62504
 Alpha  occ. eigenvalues --   -0.57251  -0.50967  -0.43039  -0.39251  -0.33137
 Alpha virt. eigenvalues --    0.04278   0.04977   0.06452   0.06662   0.10571
 Alpha virt. eigenvalues --    0.13467   0.13545   0.13553   0.15069   0.15136
 Alpha virt. eigenvalues --    0.15854   0.17078   0.19024   0.19163   0.20780

  Beta  occ. eigenvalues --  -11.25418 -11.24819 -11.23096 -11.23093  -1.14105
  Beta  occ. eigenvalues --   -0.86972  -0.83599  -0.69035  -0.59105  -0.54612
  Beta  occ. eigenvalues --   -0.54538  -0.49078  -0.37725
  Beta virt. eigenvalues --    0.04324   0.05066   0.05351   0.06738   0.08039
  Beta virt. eigenvalues --    0.08176   0.13061   0.13604   0.13900   0.14412
  Beta virt. eigenvalues --    0.16189   0.16334   0.17963   0.19292   0.19767

 Mulliken charges and spin densities:
               1          2
     1  C    0.076645  -0.237252
     2  H    0.182618  -0.053691
     3  C   -0.127686   1.333766
     4  H    0.182618  -0.053691
     5  C   -0.127686   1.333766
     6  C   -0.419723  -0.399410
     7  H    0.116607   0.038256
     8  H    0.116607   0.038256
 Sum of Mulliken charges =   0.00000   2.00000

 Dipole moment (field-independent basis, Debye):
    X=              0.0000    Y=             -0.0000    Z=             -1.2357  Tot=              1.2357
 Quadrupole moment (field-independent basis, Debye-Ang):
   XX=            -25.9861   YY=            -21.3388   ZZ=            -25.6490
   XY=              0.0000   XZ=             -0.0000   YZ=              0.0000

 =-154.207667\MP4SDQ=-154.2100685\CCSD=-154.2152431\CCSD(T)=-154.240015
 Normal termination of Gaussian 09 at Tue Oct 10 12:28:43 2017.
