 Gaussian 09, Revision E.01,
 Gaussian 09:  ES64L-G09RevE.01 30-Nov-2015

 -----------------------------------
 #p ccsd(t,maxcyc=200)/6-311++G(d,p)
 -----------------------------------

 -------------
 ccsd(t) iener
 -------------
 Symbolic Z-matrix:
 Charge =  0 Multiplicity = 3

                         Standard orientation:
 ---------------------------------------------------------------------
 Center     Atomic      Atomic             Coordinates (Angstroms)
 Number     Number       Type             X           Y           Z
 ---------------------------------------------------------------------
      1          6           0       -0.954706   -0.717988   -0.354671
      2          6           0        0.208026   -0.199548    0.449080
      3          1           0        0.245169   -0.467955    1.508471
      4          6           0        1.490872    0.155762   -0.173946
      5          1           0        2.171995   -0.620350   -0.507185
      6          1           0        1.789437    1.190271   -0.304166
      7          6           0       -1.171275    0.501277   -0.042882
      8          1           0       -1.644101    1.461016    0.037388
 ---------------------------------------------------------------------

 SCF Done:  E(UHF) =  -153.617276860     A.U. after   28 cycles
 E2 =    -0.5090046995D+00 EUMP2 =    -0.15412628155995D+03
 CCSD(T)
 CCSD(T)= -0.15419518229D+03

 The electronic state is 3-A.
 Alpha  occ. eigenvalues --  -11.28207 -11.27538 -11.25340 -11.23984  -1.17982
 Alpha  occ. eigenvalues --   -0.99270  -0.79982  -0.75397  -0.62717  -0.61184
 Alpha  occ. eigenvalues --   -0.57739  -0.53787  -0.39267  -0.36826  -0.36278
 Alpha virt. eigenvalues --    0.04033   0.05600   0.06260   0.07063   0.09715
 Alpha virt. eigenvalues --    0.11028   0.12026   0.13678   0.14341   0.16019
 Alpha virt. eigenvalues --    0.16829   0.17555   0.18315   0.18850   0.19065

  Beta  occ. eigenvalues --  -11.27561 -11.26242 -11.24452 -11.21674  -1.14940
  Beta  occ. eigenvalues --   -0.92046  -0.77573  -0.71842  -0.59304  -0.58120
  Beta  occ. eigenvalues --   -0.51576  -0.43390  -0.38546
  Beta virt. eigenvalues --    0.03554   0.04752   0.05728   0.06427   0.07328
  Beta virt. eigenvalues --    0.08722   0.10747   0.11780   0.13408   0.14073
  Beta virt. eigenvalues --    0.16197   0.17497   0.18117   0.18241   0.19143

 Mulliken charges and spin densities:
               1          2
     1  C   -0.309972   1.001411
     2  C    0.133750   0.177753
     3  H    0.139319   0.006787
     4  C   -0.478056   1.324798
     5  H    0.126051  -0.085393
     6  H    0.121696  -0.094896
     7  C    0.021192  -0.353931
     8  H    0.246020   0.023472
 Sum of Mulliken charges =  -0.00000   2.00000

 Dipole moment (field-independent basis, Debye):
    X=              0.3291    Y=              1.3412    Z=              0.6037  Tot=              1.5072
 Quadrupole moment (field-independent basis, Debye-Ang):
   XX=            -24.2685   YY=            -23.5826   ZZ=            -25.7622
   XY=             -2.4182   XZ=             -0.6431   YZ=             -0.2662

 -154.1629925\MP4SDQ=-154.1646804\CCSD=-154.1700095\CCSD(T)=-154.195182
 Normal termination of Gaussian 09 at Tue Oct 10 13:10:03 2017.
