 Gaussian 09, Revision E.01,
 Gaussian 09:  ES64L-G09RevE.01 30-Nov-2015

 -----------------------------------
 #p ccsd(t,maxcyc=200)/6-311++G(d,p)
 -----------------------------------

 -------------
 ccsd(t) iener
 -------------
 Symbolic Z-matrix:
 Charge =  1 Multiplicity = 2

                         Standard orientation:
 ---------------------------------------------------------------------
 Center     Atomic      Atomic             Coordinates (Angstroms)
 Number     Number       Type             X           Y           Z
 ---------------------------------------------------------------------
      1          6           0        0.088428    1.025247    0.000000
      2          1           0       -0.826002    1.610897    0.000000
      3          1           0        0.996808    1.632682    0.000000
      4          6           0       -0.529486   -1.033041   -0.000000
      5          6           0        0.088428   -0.195951    0.908748
      6          1           0        0.707202   -0.422702    1.774322
      7          6           0        0.088428   -0.195951   -0.908748
      8          1           0        0.707202   -0.422702   -1.774322
 ---------------------------------------------------------------------

 SCF Done:  E(UHF) =  -153.406611063     A.U. after   23 cycles
 E2 =    -0.4979798990D+00 EUMP2 =    -0.15390459096223D+03
 CCSD(T)
 CCSD(T)= -0.15396577066D+03

 The electronic state is 2-A'.
 Alpha  occ. eigenvalues --  -11.56484 -11.56452 -11.55861 -11.50322  -1.49695
 Alpha  occ. eigenvalues --   -1.18238  -1.12192  -0.98392  -0.91799  -0.83611
 Alpha  occ. eigenvalues --   -0.82582  -0.75121  -0.73557  -0.65825
 Alpha virt. eigenvalues --   -0.13361  -0.13034  -0.08972  -0.07192  -0.07177
 Alpha virt. eigenvalues --   -0.06178  -0.02846  -0.01788  -0.01576  -0.00707
 Alpha virt. eigenvalues --   -0.00667   0.02477   0.02936   0.03641   0.04171

  Beta  occ. eigenvalues --  -11.56601 -11.56583 -11.52428 -11.50008  -1.47326
  Beta  occ. eigenvalues --   -1.14592  -1.12245  -0.97844  -0.85877  -0.82406
  Beta  occ. eigenvalues --   -0.80480  -0.75140  -0.65845
  Beta virt. eigenvalues --   -0.17519  -0.14592  -0.10096  -0.07909  -0.07145
  Beta virt. eigenvalues --   -0.06938  -0.05252  -0.01825  -0.01773  -0.01471
  Beta virt. eigenvalues --   -0.00622   0.00030   0.02752   0.02918   0.03869

 Mulliken charges and spin densities:
               1          2
     1  C   -0.637011   0.083034
     2  H    0.244591  -0.027817
     3  H    0.227235   0.028359
     4  C    0.066162   0.996331
     5  C    0.254151  -0.051818
     6  H    0.295361   0.011865
     7  C    0.254151  -0.051818
     8  H    0.295361   0.011865
 Sum of Mulliken charges =   1.00000   1.00000

 Dipole moment (field-independent basis, Debye):
    X=              1.1031    Y=              0.1365    Z=             -0.0000  Tot=              1.1115
 Quadrupole moment (field-independent basis, Debye-Ang):
   XX=            -19.9129   YY=            -17.8841   ZZ=            -14.7331
   XY=             -0.0566   XZ=             -0.0000   YZ=              0.0000

 \MP4SDQ=-153.9386452\CCSD=-153.9403386\CCSD(T)=-153.9657707\S2=0.79300
 Normal termination of Gaussian 09 at Tue Oct 10 14:08:00 2017.
