 Gaussian 09, Revision E.01,
 Gaussian 09:  ES64L-G09RevE.01 30-Nov-2015

 -----------------------------------
 #p ccsd(t,maxcyc=200)/6-311++G(d,p)
 -----------------------------------

 -------------
 ccsd(t) iener
 -------------
 Symbolic Z-matrix:
 Charge =  0 Multiplicity = 1

                         Standard orientation:
 ---------------------------------------------------------------------
 Center     Atomic      Atomic             Coordinates (Angstroms)
 Number     Number       Type             X           Y           Z
 ---------------------------------------------------------------------
      1          6           0        0.046416    0.665958   -0.000000
      2          1           0       -0.863425   -1.067960    0.000000
      3          1           0       -0.438548    1.078920    0.893032
      4          1           0        1.090700    0.979002   -0.000000
      5          1           0       -0.438548    1.078920   -0.893032
      6          8           0        0.046416   -0.758079    0.000000
 ---------------------------------------------------------------------

 SCF Done:  E(RHF) =  -115.079412725     A.U. after   11 cycles
 E2 =    -0.3657314968D+00 EUMP2 =    -0.11544514422141D+03
 CCSD(T)
 CCSD(T)= -0.11547718809D+03

 The electronic state is 1-A'.
 Alpha  occ. eigenvalues --  -20.55837 -11.27524  -1.35743  -0.92736  -0.69142
 Alpha  occ. eigenvalues --   -0.61994  -0.59356  -0.50388  -0.45212
 Alpha virt. eigenvalues --    0.03904   0.06397   0.07266   0.08071   0.12716
 Alpha virt. eigenvalues --    0.14616   0.15942   0.18320   0.27937   0.28853
 Alpha virt. eigenvalues --    0.29694   0.29696   0.31057   0.32953   0.35041

 Mulliken charges:
               1
     1  C   -0.214405
     2  H    0.257635
     3  H    0.104943
     4  H    0.133874
     5  H    0.104943
     6  O   -0.386991
 Sum of Mulliken charges =   0.00000

 Dipole moment (field-independent basis, Debye):
    X=             -1.5840    Y=              1.2363    Z=             -0.0000  Tot=              2.0094
 Quadrupole moment (field-independent basis, Debye-Ang):
   XX=            -11.7039   YY=            -13.4627   ZZ=            -13.7728
   XY=              2.3269   XZ=             -0.0000   YZ=              0.0000

 DQ=-115.4633675\MP4SDQ=-115.4665369\CCSD=-115.4663996\CCSD(T)=-115.477
 Normal termination of Gaussian 09 at Tue Oct 10 15:45:12 2017.
