 Gaussian 09, Revision E.01,
 Gaussian 09:  ES64L-G09RevE.01 30-Nov-2015

 -----------------------------------
 #p ccsd(t,maxcyc=200)/6-311++G(d,p)
 -----------------------------------

 -------------
 ccsd(t) iener
 -------------
 Symbolic Z-matrix:
 Charge =  1 Multiplicity = 2

                         Standard orientation:
 ---------------------------------------------------------------------
 Center     Atomic      Atomic             Coordinates (Angstroms)
 Number     Number       Type             X           Y           Z
 ---------------------------------------------------------------------
      1          6           0        0.025795    0.638281    0.000000
      2          1           0        0.726793    0.960330    0.825098
      3          1           0        0.726793    0.960330   -0.825098
      4          1           0       -0.870663   -1.128180   -0.000000
      5          1           0       -0.944056    1.129036    0.000000
      6          8           0        0.025795   -0.718900   -0.000000
 ---------------------------------------------------------------------

 SCF Done:  E(UHF) =  -114.717792011     A.U. after   15 cycles
 E2 =    -0.3217663583D+00 EUMP2 =    -0.11503955836922D+03
 CCSD(T)
 CCSD(T)= -0.11508320210D+03

 The electronic state is 2-A".
 Alpha  occ. eigenvalues --  -21.04337 -11.56599  -1.83758  -1.26915  -1.07909
 Alpha  occ. eigenvalues --   -1.07416  -0.99688  -0.84077  -0.78951
 Alpha virt. eigenvalues --   -0.13922  -0.09491  -0.07122  -0.06558  -0.04039
 Alpha virt. eigenvalues --   -0.03258  -0.00855   0.01000   0.02655   0.06285
 Alpha virt. eigenvalues --    0.06702   0.08721   0.09288   0.12748   0.15982

  Beta  occ. eigenvalues --  -21.00228 -11.56804  -1.71104  -1.23995  -1.04707
  Beta  occ. eigenvalues --   -0.95820  -0.82338  -0.81970
  Beta virt. eigenvalues --   -0.27091  -0.13522  -0.09312  -0.07099  -0.06432
  Beta virt. eigenvalues --   -0.03930  -0.02438  -0.00738   0.01384   0.02762
  Beta virt. eigenvalues --    0.07132   0.07408   0.09480   0.11957   0.13152

 Mulliken charges and spin densities:
               1          2
     1  C   -0.451776  -0.142862
     2  H    0.301273   0.123663
     3  H    0.301273   0.123663
     4  H    0.367870  -0.052803
     5  H    0.230879  -0.002978
     6  O    0.250482   0.951316
 Sum of Mulliken charges =   1.00000   1.00000

 Dipole moment (field-independent basis, Debye):
    X=             -1.4685    Y=             -0.0146    Z=             -0.0000  Tot=              1.4686
 Quadrupole moment (field-independent basis, Debye-Ang):
   XX=             -8.1030   YY=             -6.5392   ZZ=            -10.4562
   XY=              3.2390   XZ=             -0.0000   YZ=             -0.0000

 -115.0638573\MP4SDQ=-115.0685959\CCSD=-115.0729305\CCSD(T)=-115.083202
 Normal termination of Gaussian 09 at Tue Oct 10 15:44:42 2017.
