 Gaussian 09, Revision E.01,
 Gaussian 09:  ES64L-G09RevE.01 30-Nov-2015

 -----------------------------------
 #p ccsd(t,maxcyc=200)/6-311++G(d,p)
 -----------------------------------

 -------------
 ccsd(t) iener
 -------------
 Symbolic Z-matrix:
 Charge =  1 Multiplicity = 3

                         Standard orientation:
 ---------------------------------------------------------------------
 Center     Atomic      Atomic             Coordinates (Angstroms)
 Number     Number       Type             X           Y           Z
 ---------------------------------------------------------------------
      1          6           0        0.000000    0.000000    0.163458
      2          1           0        0.000000    0.000000   -0.980745
 ---------------------------------------------------------------------

 SCF Done:  E(UHF) =  -37.8999616498     A.U. after   11 cycles
 E2 =    -0.5076574520D-01 EUMP2 =    -0.37950727394956D+02
 CCSD(T)
 CCSD(T)= -0.37968782299D+02

 Unable to determine electronic state:  an orbital has unidentified symmetry.
 Alpha  occ. eigenvalues --  -11.80895  -1.30777  -0.97943  -0.86707
 Alpha virt. eigenvalues --   -0.34072  -0.13609  -0.07920  -0.06960  -0.05805
 Alpha virt. eigenvalues --   -0.03519   0.00403   0.28250   0.35476   0.37734
 Alpha virt. eigenvalues --    0.40057   0.57546   0.88980   0.91554   1.12187

  Beta  occ. eigenvalues --  -11.74797  -1.11378
  Beta virt. eigenvalues --   -0.33608  -0.27370  -0.21929  -0.12683  -0.05209
  Beta virt. eigenvalues --   -0.04823  -0.03213  -0.01060   0.03211   0.32399
  Beta virt. eigenvalues --    0.43020   0.47330   0.48705   0.62511   0.98152

 Mulliken charges and spin densities:
               1          2
     1  C    0.667849   1.874856
     2  H    0.332151   0.125144
 Sum of Mulliken charges =   1.00000   2.00000

 Dipole moment (field-independent basis, Debye):
    X=              0.0000    Y=              0.0000    Z=             -0.6537  Tot=              0.6537
 Quadrupole moment (field-independent basis, Debye-Ang):
   XX=             -5.2281   YY=             -3.6435   ZZ=             -2.5186
   XY=              0.0000   XZ=              0.0000   YZ=              0.0000

 9657095\CCSD=-37.9677412\CCSD(T)=-37.9687823\S2=2.002956\S2-1=1.99993\
 Normal termination of Gaussian 09 at Tue Oct 10 17:24:23 2017.
