 Gaussian 09, Revision E.01,
 Gaussian 09:  ES64L-G09RevE.01 30-Nov-2015

 -----------------------------------
 #p ccsd(t,maxcyc=200)/6-311++G(d,p)
 -----------------------------------

 -------------
 ccsd(t) iener
 -------------
 Symbolic Z-matrix:
 Charge =  0 Multiplicity = 2

                         Standard orientation:
 ---------------------------------------------------------------------
 Center     Atomic      Atomic             Coordinates (Angstroms)
 Number     Number       Type             X           Y           Z
 ---------------------------------------------------------------------
      1          6           0        0.000000    0.000000    0.160906
      2          1           0        0.000000    0.000000   -0.965436
 ---------------------------------------------------------------------

 SCF Done:  E(UHF) =  -38.2782260839     A.U. after   12 cycles
 E2 =    -0.8592146792D-01 EUMP2 =    -0.38364147551819D+02
 CCSD(T)
 CCSD(T)= -0.38391446008D+02

 Unable to determine electronic state:  an orbital has unidentified symmetry.
 Alpha  occ. eigenvalues --  -11.32713  -0.87887  -0.47277  -0.42417
 Alpha virt. eigenvalues --    0.02042   0.04646   0.12300   0.12964   0.15712
 Alpha virt. eigenvalues --    0.17399   0.25958   0.58323   0.68219   0.73745
 Alpha virt. eigenvalues --    0.76965   0.90601   1.30630   1.33181   1.53552

  Beta  occ. eigenvalues --  -11.30341  -0.78448  -0.43277
  Beta virt. eigenvalues --    0.03506   0.04830   0.06574   0.13255   0.16771
  Beta virt. eigenvalues --    0.17916   0.20242   0.26919   0.59526   0.75162
  Beta virt. eigenvalues --    0.78380   0.79714   0.93851   1.33643   1.36921

 Mulliken charges and spin densities:
               1          2
     1  C   -0.045177   1.063566
     2  H    0.045177  -0.063566
 Sum of Mulliken charges =  -0.00000   1.00000

 Dipole moment (field-independent basis, Debye):
    X=              0.0000    Y=              0.0000    Z=             -1.6777  Tot=              1.6777
 Quadrupole moment (field-independent basis, Debye-Ang):
   XX=             -5.6401   YY=             -7.7208   ZZ=             -7.9153
   XY=              0.0000   XZ=              0.0000   YZ=              0.0000

 6673\CCSD=-38.3891811\CCSD(T)=-38.391446\S2=0.757249\S2-1=0.751048\S2A
 Normal termination of Gaussian 09 at Tue Oct 10 17:23:52 2017.
