 Gaussian 09, Revision E.01,
 Gaussian 09:  ES64L-G09RevE.01 30-Nov-2015

 -----------------------------------
 #p ccsd(t,maxcyc=200)/6-311++G(d,p)
 -----------------------------------

 -------------
 ccsd(t) iener
 -------------
 Symbolic Z-matrix:
 Charge =  1 Multiplicity = 1

                         Standard orientation:
 ---------------------------------------------------------------------
 Center     Atomic      Atomic             Coordinates (Angstroms)
 Number     Number       Type             X           Y           Z
 ---------------------------------------------------------------------
      1          6           0        0.000000    0.000000    0.162822
      2          1           0        0.000000    0.000000   -0.976935
 ---------------------------------------------------------------------

 SCF Done:  E(RHF) =  -37.9045375391     A.U. after    8 cycles
 E2 =    -0.7369238120D-01 EUMP2 =    -0.37978229920330D+02
 CCSD(T)
 CCSD(T)= -0.38010480422D+02

 The electronic state is 1-SG.
 Alpha  occ. eigenvalues --  -11.83796  -1.24526  -0.87281
 Alpha virt. eigenvalues --   -0.33087  -0.33087  -0.13859  -0.06406  -0.05717
 Alpha virt. eigenvalues --   -0.05717  -0.02364   0.00412   0.29505   0.40236
 Alpha virt. eigenvalues --    0.40236   0.42703   0.56990   0.93932   0.93932

 Mulliken charges:
               1
     1  C    0.773186
     2  H    0.226814
 Sum of Mulliken charges =   1.00000

 Dipole moment (field-independent basis, Debye):
    X=              0.0000    Y=              0.0000    Z=             -1.5905  Tot=              1.5905
 Quadrupole moment (field-independent basis, Debye-Ang):
   XX=             -3.8783   YY=             -3.8783   ZZ=             -4.5890
   XY=              0.0000   XZ=              0.0000   YZ=              0.0000

 Q=-38.0035727\MP4SDQ=-38.0038723\CCSD=-38.0088016\CCSD(T)=-38.0104804\
 Normal termination of Gaussian 09 at Tue Oct 10 17:24:16 2017.
