 Gaussian 09, Revision E.01,
 Gaussian 09:  ES64L-G09RevE.01 30-Nov-2015

 -----------------------------------
 #p ccsd(t,maxcyc=200)/6-311++G(d,p)
 -----------------------------------

 -------------
 ccsd(t) iener
 -------------
 Symbolic Z-matrix:
 Charge =  0 Multiplicity = 4

                         Standard orientation:
 ---------------------------------------------------------------------
 Center     Atomic      Atomic             Coordinates (Angstroms)
 Number     Number       Type             X           Y           Z
 ---------------------------------------------------------------------
      1          6           0        0.000000    0.000000    0.156547
      2          1           0        0.000000    0.000000   -0.939285
 ---------------------------------------------------------------------

 SCF Done:  E(UHF) =  -38.2867276758     A.U. after   12 cycles
 E2 =    -0.6596071771D-01 EUMP2 =    -0.38352688393541D+02
 CCSD(T)
 CCSD(T)= -0.38369641704D+02

 The electronic state is 4-SG.
 Alpha  occ. eigenvalues --  -11.30114  -0.94482  -0.56836  -0.43614  -0.43614
 Alpha virt. eigenvalues --    0.04915   0.11256   0.12221   0.12221   0.17511
 Alpha virt. eigenvalues --    0.25981   0.57138   0.67977   0.67977   0.72144
 Alpha virt. eigenvalues --    0.91854   1.29146   1.29146   1.49910   1.49910

  Beta  occ. eigenvalues --  -11.22636  -0.68783
  Beta virt. eigenvalues --    0.03006   0.05379   0.08189   0.08189   0.15642
  Beta virt. eigenvalues --    0.20327   0.24174   0.24174   0.30422   0.63202
  Beta virt. eigenvalues --    0.83232   0.83232   0.86328   1.00327   1.41376

 Mulliken charges and spin densities:
               1          2
     1  C   -0.149202   2.979313
     2  H    0.149202   0.020687
 Sum of Mulliken charges =  -0.00000   3.00000

 Dipole moment (field-independent basis, Debye):
    X=              0.0000    Y=              0.0000    Z=             -0.5774  Tot=              0.5774
 Quadrupole moment (field-independent basis, Debye-Ang):
   XX=             -7.3358   YY=             -7.3358   ZZ=             -5.4477
   XY=              0.0000   XZ=              0.0000   YZ=              0.0000

 4SDQ=-38.36704\CCSD=-38.3682775\CCSD(T)=-38.3696417\S2=3.754285\S2-1=3
 Normal termination of Gaussian 09 at Tue Oct 10 17:24:14 2017.
