 Gaussian 09, Revision E.01,
 Gaussian 09:  ES64L-G09RevE.01 30-Nov-2015

 -----------------------------------
 #p ccsd(t,maxcyc=200)/6-311++G(d,p)
 -----------------------------------

 -------------
 ccsd(t) iener
 -------------
 Symbolic Z-matrix:
 Charge =  0 Multiplicity = 2

                         Standard orientation:
 ---------------------------------------------------------------------
 Center     Atomic      Atomic             Coordinates (Angstroms)
 Number     Number       Type             X           Y           Z
 ---------------------------------------------------------------------
      1          1           0        0.000000   -0.000000    1.026821
      2          6           0        0.000000    0.636623   -0.085568
      3          6           0       -0.000000   -0.636623   -0.085568
 ---------------------------------------------------------------------

 SCF Done:  E(UHF) =  -76.0988664417     A.U. after   16 cycles
 E2 =    -0.2629154594D+00 EUMP2 =    -0.76361781901053D+02
 CCSD(T)
 CCSD(T)= -0.76390762043D+02

 The electronic state is 2-A1.
 Alpha  occ. eigenvalues --  -11.32937 -11.32653  -1.15083  -0.63043  -0.58209
 Alpha  occ. eigenvalues --   -0.52794  -0.45262
 Alpha virt. eigenvalues --    0.05132   0.09629   0.09926   0.10694   0.10759
 Alpha virt. eigenvalues --    0.12063   0.13726   0.19501   0.20555   0.21551
 Alpha virt. eigenvalues --    0.22875   0.23018   0.49772   0.51887   0.59773

  Beta  occ. eigenvalues --  -11.31396 -11.31216  -1.09457  -0.57216  -0.45762
  Beta  occ. eigenvalues --   -0.43899
  Beta virt. eigenvalues --   -0.04800   0.06088   0.09867   0.11031   0.11483
  Beta virt. eigenvalues --    0.11669   0.12170   0.14352   0.20986   0.21991
  Beta virt. eigenvalues --    0.23264   0.23506   0.23535   0.51730   0.52803

 Mulliken charges and spin densities:
               1          2
     1  H    0.153120  -0.010794
     2  C   -0.076560   0.505397
     3  C   -0.076560   0.505397
 Sum of Mulliken charges =   0.00000   1.00000

 Dipole moment (field-independent basis, Debye):
    X=              0.0000    Y=             -0.0000    Z=              0.8519  Tot=              0.8519
 Quadrupole moment (field-independent basis, Debye-Ang):
   XX=            -13.7380   YY=            -13.3648   ZZ=            -10.8649
   XY=             -0.0000   XZ=              0.0000   YZ=             -0.0000

 Normal termination of Gaussian 09 at Tue Oct 10 16:06:02 2017.
