 Gaussian 09, Revision E.01,
 Gaussian 09:  ES64L-G09RevE.01 30-Nov-2015

 -----------------------------------
 #p ccsd(t,maxcyc=200)/6-311++G(d,p)
 -----------------------------------

 -------------
 ccsd(t) iener
 -------------
 Symbolic Z-matrix:
 Charge =  0 Multiplicity = 4

                         Standard orientation:
 ---------------------------------------------------------------------
 Center     Atomic      Atomic             Coordinates (Angstroms)
 Number     Number       Type             X           Y           Z
 ---------------------------------------------------------------------
      1          6           0       -0.075028    0.825952    0.000000
      2          6           0       -0.075028   -0.632230   -0.000000
      3          1           0        0.900332   -1.162332   -0.000000
 ---------------------------------------------------------------------

 SCF Done:  E(UHF) =  -76.0731167208     A.U. after   20 cycles
 E2 =    -0.1718345873D+00 EUMP2 =    -0.76244951308096D+02
 CCSD(T)
 CCSD(T)= -0.76291979882D+02

 The electronic state is 4-A".
 Alpha  occ. eigenvalues --  -11.33496 -11.30732  -1.08429  -0.77205  -0.59161
 Alpha  occ. eigenvalues --   -0.48221  -0.47817  -0.35496
 Alpha virt. eigenvalues --    0.04590   0.06998   0.10039   0.11090   0.11221
 Alpha virt. eigenvalues --    0.14858   0.15414   0.17840   0.18342   0.22512
 Alpha virt. eigenvalues --    0.26350   0.42339   0.60210   0.63691   0.66424

  Beta  occ. eigenvalues --  -11.29383 -11.28016  -0.90465  -0.66255  -0.42139
  Beta virt. eigenvalues --   -0.00254   0.01081   0.05050   0.10771   0.11902
  Beta virt. eigenvalues --    0.12139   0.14889   0.15058   0.15329   0.18786
  Beta virt. eigenvalues --    0.22700   0.24173   0.26762   0.30840   0.48627

 Mulliken charges and spin densities:
               1          2
     1  C   -0.061543   1.225682
     2  C   -0.042422   1.788341
     3  H    0.103965  -0.014022
 Sum of Mulliken charges =   0.00000   3.00000

 Dipole moment (field-independent basis, Debye):
    X=              0.2972    Y=             -2.2920    Z=             -0.0000  Tot=              2.3112
 Quadrupole moment (field-independent basis, Debye-Ang):
   XX=            -12.5569   YY=            -15.4263   ZZ=            -11.7813
   XY=             -1.0998   XZ=             -0.0000   YZ=             -0.0000

 6923\CCSD(T)=-76.2919799\S2=3.761872\S2-1=3.753007\S2A=3.750036\RMSD=3
 Normal termination of Gaussian 09 at Tue Oct 10 16:05:58 2017.
