 Gaussian 09, Revision E.01,
 Gaussian 09:  ES64L-G09RevE.01 30-Nov-2015

 -----------------------------------
 #p ccsd(t,maxcyc=200)/6-311++G(d,p)
 -----------------------------------

 -------------
 ccsd(t) iener
 -------------
 Symbolic Z-matrix:
 Charge =  0 Multiplicity = 2

                         Standard orientation:
 ---------------------------------------------------------------------
 Center     Atomic      Atomic             Coordinates (Angstroms)
 Number     Number       Type             X           Y           Z
 ---------------------------------------------------------------------
      1          6           0        0.000000    0.000000    0.473671
      2          6           0       -0.000000   -0.000000   -0.730413
      3          1           0        0.000000    0.000000    1.540453
 ---------------------------------------------------------------------

 SCF Done:  E(UHF) =  -76.1702293740     A.U. after   17 cycles
 E2 =    -0.2087372190D+00 EUMP2 =    -0.76378966593045D+02
 CCSD(T)
 CCSD(T)= -0.76425758793D+02

 The electronic state is 2-SG.
 Alpha  occ. eigenvalues --  -11.30131 -11.23985  -1.06092  -0.74065  -0.61179
 Alpha  occ. eigenvalues --   -0.45285  -0.45285
 Alpha virt. eigenvalues --    0.04248   0.08993   0.10875   0.10875   0.12838
 Alpha virt. eigenvalues --    0.12838   0.15335   0.18539   0.22406   0.24327
 Alpha virt. eigenvalues --    0.24327   0.35730   0.53784   0.59833   0.68699

  Beta  occ. eigenvalues --  -11.25691 -11.24544  -1.02608  -0.72834  -0.42717
  Beta  occ. eigenvalues --   -0.42717
  Beta virt. eigenvalues --    0.00942   0.04690   0.11896   0.12187   0.12187
  Beta virt. eigenvalues --    0.12632   0.12632   0.15330   0.18933   0.24805
  Beta virt. eigenvalues --    0.27780   0.27780   0.35036   0.57059   0.61798

 Mulliken charges and spin densities:
               1          2
     1  C   -0.201449  -0.951472
     2  C   -0.011470   1.843572
     3  H    0.212918   0.107900
 Sum of Mulliken charges =  -0.00000   1.00000

 Dipole moment (field-independent basis, Debye):
    X=              0.0000    Y=              0.0000    Z=              0.7207  Tot=              0.7207
 Quadrupole moment (field-independent basis, Debye-Ang):
   XX=            -12.9910   YY=            -12.9910   ZZ=             -8.2552
   XY=             -0.0000   XZ=              0.0000   YZ=             -0.0000

 \CCSD(T)=-76.4257588\S2=1.125792\S2-1=1.045847\S2A=0.842406\RMSD=4.018
 Normal termination of Gaussian 09 at Tue Oct 10 16:05:44 2017.
