 Gaussian 09, Revision E.01,
 Gaussian 09:  ES64L-G09RevE.01 30-Nov-2015

 -----------------------------------
 #p ccsd(t,maxcyc=200)/6-311++G(d,p)
 -----------------------------------

 -------------
 ccsd(t) iener
 -------------
 Symbolic Z-matrix:
 Charge =  1 Multiplicity = 1

                         Standard orientation:
 ---------------------------------------------------------------------
 Center     Atomic      Atomic             Coordinates (Angstroms)
 Number     Number       Type             X           Y           Z
 ---------------------------------------------------------------------
      1          6           0        0.042576   -0.792639    0.000000
      2          6           0        0.042576    0.544380    0.000000
      3          1           0       -0.510907    1.489555    0.000000
 ---------------------------------------------------------------------

 SCF Done:  E(RHF) =  -75.7121101705     A.U. after   15 cycles
 E2 =    -0.1928715549D+00 EUMP2 =    -0.75904981725337D+02
 CCSD(T)
 CCSD(T)= -0.75978990678D+02

 The electronic state is 1-A'.
 Alpha  occ. eigenvalues --  -11.70416 -11.69869  -1.39568  -1.08946  -0.80476
 Alpha  occ. eigenvalues --   -0.77203
 Alpha virt. eigenvalues --   -0.39092  -0.17104  -0.16841  -0.11578  -0.07470
 Alpha virt. eigenvalues --   -0.06257  -0.05878  -0.01952   0.00472   0.01096
 Alpha virt. eigenvalues --    0.02022   0.05886   0.07065   0.21998   0.35938

 Mulliken charges:
               1
     1  C    0.484976
     2  C    0.175947
     3  H    0.339077
 Sum of Mulliken charges =   1.00000

 Dipole moment (field-independent basis, Debye):
    X=              0.3651    Y=              2.6597    Z=              0.0000  Tot=              2.6846
 Quadrupole moment (field-independent basis, Debye-Ang):
   XX=             -7.3965   YY=             -6.3883   ZZ=            -11.3341
   XY=             -1.2758   XZ=              0.0000   YZ=              0.0000

 982\CCSD=-75.9563885\CCSD(T)=-75.9789907\RMSD=7.292e-09\PG=CS [SG(C2H1
 Normal termination of Gaussian 09 at Tue Oct 10 16:06:14 2017.
