 Gaussian 09, Revision E.01,
 Gaussian 09:  ES64L-G09RevE.01 30-Nov-2015

 -----------------------------------
 #p ccsd(t,maxcyc=200)/6-311++G(d,p)
 -----------------------------------

 -------------
 ccsd(t) iener
 -------------
 Symbolic Z-matrix:
 Charge =  1 Multiplicity = 3

                         Standard orientation:
 ---------------------------------------------------------------------
 Center     Atomic      Atomic             Coordinates (Angstroms)
 Number     Number       Type             X           Y           Z
 ---------------------------------------------------------------------
      1          6           0        0.000000   -0.000000   -0.758852
      2          6           0       -0.000000    0.000000    0.494977
      3          1           0       -0.000000   -0.000000    1.583249
 ---------------------------------------------------------------------

 SCF Done:  E(UHF) =  -75.8011474777     A.U. after   17 cycles
 E2 =    -0.1649813032D+00 EUMP2 =    -0.75966128780948D+02
 CCSD(T)
 CCSD(T)= -0.76010446577D+02

 Unable to determine electronic state:  an orbital has unidentified symmetry.
 Alpha  occ. eigenvalues --  -11.69941 -11.66227  -1.45366  -1.08790  -0.95832
 Alpha  occ. eigenvalues --   -0.84196  -0.80846
 Alpha virt. eigenvalues --   -0.19462  -0.15800  -0.10943  -0.08429  -0.06298
 Alpha virt. eigenvalues --   -0.05394  -0.03851   0.00102   0.00905   0.01505
 Alpha virt. eigenvalues --    0.04912   0.11615   0.28961   0.33159   0.38676

  Beta  occ. eigenvalues --  -11.66551 -11.63327  -1.33362  -1.05717  -0.77072
  Beta virt. eigenvalues --   -0.32057  -0.27029  -0.10471  -0.10194  -0.07076
  Beta virt. eigenvalues --   -0.06999  -0.05552  -0.04778  -0.02876   0.02146
  Beta virt. eigenvalues --    0.02552   0.04879   0.06332   0.12404   0.32284

 Mulliken charges and spin densities:
               1          2
     1  C    0.354566   2.009247
     2  C    0.264147  -0.043129
     3  H    0.381287   0.033881
 Sum of Mulliken charges =   1.00000   2.00000

 Dipole moment (field-independent basis, Debye):
    X=             -0.0000    Y=              0.0000    Z=              0.8816  Tot=              0.8816
 Quadrupole moment (field-independent basis, Debye-Ang):
   XX=             -8.8279   YY=            -10.6033   ZZ=             -2.9318
   XY=              0.0000   XZ=             -0.0000   YZ=             -0.0000

 Normal termination of Gaussian 09 at Tue Oct 10 16:06:58 2017.
