 Gaussian 09, Revision E.01,
 Gaussian 09:  ES64L-G09RevE.01 30-Nov-2015

 -----------------------------------
 #p ccsd(t,maxcyc=200)/6-311++G(d,p)
 -----------------------------------

 -------------
 ccsd(t) iener
 -------------
 Symbolic Z-matrix:
 Charge =  1 Multiplicity = 1

                         Standard orientation:
 ---------------------------------------------------------------------
 Center     Atomic      Atomic             Coordinates (Angstroms)
 Number     Number       Type             X           Y           Z
 ---------------------------------------------------------------------
      1          6           0       -0.867349   -0.439191    0.000000
      2          6           0        0.591953   -0.401190   -0.000000
      3          1           0        1.652377   -0.664745   -0.000000
      4          8           0       -0.000000    0.713379   -0.000000
 ---------------------------------------------------------------------

 SCF Done:  E(RHF) =  -150.710782163     A.U. after   13 cycles
 E2 =    -0.4259278177D+00 EUMP2 =    -0.15113670998116D+03
 CCSD(T)
 CCSD(T)= -0.15117593474D+03

 The electronic state is 1-A'.
 Alpha  occ. eigenvalues --  -21.03528 -11.71947 -11.69871  -1.89842  -1.25404
 Alpha  occ. eigenvalues --   -1.19704  -1.03278  -0.96412  -0.85835  -0.76341
 Alpha virt. eigenvalues --   -0.26264  -0.17361  -0.11517  -0.09352  -0.08535
 Alpha virt. eigenvalues --   -0.06217  -0.04567  -0.02041   0.00702   0.00766
 Alpha virt. eigenvalues --    0.01624   0.06277   0.06464   0.07924   0.08980

 Mulliken charges:
               1
     1  C    0.295042
     2  C    0.137881
     3  H    0.339406
     4  O    0.227672
 Sum of Mulliken charges =   1.00000

 Dipole moment (field-independent basis, Debye):
    X=              2.8732    Y=             -1.8771    Z=             -0.0000  Tot=              3.4320
 Quadrupole moment (field-independent basis, Debye-Ang):
   XX=            -10.7269   YY=            -14.2079   ZZ=            -13.2042
   XY=             -2.1602   XZ=              0.0000   YZ=              0.0000

 1559373\CCSD=-151.1546864\CCSD(T)=-151.1759347\RMSD=1.562e-09\PG=CS [S
 Normal termination of Gaussian 09 at Tue Oct 10 15:58:55 2017.
