 Gaussian 09, Revision E.01,
 Gaussian 09:  ES64L-G09RevE.01 30-Nov-2015

 -----------------------------------
 #p ccsd(t,maxcyc=200)/6-311++G(d,p)
 -----------------------------------

 -------------
 ccsd(t) iener
 -------------
 Symbolic Z-matrix:
 Charge =  0 Multiplicity = 4

                         Standard orientation:
 ---------------------------------------------------------------------
 Center     Atomic      Atomic             Coordinates (Angstroms)
 Number     Number       Type             X           Y           Z
 ---------------------------------------------------------------------
      1          6           0        0.000000    0.543497    0.000000
      2          6           0        1.377730    0.106518    0.000000
      3          1           0       -0.606433   -1.252556   -0.000000
      4          8           0       -0.957494   -0.330942   -0.000000
 ---------------------------------------------------------------------

 SCF Done:  E(UHF) =  -150.984401946     A.U. after   20 cycles
 E2 =    -0.3880556736D+00 EUMP2 =    -0.15137245761975D+03
 CCSD(T)
 CCSD(T)= -0.15142386152D+03

 The electronic state is 4-A".
 Alpha  occ. eigenvalues --  -20.66808 -11.39514 -11.29578  -1.51047  -1.06275
 Alpha  occ. eigenvalues --   -0.88442  -0.70839  -0.68302  -0.59213  -0.47717
 Alpha  occ. eigenvalues --   -0.41072  -0.37375
 Alpha virt. eigenvalues --    0.04618   0.08142   0.08729   0.11186   0.11391
 Alpha virt. eigenvalues --    0.13566   0.15073   0.15759   0.17831   0.21095
 Alpha virt. eigenvalues --    0.23238   0.27537   0.29314   0.34612   0.40228

  Beta  occ. eigenvalues --  -20.65586 -11.36146 -11.26381  -1.46893  -0.91285
  Beta  occ. eigenvalues --   -0.81276  -0.64078  -0.59793  -0.41890
  Beta virt. eigenvalues --    0.01589   0.02320   0.04329   0.09455   0.11538
  Beta virt. eigenvalues --    0.12986   0.13598   0.14292   0.14306   0.16813
  Beta virt. eigenvalues --    0.21045   0.22345   0.25885   0.27070   0.29873

 Mulliken charges and spin densities:
               1          2
     1  C    0.070063   1.318929
     2  C   -0.222470   1.604498
     3  H    0.291083   0.064342
     4  O   -0.138677   0.012230
 Sum of Mulliken charges =  -0.00000   3.00000

 Dipole moment (field-independent basis, Debye):
    X=             -1.8347    Y=             -0.6730    Z=             -0.0000  Tot=              1.9542
 Quadrupole moment (field-independent basis, Debye-Ang):
   XX=            -24.6676   YY=            -15.0494   ZZ=            -17.4031
   XY=              1.6682   XZ=             -0.0000   YZ=              0.0000

 -151.4054526\CCSD(T)=-151.4238615\S2=3.763257\S2-1=3.752719\S2A=3.7500
 Normal termination of Gaussian 09 at Tue Oct 10 15:53:24 2017.
