 Gaussian 09, Revision E.01,
 Gaussian 09:  ES64L-G09RevE.01 30-Nov-2015

 -----------------------------------
 #p ccsd(t,maxcyc=200)/6-311++G(d,p)
 -----------------------------------

 -------------
 ccsd(t) iener
 -------------
 Symbolic Z-matrix:
 Charge =  0 Multiplicity = 2

                         Standard orientation:
 ---------------------------------------------------------------------
 Center     Atomic      Atomic             Coordinates (Angstroms)
 Number     Number       Type             X           Y           Z
 ---------------------------------------------------------------------
      1          6           0       -0.000000    0.634991    0.000000
      2          6           0        0.988935   -0.287939    0.000000
      3          1           0       -0.340802    1.661797    0.000000
      4          8           0       -0.699101   -0.468013   -0.000000
 ---------------------------------------------------------------------

 SCF Done:  E(UHF) =  -151.033600965     A.U. after   21 cycles
 E2 =    -0.4303373050D+00 EUMP2 =    -0.15146393827035D+03
 CCSD(T)
 CCSD(T)= -0.15151151655D+03

 The electronic state is 2-A".
 Alpha  occ. eigenvalues --  -20.67765 -11.34665 -11.32657  -1.50721  -1.01149
 Alpha  occ. eigenvalues --   -0.83321  -0.71446  -0.69351  -0.54473  -0.47797
 Alpha  occ. eigenvalues --   -0.40113
 Alpha virt. eigenvalues --    0.03518   0.07494   0.08047   0.10469   0.11650
 Alpha virt. eigenvalues --    0.12745   0.14505   0.17412   0.19004   0.19852
 Alpha virt. eigenvalues --    0.23087   0.25636   0.28433   0.30652   0.34996

  Beta  occ. eigenvalues --  -20.64472 -11.35134 -11.31442  -1.43483  -0.95072
  Beta  occ. eigenvalues --   -0.82527  -0.66631  -0.51922  -0.50440  -0.45425
  Beta virt. eigenvalues --    0.03515   0.05475   0.07911   0.10583   0.10982
  Beta virt. eigenvalues --    0.12224   0.13014   0.14603   0.17386   0.20834
  Beta virt. eigenvalues --    0.22754   0.23432   0.25687   0.30845   0.31727

 Mulliken charges and spin densities:
               1          2
     1  C   -0.111944  -0.157199
     2  C    0.014297   0.543532
     3  H    0.167153   0.006840
     4  O   -0.069507   0.606827
 Sum of Mulliken charges =   0.00000   1.00000

 Dipole moment (field-independent basis, Debye):
    X=             -0.8474    Y=              3.1589    Z=              0.0000  Tot=              3.2706
 Quadrupole moment (field-independent basis, Debye-Ang):
   XX=            -20.1202   YY=            -15.4241   ZZ=            -17.2609
   XY=              0.4241   XZ=             -0.0000   YZ=             -0.0000

 CSD=-151.4886423\CCSD(T)=-151.5115166\S2=0.828326\S2-1=0.796703\S2A=0.
 Normal termination of Gaussian 09 at Tue Oct 10 15:51:25 2017.
