 Gaussian 09, Revision E.01,
 Gaussian 09:  ES64L-G09RevE.01 30-Nov-2015

 -----------------------------------
 #p ccsd(t,maxcyc=200)/6-311++G(d,p)
 -----------------------------------

 -------------
 ccsd(t) iener
 -------------
 Symbolic Z-matrix:
 Charge =  1 Multiplicity = 3

                         Standard orientation:
 ---------------------------------------------------------------------
 Center     Atomic      Atomic             Coordinates (Angstroms)
 Number     Number       Type             X           Y           Z
 ---------------------------------------------------------------------
      1          6           0        0.197336   -1.187433   -0.000000
      2          6           0       -0.395712    1.264436    0.000000
      3          1           0        1.190253   -1.643171   -0.000000
      4          8           0       -0.000000    0.147644    0.000000
 ---------------------------------------------------------------------

 SCF Done:  E(UHF) =  -150.713240980     A.U. after   19 cycles
 E2 =    -0.3721375210D+00 EUMP2 =    -0.15108537850124D+03
 CCSD(T)
 CCSD(T)= -0.15112838659D+03

 The electronic state is 3-A".
 Alpha  occ. eigenvalues --  -21.03806 -11.74005 -11.64535  -1.88919  -1.43458
 Alpha  occ. eigenvalues --   -1.06553  -1.03283  -1.02227  -0.86383  -0.77344
 Alpha  occ. eigenvalues --   -0.69949
 Alpha virt. eigenvalues --   -0.18408  -0.17873  -0.10542  -0.06848  -0.05219
 Alpha virt. eigenvalues --   -0.04738  -0.03707  -0.01503  -0.00583   0.02147
 Alpha virt. eigenvalues --    0.02793   0.05692   0.11137   0.13080   0.13216

  Beta  occ. eigenvalues --  -21.04573 -11.73408 -11.58847  -1.88922  -1.36957
  Beta  occ. eigenvalues --   -1.02808  -1.01806  -0.95893  -0.84986
  Beta virt. eigenvalues --   -0.21033  -0.19592  -0.13901  -0.10975  -0.10005
  Beta virt. eigenvalues --   -0.06317  -0.03562  -0.01827  -0.00268   0.00299
  Beta virt. eigenvalues --    0.02347   0.02851   0.03573   0.08677   0.13704

 Mulliken charges and spin densities:
               1          2
     1  C    0.093819   2.081195
     2  C    0.253335   0.259170
     3  H    0.264180  -0.048764
     4  O    0.388665  -0.291601
 Sum of Mulliken charges =   1.00000   2.00000

 Dipole moment (field-independent basis, Debye):
    X=              0.6334    Y=             -0.4809    Z=             -0.0000  Tot=              0.7953
 Quadrupole moment (field-independent basis, Debye-Ang):
   XX=            -12.3245   YY=             -8.7862   ZZ=            -14.7021
   XY=             -2.8442   XZ=             -0.0000   YZ=             -0.0000

 CSD=-151.1112562\CCSD(T)=-151.1283866\S2=2.029923\S2-1=2.014346\S2A=2.
 Normal termination of Gaussian 09 at Tue Oct 10 16:01:14 2017.
