 Gaussian 09, Revision E.01,
 Gaussian 09:  ES64L-G09RevE.01 30-Nov-2015

 -----------------------------------
 #p ccsd(t,maxcyc=200)/6-311++G(d,p)
 -----------------------------------

 -------------
 ccsd(t) iener
 -------------
 Symbolic Z-matrix:
 Charge =  0 Multiplicity = 4

                         Standard orientation:
 ---------------------------------------------------------------------
 Center     Atomic      Atomic             Coordinates (Angstroms)
 Number     Number       Type             X           Y           Z
 ---------------------------------------------------------------------
      1          6           0        1.414186    0.191921   -0.000000
      2          6           0       -0.000000    0.507239   -0.000000
      3          1           0       -1.757192   -0.178798    0.000000
      4          8           0       -0.840991   -0.502020    0.000000
 ---------------------------------------------------------------------

 SCF Done:  E(UHF) =  -150.981440791     A.U. after   21 cycles
 E2 =    -0.3857344557D+00 EUMP2 =    -0.15136717524671D+03
 CCSD(T)
 CCSD(T)= -0.15142071449D+03

 The electronic state is 4-A".
 Alpha  occ. eigenvalues --  -20.66369 -11.38386 -11.29087  -1.50165  -1.06602
 Alpha  occ. eigenvalues --   -0.82788  -0.76070  -0.67769  -0.56954  -0.47243
 Alpha  occ. eigenvalues --   -0.40696  -0.36641
 Alpha virt. eigenvalues --    0.03136   0.08607   0.09347   0.10952   0.11453
 Alpha virt. eigenvalues --    0.13907   0.15451   0.16079   0.18186   0.22531
 Alpha virt. eigenvalues --    0.24173   0.27692   0.27881   0.34937   0.41176

  Beta  occ. eigenvalues --  -20.65055 -11.34949 -11.26008  -1.45779  -0.92635
  Beta  occ. eigenvalues --   -0.75225  -0.66260  -0.59074  -0.41107
  Beta virt. eigenvalues --    0.01514   0.02830   0.03435   0.10435   0.10771
  Beta virt. eigenvalues --    0.12354   0.14073   0.15209   0.15823   0.16845
  Beta virt. eigenvalues --    0.22543   0.23461   0.25757   0.26141   0.28353

 Mulliken charges and spin densities:
               1          2
     1  C   -0.107852   1.426116
     2  C   -0.081140   1.514432
     3  H    0.300786   0.014286
     4  O   -0.111794   0.045166
 Sum of Mulliken charges =  -0.00000   3.00000

 Dipole moment (field-independent basis, Debye):
    X=             -4.1541    Y=              1.3012    Z=              0.0000  Tot=              4.3532
 Quadrupole moment (field-independent basis, Debye-Ang):
   XX=            -18.1671   YY=            -19.2145   ZZ=            -17.3507
   XY=             -0.0514   XZ=             -0.0000   YZ=              0.0000

 151.4023143\CCSD(T)=-151.4207145\S2=3.763616\S2-1=3.752865\S2A=3.75006
 Normal termination of Gaussian 09 at Tue Oct 10 15:55:18 2017.
