 Gaussian 09, Revision E.01,
 Gaussian 09:  ES64L-G09RevE.01 30-Nov-2015

 -----------------------------------
 #p ccsd(t,maxcyc=200)/6-311++G(d,p)
 -----------------------------------

 -------------
 ccsd(t) iener
 -------------
 Symbolic Z-matrix:
 Charge =  0 Multiplicity = 2

                         Standard orientation:
 ---------------------------------------------------------------------
 Center     Atomic      Atomic             Coordinates (Angstroms)
 Number     Number       Type             X           Y           Z
 ---------------------------------------------------------------------
      1          6           0        0.000000    0.044071   -0.000000
      2          6           0        1.046753   -0.703267    0.000000
      3          1           0        2.113920   -0.610301   -0.000000
      4          8           0       -1.049304    0.570685   -0.000000
 ---------------------------------------------------------------------

 SCF Done:  E(UHF) =  -151.124465569     A.U. after   20 cycles
 E2 =    -0.4325987698D+00 EUMP2 =    -0.15155706433870D+03
 CCSD(T)
 CCSD(T)= -0.15159358330D+03

 The electronic state is 2-A".
 Alpha  occ. eigenvalues --  -20.65758 -11.38014 -11.28489  -1.50014  -1.08350
 Alpha  occ. eigenvalues --   -0.77811  -0.71558  -0.68524  -0.64581  -0.44426
 Alpha  occ. eigenvalues --   -0.41678
 Alpha virt. eigenvalues --    0.04066   0.07991   0.10724   0.10998   0.12305
 Alpha virt. eigenvalues --    0.12845   0.14853   0.17557   0.18915   0.21172
 Alpha virt. eigenvalues --    0.21563   0.29631   0.33898   0.34691   0.35504

  Beta  occ. eigenvalues --  -20.63973 -11.38789 -11.26495  -1.46220  -1.01692
  Beta  occ. eigenvalues --   -0.75430  -0.69998  -0.64419  -0.56548  -0.37250
  Beta virt. eigenvalues --    0.00763   0.04167   0.08030   0.10335   0.11950
  Beta virt. eigenvalues --    0.12454   0.14136   0.15078   0.17799   0.18976
  Beta virt. eigenvalues --    0.21717   0.28553   0.30126   0.34090   0.35743

 Mulliken charges and spin densities:
               1          2
     1  C    0.190418  -0.302032
     2  C   -0.096407   0.985817
     3  H    0.176041  -0.091276
     4  O   -0.270051   0.407491
 Sum of Mulliken charges =  -0.00000   1.00000

 Dipole moment (field-independent basis, Debye):
    X=              2.0099    Y=              0.2906    Z=             -0.0000  Tot=              2.0308
 Quadrupole moment (field-independent basis, Debye-Ang):
   XX=            -15.4091   YY=            -19.6958   ZZ=            -16.5499
   XY=              0.8646   XZ=              0.0000   YZ=              0.0000

 =-151.5726991\CCSD(T)=-151.5935833\S2=0.823404\S2-1=0.792166\S2A=0.753
 Normal termination of Gaussian 09 at Tue Oct 10 15:48:40 2017.
