 Gaussian 09, Revision E.01,
 Gaussian 09:  ES64L-G09RevE.01 30-Nov-2015

 -----------------------------------
 #p ccsd(t,maxcyc=200)/6-311++G(d,p)
 -----------------------------------

 -------------
 ccsd(t) iener
 -------------
 Symbolic Z-matrix:
 Charge =  1 Multiplicity = 1

                         Standard orientation:
 ---------------------------------------------------------------------
 Center     Atomic      Atomic             Coordinates (Angstroms)
 Number     Number       Type             X           Y           Z
 ---------------------------------------------------------------------
      1          6           0       -0.417291    1.465239   -0.000000
      2          6           0       -0.000000    0.158931   -0.000000
      3          1           0        1.115835   -1.371998    0.000000
      4          8           0        0.173489   -1.046627    0.000000
 ---------------------------------------------------------------------

 SCF Done:  E(RHF) =  -150.664462703     A.U. after   13 cycles
 E2 =    -0.4101629824D+00 EUMP2 =    -0.15107462568557D+03
 CCSD(T)
 CCSD(T)= -0.15112665810D+03

 The electronic state is 1-A'.
 Alpha  occ. eigenvalues --  -21.01119 -11.70451 -11.65592  -1.83714  -1.33699
 Alpha  occ. eigenvalues --   -1.19344  -1.02363  -0.94962  -0.77483  -0.69915
 Alpha virt. eigenvalues --   -0.32125  -0.14843  -0.13424  -0.07013  -0.06417
 Alpha virt. eigenvalues --   -0.05488  -0.05161  -0.02102  -0.00428   0.01485
 Alpha virt. eigenvalues --    0.01729   0.05418   0.07704   0.09775   0.13562

 Mulliken charges:
               1
     1  C    0.466917
     2  C    0.164617
     3  H    0.413437
     4  O   -0.044972
 Sum of Mulliken charges =   1.00000

 Dipole moment (field-independent basis, Debye):
    X=              2.1516    Y=             -1.3100    Z=             -0.0000  Tot=              2.5191
 Quadrupole moment (field-independent basis, Debye-Ang):
   XX=            -12.7377   YY=            -12.0284   ZZ=            -13.1467
   XY=             -4.2668   XZ=              0.0000   YZ=              0.0000

 .1045438\CCSD=-151.1066085\CCSD(T)=-151.1266581\RMSD=1.662e-09\PG=CS [
 Normal termination of Gaussian 09 at Tue Oct 10 15:56:00 2017.
