 Gaussian 09, Revision E.01,
 Gaussian 09:  ES64L-G09RevE.01 30-Nov-2015

 -----------------------------------
 #p ccsd(t,maxcyc=200)/6-311++G(d,p)
 -----------------------------------

 -------------
 ccsd(t) iener
 -------------
 Symbolic Z-matrix:
 Charge =  0 Multiplicity = 4

                         Standard orientation:
 ---------------------------------------------------------------------
 Center     Atomic      Atomic             Coordinates (Angstroms)
 Number     Number       Type             X           Y           Z
 ---------------------------------------------------------------------
      1          6           0       -0.412426    0.789537    0.044015
      2          6           0        0.804628    0.019893   -0.149467
      3          1           0        1.596536   -0.258375    0.546772
      4          8           0       -0.493719   -0.574775    0.010743
 ---------------------------------------------------------------------

 SCF Done:  E(UHF) =  -150.968851308     A.U. after   19 cycles
 E2 =    -0.4023547264D+00 EUMP2 =    -0.15137120603405D+03
 CCSD(T)
 CCSD(T)= -0.15140793912D+03

 The electronic state is 4-A.
 Alpha  occ. eigenvalues --  -20.64511 -11.35523 -11.34666  -1.49832  -0.96826
 Alpha  occ. eigenvalues --   -0.87120  -0.73157  -0.67370  -0.57683  -0.50349
 Alpha  occ. eigenvalues --   -0.45030  -0.37028
 Alpha virt. eigenvalues --    0.04591   0.08921   0.09258   0.10690   0.12744
 Alpha virt. eigenvalues --    0.14402   0.14549   0.18429   0.20619   0.25807
 Alpha virt. eigenvalues --    0.26641   0.29433   0.30689   0.32987   0.37049

  Beta  occ. eigenvalues --  -20.62994 -11.32443 -11.29327  -1.45125  -0.86913
  Beta  occ. eigenvalues --   -0.76299  -0.61763  -0.53579  -0.49240
  Beta virt. eigenvalues --    0.01670   0.04982   0.05881   0.09534   0.11302
  Beta virt. eigenvalues --    0.11772   0.13709   0.14949   0.15647   0.19010
  Beta virt. eigenvalues --    0.22142   0.24302   0.27824   0.30719   0.31971

 Mulliken charges and spin densities:
               1          2
     1  C   -0.038949   1.777000
     2  C   -0.029025   1.098440
     3  H    0.146619   0.005413
     4  O   -0.078645   0.119147
 Sum of Mulliken charges =  -0.00000   3.00000

 Dipole moment (field-independent basis, Debye):
    X=              1.3474    Y=              0.6796    Z=              0.5247  Tot=              1.5977
 Quadrupole moment (field-independent basis, Debye-Ang):
   XX=            -15.2408   YY=            -17.9147   ZZ=            -17.6478
   XY=             -1.4117   XZ=              0.8774   YZ=             -0.0720

 Normal termination of Gaussian 09 at Tue Oct 10 15:57:56 2017.
