 Gaussian 09, Revision E.01,
 Gaussian 09:  ES64L-G09RevE.01 30-Nov-2015

 -----------------------------------
 #p ccsd(t,maxcyc=200)/6-311++G(d,p)
 -----------------------------------

 -------------
 ccsd(t) iener
 -------------
 Symbolic Z-matrix:
 Charge =  1 Multiplicity = 3

                         Standard orientation:
 ---------------------------------------------------------------------
 Center     Atomic      Atomic             Coordinates (Angstroms)
 Number     Number       Type             X           Y           Z
 ---------------------------------------------------------------------
      1          6           0        0.000000    0.223075    0.000000
      2          6           0        1.061004    1.050139    0.000000
      3          1           0       -0.427641   -1.684369    0.000000
      4          8           0       -0.742298   -0.744365    0.000000
 ---------------------------------------------------------------------

 SCF Done:  E(UHF) =  -150.705909184     A.U. after   22 cycles
 E2 =    -0.3768172016D+00 EUMP2 =    -0.15108272638542D+03
 CCSD(T)
 CCSD(T)= -0.15113497204D+03

 The electronic state is 3-A".
 Alpha  occ. eigenvalues --  -20.98640 -11.72069 -11.65056  -1.83471  -1.41434
 Alpha  occ. eigenvalues --   -1.20981  -1.02619  -0.99672  -0.82453  -0.75207
 Alpha  occ. eigenvalues --   -0.74036
 Alpha virt. eigenvalues --   -0.18455  -0.13699  -0.11594  -0.08058  -0.05804
 Alpha virt. eigenvalues --   -0.05049  -0.02339  -0.00618   0.00594   0.00986
 Alpha virt. eigenvalues --    0.05557   0.06690   0.09424   0.13129   0.14574

  Beta  occ. eigenvalues --  -20.97498 -11.69853 -11.63145  -1.80445  -1.27254
  Beta  occ. eigenvalues --   -1.18070  -0.95373  -0.91301  -0.76154
  Beta virt. eigenvalues --   -0.27452  -0.26852  -0.14648  -0.07220  -0.05762
  Beta virt. eigenvalues --   -0.05095  -0.05003  -0.02772  -0.01166   0.00139
  Beta virt. eigenvalues --    0.01577   0.03925   0.06804   0.07987   0.13000

 Mulliken charges and spin densities:
               1          2
     1  C    0.193607   0.988143
     2  C    0.496561   0.832900
     3  H    0.417208   0.026159
     4  O   -0.107375   0.152798
 Sum of Mulliken charges =   1.00000   2.00000

 Dipole moment (field-independent basis, Debye):
    X=              0.3058    Y=             -1.7807    Z=              0.0000  Tot=              1.8068
 Quadrupole moment (field-independent basis, Debye-Ang):
   XX=            -15.6566   YY=             -6.8085   ZZ=            -14.6228
   XY=              1.0938   XZ=             -0.0000   YZ=              0.0000

 \CCSD=-151.1162357\CCSD(T)=-151.134972\S2=2.164462\S2-1=2.13373\S2A=2.
 Normal termination of Gaussian 09 at Tue Oct 10 16:02:18 2017.
