 Gaussian 09, Revision E.01,
 Gaussian 09:  ES64L-G09RevE.01 30-Nov-2015

 -----------------------------------
 #p ccsd(t,maxcyc=200)/6-311++G(d,p)
 -----------------------------------

 -------------
 ccsd(t) iener
 -------------
 Symbolic Z-matrix:
 Charge =  1 Multiplicity = 1

                         Standard orientation:
 ---------------------------------------------------------------------
 Center     Atomic      Atomic             Coordinates (Angstroms)
 Number     Number       Type             X           Y           Z
 ---------------------------------------------------------------------
      1          6           0        0.791914   -0.544160   -0.000000
      2          6           0       -0.791826   -0.543907   -0.000000
      3          1           0       -0.000532    1.618569    0.000000
      4          8           0        0.000000    0.613729    0.000000
 ---------------------------------------------------------------------

 SCF Done:  E(RHF) =  -150.604742716     A.U. after   12 cycles
 E2 =    -0.4101739855D+00 EUMP2 =    -0.15101491670140D+03
 CCSD(T)
 CCSD(T)= -0.15106681568D+03

 The electronic state is 1-A'.
 Alpha  occ. eigenvalues --  -21.05000 -11.68891 -11.68832  -1.88146  -1.35942
 Alpha  occ. eigenvalues --   -1.15895  -0.99328  -0.94889  -0.77813  -0.71860
 Alpha virt. eigenvalues --   -0.25561  -0.15557  -0.15327  -0.07163  -0.07059
 Alpha virt. eigenvalues --   -0.05185  -0.03426  -0.02727  -0.00626  -0.00337
 Alpha virt. eigenvalues --    0.00338   0.01561   0.05782   0.06992   0.10773

 Mulliken charges:
               1
     1  C    0.183355
     2  C    0.183027
     3  H    0.481304
     4  O    0.152313
 Sum of Mulliken charges =   1.00000

 Dipole moment (field-independent basis, Debye):
    X=             -0.0002    Y=              2.5875    Z=              0.0000  Tot=              2.5875
 Quadrupole moment (field-independent basis, Debye-Ang):
   XX=            -17.5541   YY=             -8.0138   ZZ=            -13.6585
   XY=             -0.0038   XZ=             -0.0000   YZ=             -0.0000

 0457291\CCSD=-151.0464692\CCSD(T)=-151.0668157\RMSD=6.142e-09\PG=CS [S
 Normal termination of Gaussian 09 at Tue Oct 10 15:58:33 2017.
