 Gaussian 09, Revision E.01,
 Gaussian 09:  ES64L-G09RevE.01 30-Nov-2015

 -----------------------------------
 #p ccsd(t,maxcyc=200)/6-311++G(d,p)
 -----------------------------------

 -------------
 ccsd(t) iener
 -------------
 Symbolic Z-matrix:
 Charge =  0 Multiplicity = 4

                         Standard orientation:
 ---------------------------------------------------------------------
 Center     Atomic      Atomic             Coordinates (Angstroms)
 Number     Number       Type             X           Y           Z
 ---------------------------------------------------------------------
      1          6           0        1.258339    0.056837   -0.000000
      2          6           0       -1.078001   -0.364843    0.000000
      3          1           0       -1.082025   -1.454248   -0.000000
      4          8           0        0.000000    0.412785    0.000000
 ---------------------------------------------------------------------

 SCF Done:  E(UHF) =  -150.987073364     A.U. after   17 cycles
 E2 =    -0.3736488559D+00 EUMP2 =    -0.15136072221977D+03
 CCSD(T)
 CCSD(T)= -0.15140595359D+03

 The electronic state is 4-A".
 Alpha  occ. eigenvalues --  -20.67848 -11.35227 -11.34265  -1.52102  -1.05647
 Alpha  occ. eigenvalues --   -0.84587  -0.70640  -0.68290  -0.58772  -0.48646
 Alpha  occ. eigenvalues --   -0.40044  -0.37894
 Alpha virt. eigenvalues --    0.04608   0.06179   0.09489   0.10493   0.12652
 Alpha virt. eigenvalues --    0.13039   0.13797   0.16560   0.17139   0.19290
 Alpha virt. eigenvalues --    0.25467   0.31674   0.33965   0.34440   0.41299

  Beta  occ. eigenvalues --  -20.67696 -11.31475 -11.29747  -1.49602  -0.94384
  Beta  occ. eigenvalues --   -0.75401  -0.64238  -0.62723  -0.48535
  Beta virt. eigenvalues --    0.04580   0.05117   0.07594   0.07926   0.09860
  Beta virt. eigenvalues --    0.10705   0.12843   0.15926   0.16978   0.18825
  Beta virt. eigenvalues --    0.20319   0.21819   0.23479   0.28372   0.31916

 Mulliken charges and spin densities:
               1          2
     1  C   -0.140684   1.177395
     2  C   -0.073796   2.123661
     3  H    0.158535  -0.023996
     4  O    0.055945  -0.277060
 Sum of Mulliken charges =   0.00000   3.00000

 Dipole moment (field-independent basis, Debye):
    X=             -1.7591    Y=             -1.1637    Z=             -0.0000  Tot=              2.1092
 Quadrupole moment (field-independent basis, Debye-Ang):
   XX=            -20.5551   YY=            -16.8970   ZZ=            -17.0873
   XY=              1.2685   XZ=              0.0000   YZ=             -0.0000

 =-151.3902455\CCSD(T)=-151.4059536\S2=3.779649\S2-1=3.759687\S2A=3.750
 Normal termination of Gaussian 09 at Tue Oct 10 15:54:49 2017.
