 Gaussian 09, Revision E.01,
 Gaussian 09:  ES64L-G09RevE.01 30-Nov-2015

 -----------------------------------
 #p ccsd(t,maxcyc=200)/6-311++G(d,p)
 -----------------------------------

 -------------
 ccsd(t) iener
 -------------
 Symbolic Z-matrix:
 Charge =  1 Multiplicity = 1

                         Standard orientation:
 ---------------------------------------------------------------------
 Center     Atomic      Atomic             Coordinates (Angstroms)
 Number     Number       Type             X           Y           Z
 ---------------------------------------------------------------------
      1          6           0       -1.349447   -0.086781    0.000314
      2          6           0        1.338818   -0.233823    0.000064
      3          1           0        1.699950    0.823887    0.000822
      4          8           0       -0.204522    0.137467   -0.000386
 ---------------------------------------------------------------------

 SCF Done:  E(RHF) =  -150.695661938     A.U. after   12 cycles
 E2 =    -0.3912843876D+00 EUMP2 =    -0.15108694632550D+03
 CCSD(T)
 CCSD(T)= -0.15113872827D+03

 The electronic state is 1-A.
 Alpha  occ. eigenvalues --  -20.99064 -11.70446 -11.70247  -1.84001  -1.31522
 Alpha  occ. eigenvalues --   -1.03269  -0.98163  -0.96253  -0.82921  -0.74000
 Alpha virt. eigenvalues --   -0.25303  -0.17063  -0.13541  -0.10902  -0.08869
 Alpha virt. eigenvalues --   -0.04861  -0.03785  -0.02929  -0.01792   0.00149
 Alpha virt. eigenvalues --    0.00988   0.02799   0.03453   0.06153   0.12409

 Mulliken charges:
               1
     1  C    0.298152
     2  C    0.352361
     3  H    0.208976
     4  O    0.140510
 Sum of Mulliken charges =   1.00000

 Dipole moment (field-independent basis, Debye):
    X=              1.5761    Y=              1.1947    Z=              0.0019  Tot=              1.9778
 Quadrupole moment (field-independent basis, Debye-Ang):
   XX=             -7.1459   YY=            -15.2517   ZZ=            -13.5776
   XY=              2.4624   XZ=              0.0024   YZ=             -0.0002

 1.1201485\CCSD(T)=-151.1387283\RMSD=7.742e-09\PG=C01 [X(C2H1O1)]\\@
 Normal termination of Gaussian 09 at Tue Oct 10 15:58:57 2017.
