 Gaussian 09, Revision E.01,
 Gaussian 09:  ES64L-G09RevE.01 30-Nov-2015

 -----------------------------------
 #p ccsd(t,maxcyc=200)/6-311++G(d,p)
 -----------------------------------

 -------------
 ccsd(t) iener
 -------------
 Symbolic Z-matrix:
 Charge =  1 Multiplicity = 3

                         Standard orientation:
 ---------------------------------------------------------------------
 Center     Atomic      Atomic             Coordinates (Angstroms)
 Number     Number       Type             X           Y           Z
 ---------------------------------------------------------------------
      1          6           0        0.000000    0.347617    0.000000
      2          6           0        1.364728   -0.275938   -0.000000
      3          1           0        0.128063    1.463119    0.000000
      4          8           0       -1.039554   -0.236649   -0.000000
 ---------------------------------------------------------------------

 SCF Done:  E(UHF) =  -150.686710375     A.U. after   25 cycles
 E2 =    -0.3571104796D+00 EUMP2 =    -0.15104382085417D+03
 CCSD(T)
 CCSD(T)= -0.15111444037D+03

 The electronic state is 3-A".
 Alpha  occ. eigenvalues --  -21.05375 -11.68332 -11.67037  -1.88912  -1.34345
 Alpha  occ. eigenvalues --   -1.14876  -1.09910  -1.02318  -0.95941  -0.77329
 Alpha  occ. eigenvalues --   -0.73701
 Alpha virt. eigenvalues --   -0.24789  -0.16701  -0.11308  -0.07435  -0.05960
 Alpha virt. eigenvalues --   -0.05949  -0.01466  -0.00588   0.00037   0.00336
 Alpha virt. eigenvalues --    0.03735   0.05574   0.10087   0.12009   0.15576

  Beta  occ. eigenvalues --  -21.00176 -11.69262 -11.64688  -1.75618  -1.25033
  Beta  occ. eigenvalues --   -1.05293  -0.99655  -0.90096  -0.74512
  Beta virt. eigenvalues --   -0.27958  -0.25934  -0.22281  -0.11046  -0.08087
  Beta virt. eigenvalues --   -0.06863  -0.05469  -0.04892  -0.01132  -0.00254
  Beta virt. eigenvalues --    0.00516   0.02431   0.04679   0.06179   0.11605

 Mulliken charges and spin densities:
               1          2
     1  C   -0.075480  -0.226322
     2  C    0.485966   0.951713
     3  H    0.320110   0.127703
     4  O    0.269404   1.146905
 Sum of Mulliken charges =   1.00000   2.00000

 Dipole moment (field-independent basis, Debye):
    X=              0.4917    Y=              2.0644    Z=              0.0000  Tot=              2.1221
 Quadrupole moment (field-independent basis, Debye-Ang):
   XX=            -14.3241   YY=            -10.5653   ZZ=            -14.9814
   XY=              0.5746   XZ=             -0.0000   YZ=              0.0000

 CCSD=-151.0955288\CCSD(T)=-151.1144404\S2=2.065399\S2-1=2.031965\S2A=2
 Normal termination of Gaussian 09 at Tue Oct 10 15:59:44 2017.
