 Gaussian 09, Revision E.01,
 Gaussian 09:  ES64L-G09RevE.01 30-Nov-2015

 -----------------------------------
 #p ccsd(t,maxcyc=200)/6-311++G(d,p)
 -----------------------------------

 -------------
 ccsd(t) iener
 -------------
 Symbolic Z-matrix:
 Charge =  0 Multiplicity = 4

                         Standard orientation:
 ---------------------------------------------------------------------
 Center     Atomic      Atomic             Coordinates (Angstroms)
 Number     Number       Type             X           Y           Z
 ---------------------------------------------------------------------
      1          6           0        0.000000    0.478600   -0.000000
      2          6           0        1.222982   -0.255472    0.000000
      3          1           0        1.447870   -1.323316    0.000000
      4          8           0       -1.098220   -0.001931   -0.000000
 ---------------------------------------------------------------------

 SCF Done:  E(UHF) =  -151.077971221     A.U. after   17 cycles
 E2 =    -0.3935449537D+00 EUMP2 =    -0.15147151617510D+03
 CCSD(T)
 CCSD(T)= -0.15151033853D+03

 The electronic state is 4-A".
 Alpha  occ. eigenvalues --  -20.63610 -11.35671 -11.32858  -1.48012  -1.07585
 Alpha  occ. eigenvalues --   -0.79931  -0.70612  -0.68949  -0.64239  -0.49566
 Alpha  occ. eigenvalues --   -0.46306  -0.40622
 Alpha virt. eigenvalues --    0.04483   0.09228   0.10549   0.10732   0.11562
 Alpha virt. eigenvalues --    0.13276   0.14693   0.17550   0.18508   0.21162
 Alpha virt. eigenvalues --    0.25911   0.31287   0.31582   0.34250   0.38277

  Beta  occ. eigenvalues --  -20.60386 -11.34256 -11.27687  -1.40493  -0.90574
  Beta  occ. eigenvalues --   -0.71596  -0.65125  -0.53420  -0.51060
  Beta virt. eigenvalues --    0.03126   0.03447   0.05374   0.07821   0.11828
  Beta virt. eigenvalues --    0.13127   0.13521   0.13568   0.15180   0.17276
  Beta virt. eigenvalues --    0.19141   0.23069   0.26297   0.28382   0.32620

 Mulliken charges and spin densities:
               1          2
     1  C    0.082078   0.345975
     2  C   -0.023830   2.092363
     3  H    0.146295  -0.033105
     4  O   -0.204543   0.594767
 Sum of Mulliken charges =  -0.00000   3.00000

 Dipole moment (field-independent basis, Debye):
    X=              2.2201    Y=             -0.8717    Z=              0.0000  Tot=              2.3851
 Quadrupole moment (field-independent basis, Debye-Ang):
   XX=            -18.8207   YY=            -16.3966   ZZ=            -16.8060
   XY=             -1.5061   XZ=             -0.0000   YZ=             -0.0000

 SD=-151.492995\CCSD(T)=-151.5103385\S2=3.809055\S2-1=3.77837\S2A=3.751
 Normal termination of Gaussian 09 at Tue Oct 10 15:52:24 2017.
