 Gaussian 09, Revision E.01,
 Gaussian 09:  ES64L-G09RevE.01 30-Nov-2015

 -----------------------------------
 #p ccsd(t,maxcyc=200)/6-311++G(d,p)
 -----------------------------------

 -------------
 ccsd(t) iener
 -------------
 Symbolic Z-matrix:
 Charge =  1 Multiplicity = 1

                         Standard orientation:
 ---------------------------------------------------------------------
 Center     Atomic      Atomic             Coordinates (Angstroms)
 Number     Number       Type             X           Y           Z
 ---------------------------------------------------------------------
      1          6           0       -0.000000    0.097319    0.000000
      2          6           0        0.895482   -0.970478    0.000000
      3          1           0        1.981123   -0.810324    0.000000
      4          8           0       -0.919252    0.756159   -0.000000
 ---------------------------------------------------------------------

 SCF Done:  E(RHF) =  -150.747435214     A.U. after   13 cycles
 E2 =    -0.4228261853D+00 EUMP2 =    -0.15117026139924D+03
 CCSD(T)
 CCSD(T)= -0.15120816919D+03

 The electronic state is 1-A'.
 Alpha  occ. eigenvalues --  -20.99620 -11.72897 -11.66448  -1.83008  -1.35726
 Alpha  occ. eigenvalues --   -1.08142  -1.00757  -0.95514  -0.93164  -0.72451
 Alpha virt. eigenvalues --   -0.32804  -0.16221  -0.11984  -0.07626  -0.07198
 Alpha virt. eigenvalues --   -0.05669  -0.05254  -0.01864  -0.00526   0.00443
 Alpha virt. eigenvalues --    0.00782   0.03549   0.06032   0.11494   0.16292

 Mulliken charges:
               1
     1  C    0.299344
     2  C    0.412159
     3  H    0.253605
     4  O    0.034892
 Sum of Mulliken charges =   1.00000

 Dipole moment (field-independent basis, Debye):
    X=              3.5703    Y=             -0.8546    Z=              0.0000  Tot=              3.6712
 Quadrupole moment (field-independent basis, Debye-Ang):
   XX=             -8.3787   YY=            -15.2698   ZZ=            -12.8939
   XY=             -2.7545   XZ=              0.0000   YZ=             -0.0000

 51.1884964\CCSD=-151.1868802\CCSD(T)=-151.2081692\RMSD=2.744e-09\PG=CS
 Normal termination of Gaussian 09 at Tue Oct 10 15:58:27 2017.
