 Gaussian 09, Revision E.01,
 Gaussian 09:  ES64L-G09RevE.01 30-Nov-2015

 -----------------------------------
 #p ccsd(t,maxcyc=200)/6-311++G(d,p)
 -----------------------------------

 -------------
 ccsd(t) iener
 -------------
 Symbolic Z-matrix:
 Charge =  1 Multiplicity = 1

                         Standard orientation:
 ---------------------------------------------------------------------
 Center     Atomic      Atomic             Coordinates (Angstroms)
 Number     Number       Type             X           Y           Z
 ---------------------------------------------------------------------
      1          6           0       -0.000000    0.000000    1.143966
      2          6           0        0.000000   -0.000000   -1.427880
      3          6           0       -0.000000   -0.000000   -0.087005
      4          1           0        0.000000    0.000000    2.225515
 ---------------------------------------------------------------------

 SCF Done:  E(RHF) =  -113.675680004     A.U. after   12 cycles
 E2 =    -0.3519481963D+00 EUMP2 =    -0.11402762819988D+03
 CCSD(T)
 CCSD(T)= -0.11407250492D+03

 The electronic state is 1-SG.
 Alpha  occ. eigenvalues --  -11.69460 -11.65448 -11.53489  -1.39615  -1.24026
 Alpha  occ. eigenvalues --   -1.04227  -0.78916  -0.74319  -0.74319
 Alpha virt. eigenvalues --   -0.28224  -0.28224  -0.10706  -0.07087  -0.06515
 Alpha virt. eigenvalues --   -0.06515  -0.02872  -0.00304  -0.00304   0.00428
 Alpha virt. eigenvalues --    0.00428   0.00620   0.02583   0.07081   0.07081

 Mulliken charges:
               1
     1  C   -1.885890
     2  C    1.039066
     3  C    1.553796
     4  H    0.293027
 Sum of Mulliken charges =   1.00000

 Dipole moment (field-independent basis, Debye):
    X=             -0.0000    Y=             -0.0000    Z=              2.6087  Tot=              2.6087
 Quadrupole moment (field-independent basis, Debye-Ang):
   XX=            -15.0786   YY=            -15.0786   ZZ=             -3.7112
   XY=             -0.0000   XZ=              0.0000   YZ=              0.0000

 60308\CCSD(T)=-114.0725049\RMSD=3.410e-09\PG=C*V [C*(C1C1C1H1)]\\@
 Normal termination of Gaussian 09 at Tue Oct 10 16:28:58 2017.
