 Gaussian 09, Revision E.01,
 Gaussian 09:  ES64L-G09RevE.01 30-Nov-2015

 -----------------------------------
 #p ccsd(t,maxcyc=200)/6-311++G(d,p)
 -----------------------------------

 -------------
 ccsd(t) iener
 -------------
 Symbolic Z-matrix:
 Charge =  0 Multiplicity = 2

                         Standard orientation:
 ---------------------------------------------------------------------
 Center     Atomic      Atomic             Coordinates (Angstroms)
 Number     Number       Type             X           Y           Z
 ---------------------------------------------------------------------
      1          6           0        0.000000    0.683478   -0.495884
      2          6           0       -0.000000   -0.000000    0.695608
      3          6           0       -0.000000   -0.683478   -0.495884
      4          1           0       -0.000000   -0.000000    1.776953
 ---------------------------------------------------------------------

 SCF Done:  E(UHF) =  -113.994806259     A.U. after   16 cycles
 E2 =    -0.3643971155D+00 EUMP2 =    -0.11435920337455D+03
 CCSD(T)
 CCSD(T)= -0.11439806697D+03

 The electronic state is 2-B2.
 Alpha  occ. eigenvalues --  -11.34666 -11.29865 -11.29714  -1.26406  -0.84449
 Alpha  occ. eigenvalues --   -0.72203  -0.62673  -0.51421  -0.44368  -0.42813
 Alpha virt. eigenvalues --    0.03596   0.07664   0.08804   0.09636   0.10780
 Alpha virt. eigenvalues --    0.11181   0.14291   0.14415   0.16151   0.17631
 Alpha virt. eigenvalues --    0.18055   0.18727   0.21440   0.23904   0.24668

  Beta  occ. eigenvalues --  -11.33606 -11.28546 -11.28379  -1.24457  -0.81452
  Beta  occ. eigenvalues --   -0.64328  -0.54726  -0.50513  -0.37169
  Beta virt. eigenvalues --    0.00084   0.03689   0.08441   0.08941   0.09952
  Beta virt. eigenvalues --    0.11170   0.11459   0.14423   0.15695   0.16218
  Beta virt. eigenvalues --    0.17957   0.18326   0.19519   0.22765   0.24284

 Mulliken charges and spin densities:
               1          2
     1  C   -0.219745   0.052910
     2  C    0.239320   0.901620
     3  C   -0.219745   0.052910
     4  H    0.200170  -0.007440
 Sum of Mulliken charges =  -0.00000   1.00000

 Dipole moment (field-independent basis, Debye):
    X=             -0.0000    Y=             -0.0000    Z=              2.5076  Tot=              2.5076
 Quadrupole moment (field-independent basis, Debye-Ang):
   XX=            -17.3981   YY=            -21.8506   ZZ=            -15.0357
   XY=             -0.0000   XZ=             -0.0000   YZ=              0.0000

 .3760485\CCSD=-114.3765465\CCSD(T)=-114.398067\S2=0.780491\S2-1=0.7587
 Normal termination of Gaussian 09 at Tue Oct 10 16:24:26 2017.
