 Gaussian 09, Revision E.01,
 Gaussian 09:  ES64L-G09RevE.01 30-Nov-2015

 -----------------------------------
 #p ccsd(t,maxcyc=200)/6-311++G(d,p)
 -----------------------------------

 -------------
 ccsd(t) iener
 -------------
 Symbolic Z-matrix:
 Charge =  1 Multiplicity = 3

                         Standard orientation:
 ---------------------------------------------------------------------
 Center     Atomic      Atomic             Coordinates (Angstroms)
 Number     Number       Type             X           Y           Z
 ---------------------------------------------------------------------
      1          6           0        0.000000   -0.682828   -0.499274
      2          6           0       -0.000000    0.682828   -0.499274
      3          6           0        0.000000    0.000000    0.700535
      4          1           0        0.000000    0.000000    1.788077
 ---------------------------------------------------------------------

 SCF Done:  E(UHF) =  -113.681673789     A.U. after   16 cycles
 E2 =    -0.3134189742D+00 EUMP2 =    -0.11399509276308D+03
 CCSD(T)
 CCSD(T)= -0.11403729621D+03

 The electronic state is 3-B2.
 Alpha  occ. eigenvalues --  -11.66088 -11.65922 -11.61822  -1.57329  -1.10378
 Alpha  occ. eigenvalues --   -1.06654  -0.94917  -0.81858  -0.81109  -0.75239
 Alpha virt. eigenvalues --   -0.17433  -0.15898  -0.09905  -0.07224  -0.07168
 Alpha virt. eigenvalues --   -0.05750  -0.02530  -0.01868  -0.01618   0.00708
 Alpha virt. eigenvalues --    0.01106   0.01115   0.02694   0.07096   0.07335

  Beta  occ. eigenvalues --  -11.62480 -11.62359 -11.61781  -1.53142  -1.07319
  Beta  occ. eigenvalues --   -0.90086  -0.83985  -0.79007
  Beta virt. eigenvalues --   -0.26526  -0.21981  -0.15106  -0.10588  -0.09502
  Beta virt. eigenvalues --   -0.06756  -0.05737  -0.05424  -0.01735  -0.01167
  Beta virt. eigenvalues --   -0.00305   0.01246   0.02489   0.02860   0.03020

 Mulliken charges and spin densities:
               1          2
     1  C    0.351181   0.929031
     2  C    0.351181   0.929031
     3  C   -0.004523   0.137731
     4  H    0.302161   0.004206
 Sum of Mulliken charges =   1.00000   2.00000

 Dipole moment (field-independent basis, Debye):
    X=              0.0000    Y=              0.0000    Z=              1.1650  Tot=              1.1650
 Quadrupole moment (field-independent basis, Debye-Ang):
   XX=            -14.4076   YY=            -12.4569   ZZ=             -9.3952
   XY=              0.0000   XZ=             -0.0000   YZ=             -0.0000

 SDQ=-114.0157694\CCSD=-114.018099\CCSD(T)=-114.0372962\S2=2.029548\S2-
 Normal termination of Gaussian 09 at Tue Oct 10 16:30:47 2017.
