 Gaussian 09, Revision E.01,
 Gaussian 09:  ES64L-G09RevE.01 30-Nov-2015

 -----------------------------------
 #p ccsd(t,maxcyc=200)/6-311++G(d,p)
 -----------------------------------

 -------------
 ccsd(t) iener
 -------------
 Symbolic Z-matrix:
 Charge =  1 Multiplicity = 3

                         Standard orientation:
 ---------------------------------------------------------------------
 Center     Atomic      Atomic             Coordinates (Angstroms)
 Number     Number       Type             X           Y           Z
 ---------------------------------------------------------------------
      1          6           0        0.000000    0.000000    1.391072
      2          6           0        0.000000    0.000000    0.117590
      3          6           0        0.000000    0.000000   -1.139144
      4          1           0        0.000000    0.000000   -2.217110
 ---------------------------------------------------------------------

 SCF Done:  E(UHF) =  -113.671317112     A.U. after   22 cycles
 E2 =    -0.2713143574D+00 EUMP2 =    -0.11394263146986D+03
 CCSD(T)
 CCSD(T)= -0.11400718344D+03

 Unable to determine electronic state:  an orbital has unidentified symmetry.
 Alpha  occ. eigenvalues --  -11.64567 -11.62390 -11.56370  -1.40324  -1.27515
 Alpha  occ. eigenvalues --   -1.02789  -0.92072  -0.82974  -0.76488  -0.68897
 Alpha virt. eigenvalues --   -0.28173  -0.10173  -0.06863  -0.05927  -0.05864
 Alpha virt. eigenvalues --   -0.04011  -0.03286  -0.01265  -0.00728   0.00794
 Alpha virt. eigenvalues --    0.01116   0.02826   0.06721   0.07482   0.10453

  Beta  occ. eigenvalues --  -11.61186 -11.57845 -11.57267  -1.38939  -1.17117
  Beta  occ. eigenvalues --   -1.01269  -0.76557  -0.74681
  Beta virt. eigenvalues --   -0.22346  -0.21917  -0.18320  -0.09931  -0.06329
  Beta virt. eigenvalues --   -0.05973  -0.05796  -0.02488  -0.00026   0.00887
  Beta virt. eigenvalues --    0.01325   0.02839   0.03282   0.03434   0.09154

 Mulliken charges and spin densities:
               1          2
     1  C    0.767297   2.144175
     2  C    1.908088  -0.557559
     3  C   -1.958980   0.443091
     4  H    0.283595  -0.029707
 Sum of Mulliken charges =   1.00000   2.00000

 Dipole moment (field-independent basis, Debye):
    X=              0.0000    Y=              0.0000    Z=             -1.2669  Tot=              1.2669
 Quadrupole moment (field-independent basis, Debye-Ang):
   XX=            -14.3539   YY=            -15.9724   ZZ=             -0.7249
   XY=              0.0000   XZ=              0.0000   YZ=              0.0000

 6549\CCSD(T)=-114.0071834\S2=2.600494\S2-1=2.500058\S2A=2.123171\RMSD=
 Normal termination of Gaussian 09 at Tue Oct 10 16:30:16 2017.
