 Gaussian 09, Revision E.01,
 Gaussian 09:  ES64L-G09RevE.01 30-Nov-2015

 -----------------------------------
 #p ccsd(t,maxcyc=200)/6-311++G(d,p)
 -----------------------------------

 -------------
 ccsd(t) iener
 -------------
 Symbolic Z-matrix:
 Charge =  1 Multiplicity = 1

                         Standard orientation:
 ---------------------------------------------------------------------
 Center     Atomic      Atomic             Coordinates (Angstroms)
 Number     Number       Type             X           Y           Z
 ---------------------------------------------------------------------
      1          6           0       -0.000000   -1.210129   -0.286175
      2          6           0        0.000000    1.210129   -0.286175
      3          6           0        0.000000   -0.000000    0.331154
      4          1           0        0.000000   -0.000000    1.447180
 ---------------------------------------------------------------------

 SCF Done:  E(RHF) =  -113.608552493     A.U. after   12 cycles
 E2 =    -0.3124358425D+00 EUMP2 =    -0.11392098833555D+03
 CCSD(T)
 CCSD(T)= -0.11398596724D+03

 The electronic state is 1-A1.
 Alpha  occ. eigenvalues --  -11.69988 -11.69985 -11.54509  -1.43027  -1.19082
 Alpha  occ. eigenvalues --   -0.97058  -0.80665  -0.77382  -0.74545
 Alpha virt. eigenvalues --   -0.27682  -0.26382  -0.22695  -0.10202  -0.08077
 Alpha virt. eigenvalues --   -0.05903  -0.04680  -0.04409  -0.01328  -0.00790
 Alpha virt. eigenvalues --   -0.00579   0.00217   0.02684   0.03340   0.03368

 Mulliken charges:
               1
     1  C    0.606095
     2  C    0.606095
     3  C   -0.566701
     4  H    0.354510
 Sum of Mulliken charges =   1.00000

 Dipole moment (field-independent basis, Debye):
    X=              0.0000    Y=             -0.0000    Z=              1.2383  Tot=              1.2383
 Quadrupole moment (field-independent basis, Debye-Ang):
   XX=            -15.7647   YY=            -13.8130   ZZ=            -11.4623
   XY=              0.0000   XZ=             -0.0000   YZ=             -0.0000

 540737\MP4SDQ=-113.9606576\CCSD=-113.965071\CCSD(T)=-113.9859672\RMSD=
 Normal termination of Gaussian 09 at Tue Oct 10 16:27:37 2017.
