 Gaussian 09, Revision E.01,
 Gaussian 09:  ES64L-G09RevE.01 30-Nov-2015

 -----------------------------------
 #p ccsd(t,maxcyc=200)/6-311++G(d,p)
 -----------------------------------

 -------------
 ccsd(t) iener
 -------------
 Symbolic Z-matrix:
 Charge =  0 Multiplicity = 4

                         Standard orientation:
 ---------------------------------------------------------------------
 Center     Atomic      Atomic             Coordinates (Angstroms)
 Number     Number       Type             X           Y           Z
 ---------------------------------------------------------------------
      1          6           0       -0.000000    0.000000    1.144416
      2          6           0        0.000000   -0.000000   -0.111726
      3          6           0        0.000000   -0.000000   -1.400564
      4          1           0       -0.000000    0.000000    2.207242
 ---------------------------------------------------------------------

 SCF Done:  E(UHF) =  -114.009183668     A.U. after   17 cycles
 E2 =    -0.2822087805D+00 EUMP2 =    -0.11429139244899D+03
 CCSD(T)
 CCSD(T)= -0.11434923071D+03

 The electronic state is 4-SG.
 Alpha  occ. eigenvalues --  -11.31743 -11.26929 -11.24492  -1.09698  -0.99760
 Alpha  occ. eigenvalues --   -0.73533  -0.62835  -0.52456  -0.52456  -0.39223
 Alpha  occ. eigenvalues --   -0.39223
 Alpha virt. eigenvalues --    0.03942   0.08286   0.10935   0.10935   0.11869
 Alpha virt. eigenvalues --    0.14554   0.14554   0.16547   0.17918   0.18029
 Alpha virt. eigenvalues --    0.18029   0.27099   0.28460   0.28460   0.29485

  Beta  occ. eigenvalues --  -11.26753 -11.24456 -11.23414  -1.05647  -0.83852
  Beta  occ. eigenvalues --   -0.70074  -0.44582  -0.44582
  Beta virt. eigenvalues --    0.01689   0.04178   0.08275   0.08275   0.10684
  Beta virt. eigenvalues --    0.10684   0.11648   0.12109   0.18083   0.19306
  Beta virt. eigenvalues --    0.19306   0.19599   0.19818   0.19818   0.28129

 Mulliken charges and spin densities:
               1          2
     1  C   -2.254609   1.744429
     2  C    1.830515  -1.074808
     3  C    0.276212   2.461220
     4  H    0.147883  -0.130841
 Sum of Mulliken charges =  -0.00000   3.00000

 Dipole moment (field-independent basis, Debye):
    X=              0.0000    Y=              0.0000    Z=              0.6774  Tot=              0.6774
 Quadrupole moment (field-independent basis, Debye-Ang):
   XX=            -18.5507   YY=            -18.5507   ZZ=            -12.0744
   XY=             -0.0000   XZ=              0.0000   YZ=             -0.0000

 41\PMP3-0=-114.3281781\MP4SDQ=-114.3232353\CCSD=-114.3341314\CCSD(T)=-
 Normal termination of Gaussian 09 at Tue Oct 10 16:25:12 2017.
