 Gaussian 09, Revision E.01,
 Gaussian 09:  ES64L-G09RevE.01 30-Nov-2015

 -----------------------------------
 #p ccsd(t,maxcyc=200)/6-311++G(d,p)
 -----------------------------------

 -------------
 ccsd(t) iener
 -------------
 Symbolic Z-matrix:
 Charge =  0 Multiplicity = 2

                         Standard orientation:
 ---------------------------------------------------------------------
 Center     Atomic      Atomic             Coordinates (Angstroms)
 Number     Number       Type             X           Y           Z
 ---------------------------------------------------------------------
      1          6           0       -0.219294    1.405667   -0.000000
      2          6           0        0.000000    0.094964   -0.000000
      3          6           0        0.123609   -1.147856    0.000000
      4          1           0        0.574109   -2.116655    0.000000
 ---------------------------------------------------------------------

 SCF Done:  E(UHF) =  -114.007181087     A.U. after   23 cycles
 E2 =    -0.3196370562D+00 EUMP2 =    -0.11432681814283D+03
 CCSD(T)
 CCSD(T)= -0.11439392716D+03

 The electronic state is 2-A'.
 Alpha  occ. eigenvalues --  -11.32017 -11.31020 -11.25257  -1.10520  -0.96573
 Alpha  occ. eigenvalues --   -0.75952  -0.53158  -0.48521  -0.47177  -0.38549
 Alpha virt. eigenvalues --   -0.00068   0.03277   0.09760   0.10200   0.10357
 Alpha virt. eigenvalues --    0.12120   0.14444   0.16209   0.17058   0.17455
 Alpha virt. eigenvalues --    0.18092   0.18743   0.25469   0.27392   0.29259

  Beta  occ. eigenvalues --  -11.29382 -11.29126 -11.27216  -1.09550  -0.90143
  Beta  occ. eigenvalues --   -0.73962  -0.47277  -0.46140  -0.45307
  Beta virt. eigenvalues --    0.02631   0.03410   0.05144   0.09957   0.09972
  Beta virt. eigenvalues --    0.10372   0.12247   0.16244   0.16671   0.17650
  Beta virt. eigenvalues --    0.19035   0.19153   0.19394   0.27295   0.28307

 Mulliken charges and spin densities:
               1          2
     1  C    0.154117   0.712038
     2  C    1.046914  -0.952759
     3  C   -1.399387   1.318927
     4  H    0.198356  -0.078207
 Sum of Mulliken charges =  -0.00000   1.00000

 Dipole moment (field-independent basis, Debye):
    X=              0.8710    Y=             -3.4553    Z=              0.0000  Tot=              3.5634
 Quadrupole moment (field-independent basis, Debye-Ang):
   XX=            -18.7789   YY=            -18.1195   ZZ=            -17.3228
   XY=             -0.9457   XZ=              0.0000   YZ=              0.0000

 3\MP4SDQ=-114.3626836\CCSD=-114.374015\CCSD(T)=-114.3939272\S2=1.10561
 Normal termination of Gaussian 09 at Tue Oct 10 16:22:39 2017.
