 Gaussian 09, Revision E.01,
 Gaussian 09:  ES64L-G09RevE.01 30-Nov-2015

 -----------------------------------
 #p ccsd(t,maxcyc=200)/6-311++G(d,p)
 -----------------------------------

 -------------
 ccsd(t) iener
 -------------
 Symbolic Z-matrix:
 Charge =  1 Multiplicity = 1

                         Standard orientation:
 ---------------------------------------------------------------------
 Center     Atomic      Atomic             Coordinates (Angstroms)
 Number     Number       Type             X           Y           Z
 ---------------------------------------------------------------------
      1          1           0        0.000000   -0.000000    1.447635
      2          6           0        0.000000   -0.000000    0.331709
      3          6           0        0.000000    1.210003   -0.286490
      4          6           0       -0.000000   -1.210003   -0.286490
 ---------------------------------------------------------------------

 SCF Done:  E(RHF) =  -113.608554113     A.U. after   12 cycles
 E2 =    -0.3124416115D+00 EUMP2 =    -0.11392099572417D+03
 CCSD(T)
 CCSD(T)= -0.11398598368D+03

 The electronic state is 1-A1.
 Alpha  occ. eigenvalues --  -11.69992 -11.69989 -11.54514  -1.43017  -1.19061
 Alpha  occ. eigenvalues --   -0.97065  -0.80664  -0.77379  -0.74535
 Alpha virt. eigenvalues --   -0.27679  -0.26392  -0.22685  -0.10201  -0.08085
 Alpha virt. eigenvalues --   -0.05903  -0.04683  -0.04410  -0.01327  -0.00791
 Alpha virt. eigenvalues --   -0.00580   0.00217   0.02680   0.03335   0.03367

 Mulliken charges:
               1
     1  H    0.354544
     2  C   -0.566323
     3  C    0.605889
     4  C    0.605889
 Sum of Mulliken charges =   1.00000

 Dipole moment (field-independent basis, Debye):
    X=             -0.0000    Y=              0.0000    Z=              1.2387  Tot=              1.2387
 Quadrupole moment (field-independent basis, Debye-Ang):
   XX=            -15.7660   YY=            -13.8093   ZZ=            -11.4642
   XY=              0.0000   XZ=              0.0000   YZ=              0.0000

 51\MP4SDQ=-113.96067\CCSD=-113.9650844\CCSD(T)=-113.9859837\RMSD=7.644
 Normal termination of Gaussian 09 at Tue Oct 10 16:28:44 2017.
