 Gaussian 09, Revision E.01,
 Gaussian 09:  ES64L-G09RevE.01 30-Nov-2015

 -----------------------------------
 #p ccsd(t,maxcyc=200)/6-311++G(d,p)
 -----------------------------------

 -------------
 ccsd(t) iener
 -------------
 Symbolic Z-matrix:
 Charge =  0 Multiplicity = 4

                         Standard orientation:
 ---------------------------------------------------------------------
 Center     Atomic      Atomic             Coordinates (Angstroms)
 Number     Number       Type             X           Y           Z
 ---------------------------------------------------------------------
      1          6           0        0.042921    0.816782    0.000000
      2          6           0        0.042921   -0.537241    0.656702
      3          6           0        0.042921   -0.537241   -0.656702
      4          1           0       -0.772584    1.546196    0.000000
 ---------------------------------------------------------------------

 SCF Done:  E(UHF) =  -113.915286424     A.U. after   19 cycles
 E2 =    -0.3428052976D+00 EUMP2 =    -0.11425809172124D+03
 CCSD(T)
 CCSD(T)= -0.11430233662D+03

 The electronic state is 4-A".
 Alpha  occ. eigenvalues --  -11.33108 -11.32887 -11.30181  -1.22737  -0.85074
 Alpha  occ. eigenvalues --   -0.72935  -0.63470  -0.56609  -0.51086  -0.42056
 Alpha  occ. eigenvalues --   -0.34082
 Alpha virt. eigenvalues --    0.05009   0.08331   0.08550   0.08778   0.10936
 Alpha virt. eigenvalues --    0.13709   0.14530   0.14882   0.16427   0.17262
 Alpha virt. eigenvalues --    0.19348   0.20613   0.23305   0.24032   0.30344

  Beta  occ. eigenvalues --  -11.30213 -11.30067 -11.26948  -1.15391  -0.74040
  Beta  occ. eigenvalues --   -0.53948  -0.52566  -0.43153
  Beta virt. eigenvalues --   -0.01678   0.05108   0.05541   0.08719   0.09167
  Beta virt. eigenvalues --    0.10456   0.11706   0.12397   0.14699   0.16613
  Beta virt. eigenvalues --    0.16769   0.18023   0.19785   0.22631   0.23830

 Mulliken charges and spin densities:
               1          2
     1  C   -0.160857   1.298931
     2  C    0.028767   0.845961
     3  C    0.028767   0.845961
     4  H    0.103323   0.009148
 Sum of Mulliken charges =  -0.00000   3.00000

 Dipole moment (field-independent basis, Debye):
    X=             -0.9297    Y=              0.2499    Z=             -0.0000  Tot=              0.9627
 Quadrupole moment (field-independent basis, Debye-Ang):
   XX=            -18.1795   YY=            -17.6040   ZZ=            -17.4858
   XY=             -1.1223   XZ=              0.0000   YZ=              0.0000

 -114.279137\CCSD=-114.2811789\CCSD(T)=-114.3023366\S2=3.779742\S2-1=3.
 Normal termination of Gaussian 09 at Tue Oct 10 16:25:21 2017.
