 Gaussian 09, Revision E.01,
 Gaussian 09:  ES64L-G09RevE.01 30-Nov-2015

 -----------------------------------
 #p ccsd(t,maxcyc=200)/6-311++G(d,p)
 -----------------------------------

 -------------
 ccsd(t) iener
 -------------
 Symbolic Z-matrix:
 Charge =  1 Multiplicity = 3

                         Standard orientation:
 ---------------------------------------------------------------------
 Center     Atomic      Atomic             Coordinates (Angstroms)
 Number     Number       Type             X           Y           Z
 ---------------------------------------------------------------------
      1          6           0       -0.427944   -0.270832    0.000347
      2          6           0        0.839343    0.050290    0.000390
      3          6           0        2.082335    0.065755   -0.000365
      4          1           0       -1.900255    0.948899    0.000614
      5          8           0       -1.632769   -0.002522   -0.000356
 ---------------------------------------------------------------------

 SCF Done:  E(UHF) =  -188.583034708     A.U. after   24 cycles
 E2 =    -0.4741604909D+00 EUMP2 =    -0.18905719519854D+03
 CCSD(T)
 CCSD(T)= -0.18912640706D+03

 The electronic state is 3-A.
 Alpha  occ. eigenvalues --  -20.93914 -11.67412 -11.60218 -11.52475  -1.77108
 Alpha  occ. eigenvalues --   -1.36823  -1.24855  -1.13357  -0.96923  -0.88796
 Alpha  occ. eigenvalues --   -0.88148  -0.77887  -0.72622  -0.67510
 Alpha virt. eigenvalues --   -0.23281  -0.13038  -0.06650  -0.05048  -0.04606
 Alpha virt. eigenvalues --   -0.04270  -0.02368  -0.01202  -0.00250   0.00331
 Alpha virt. eigenvalues --    0.02440   0.04894   0.05052   0.05992   0.08593

  Beta  occ. eigenvalues --  -20.94508 -11.64828 -11.54417 -11.53206  -1.77645
  Beta  occ. eigenvalues --   -1.35751  -1.16654  -1.10292  -0.93837  -0.93000
  Beta  occ. eigenvalues --   -0.71709  -0.71563
  Beta virt. eigenvalues --   -0.19803  -0.16320  -0.15575  -0.11103  -0.06271
  Beta virt. eigenvalues --   -0.05000  -0.04248  -0.01909  -0.01522  -0.00332
  Beta virt. eigenvalues --    0.00039   0.02676   0.03607   0.05544   0.06172

 Mulliken charges and spin densities:
               1          2
     1  C   -0.192737   0.515695
     2  C    0.944189  -0.648734
     3  C   -0.083864   2.227366
     4  H    0.373102   0.059259
     5  O   -0.040690  -0.153586
 Sum of Mulliken charges =   1.00000   2.00000

 Dipole moment (field-independent basis, Debye):
    X=              0.2617    Y=              1.8385    Z=              0.0023  Tot=              1.8570
 Quadrupole moment (field-independent basis, Debye-Ang):
   XX=             -5.4630   YY=            -18.1078   ZZ=            -19.7425
   XY=             -3.8644   XZ=             -0.0067   YZ=              0.0011

 89.0873511\CCSD=-189.1010222\CCSD(T)=-189.1264071\S2=2.592368\S2-1=2.4
 Normal termination of Gaussian 09 at Tue Oct 10 16:21:11 2017.
