 Gaussian 09, Revision E.01,
 Gaussian 09:  ES64L-G09RevE.01 30-Nov-2015

 -----------------------------------
 #p ccsd(t,maxcyc=200)/6-311++G(d,p)
 -----------------------------------

 -------------
 ccsd(t) iener
 -------------
 Symbolic Z-matrix:
 Charge =  1 Multiplicity = 1

                         Standard orientation:
 ---------------------------------------------------------------------
 Center     Atomic      Atomic             Coordinates (Angstroms)
 Number     Number       Type             X           Y           Z
 ---------------------------------------------------------------------
      1          6           0       -0.203945   -1.828966    0.000000
      2          6           0        0.000000    0.561106   -0.000000
      3          6           0        0.531973   -0.706527    0.000000
      4          1           0        1.625350   -0.855129   -0.000000
      5          8           0       -0.449190    1.587682   -0.000000
 ---------------------------------------------------------------------

 SCF Done:  E(RHF) =  -188.645241658     A.U. after   15 cycles
 E2 =    -0.5423104553D+00 EUMP2 =    -0.18918755211302D+03
 CCSD(T)
 CCSD(T)= -0.18923689209D+03

 The electronic state is 1-A'.
 Alpha  occ. eigenvalues --  -20.97187 -11.72507 -11.64746 -11.55185  -1.82147
 Alpha  occ. eigenvalues --   -1.41123  -1.16220  -1.04871  -0.97694  -0.94742
 Alpha  occ. eigenvalues --   -0.90256  -0.75309  -0.70864
 Alpha virt. eigenvalues --   -0.22384  -0.20936  -0.15342  -0.10980  -0.07617
 Alpha virt. eigenvalues --   -0.05707  -0.04816  -0.03292  -0.01679  -0.00788
 Alpha virt. eigenvalues --   -0.00621   0.00016   0.02258   0.03906   0.04206

 Mulliken charges:
               1
     1  C    0.533708
     2  C    0.308520
     3  C   -0.170943
     4  H    0.341181
     5  O   -0.012466
 Sum of Mulliken charges =   1.00000

 Dipole moment (field-independent basis, Debye):
    X=              1.8258    Y=             -1.1824    Z=             -0.0000  Tot=              2.1752
 Quadrupole moment (field-independent basis, Debye-Ang):
   XX=            -15.9220   YY=            -16.7108   ZZ=            -20.5040
   XY=             -2.1765   XZ=              0.0000   YZ=              0.0000

 9.2088226\CCSD(T)=-189.2368921\RMSD=3.081e-09\PG=CS [SG(C3H1O1)]\\@
 Normal termination of Gaussian 09 at Tue Oct 10 16:18:10 2017.
