 Gaussian 09, Revision E.01,
 Gaussian 09:  ES64L-G09RevE.01 30-Nov-2015

 -----------------------------------
 #p ccsd(t,maxcyc=200)/6-311++G(d,p)
 -----------------------------------

 -------------
 ccsd(t) iener
 -------------
 Symbolic Z-matrix:
 Charge =  1 Multiplicity = 3

                         Standard orientation:
 ---------------------------------------------------------------------
 Center     Atomic      Atomic             Coordinates (Angstroms)
 Number     Number       Type             X           Y           Z
 ---------------------------------------------------------------------
      1          6           0       -0.000000    0.530599    0.000000
      2          6           0       -0.443852   -0.712482   -0.000000
      3          6           0       -1.138462   -1.737442   -0.000000
      4          1           0        0.976228    2.150278    0.000000
      5          8           0        1.064707    1.170709    0.000000
 ---------------------------------------------------------------------

 SCF Done:  E(UHF) =  -188.588185756     A.U. after   21 cycles
 E2 =    -0.4747636094D+00 EUMP2 =    -0.18906294936508D+03
 CCSD(T)
 CCSD(T)= -0.18913290196D+03

 The electronic state is 3-A'.
 Alpha  occ. eigenvalues --  -20.93816 -11.67586 -11.59835 -11.51913  -1.77049
 Alpha  occ. eigenvalues --   -1.36538  -1.25103  -1.09375  -1.00350  -0.88486
 Alpha  occ. eigenvalues --   -0.87841  -0.77394  -0.72357  -0.68633
 Alpha virt. eigenvalues --   -0.22995  -0.12256  -0.07344  -0.05111  -0.04878
 Alpha virt. eigenvalues --   -0.04487  -0.02127  -0.01440  -0.00320   0.00874
 Alpha virt. eigenvalues --    0.01857   0.04506   0.05492   0.08408   0.09843

  Beta  occ. eigenvalues --  -20.94243 -11.65010 -11.53815 -11.52893  -1.77106
  Beta  occ. eigenvalues --   -1.35471  -1.17262  -1.07232  -0.93977  -0.92665
  Beta  occ. eigenvalues --   -0.71319  -0.70997
  Beta virt. eigenvalues --   -0.19549  -0.17450  -0.15629  -0.11161  -0.06005
  Beta virt. eigenvalues --   -0.05276  -0.04835  -0.01423  -0.01188  -0.00045
  Beta virt. eigenvalues --    0.00044   0.03364   0.03476   0.05716   0.08292

 Mulliken charges and spin densities:
               1          2
     1  C    0.074836   0.682240
     2  C    0.762039  -0.764262
     3  C   -0.210573   2.166758
     4  H    0.394511   0.024272
     5  O   -0.020813  -0.109009
 Sum of Mulliken charges =   1.00000   2.00000

 Dipole moment (field-independent basis, Debye):
    X=             -0.8727    Y=              1.5500    Z=             -0.0000  Tot=              1.7788
 Quadrupole moment (field-independent basis, Debye-Ang):
   XX=            -17.3463   YY=             -3.5088   ZZ=            -19.7991
   XY=              7.9036   XZ=             -0.0000   YZ=              0.0000

 MP3-0=-189.0993466\MP4SDQ=-189.0931408\CCSD=-189.1072085\CCSD(T)=-189.
 Normal termination of Gaussian 09 at Tue Oct 10 16:22:08 2017.
