 Gaussian 09, Revision E.01,
 Gaussian 09:  ES64L-G09RevE.01 30-Nov-2015

 -----------------------------------
 #p ccsd(t,maxcyc=200)/6-311++G(d,p)
 -----------------------------------

 -------------
 ccsd(t) iener
 -------------
 Symbolic Z-matrix:
 Charge =  0 Multiplicity = 4

                         Standard orientation:
 ---------------------------------------------------------------------
 Center     Atomic      Atomic             Coordinates (Angstroms)
 Number     Number       Type             X           Y           Z
 ---------------------------------------------------------------------
      1          6           0       -0.727372    0.365461    0.000197
      2          6           0       -1.883409   -0.288087   -0.000341
      3          6           0        0.537591   -0.382719    0.000567
      4          1           0       -0.704031    1.464034    0.000280
      5          8           0        1.642897    0.046004   -0.000352
 ---------------------------------------------------------------------

 SCF Done:  E(UHF) =  -188.889905844     A.U. after   24 cycles
 E2 =    -0.4891334139D+00 EUMP2 =    -0.18937903925795D+03
 CCSD(T)
 CCSD(T)= -0.18944475529D+03

 The electronic state is 4-A.
 Alpha  occ. eigenvalues --  -20.60479 -11.35792 -11.33748 -11.29459  -1.44092
 Alpha  occ. eigenvalues --   -1.12513  -0.90019  -0.76439  -0.69438  -0.66501
 Alpha  occ. eigenvalues --   -0.59693  -0.55946  -0.46968  -0.45579  -0.37645
 Alpha virt. eigenvalues --    0.04714   0.05538   0.08060   0.09238   0.10682
 Alpha virt. eigenvalues --    0.12955   0.13264   0.13476   0.14684   0.15566
 Alpha virt. eigenvalues --    0.18065   0.19111   0.20370   0.22385   0.25208

  Beta  occ. eigenvalues --  -20.60618 -11.32743 -11.30311 -11.26747  -1.43750
  Beta  occ. eigenvalues --   -1.06571  -0.78212  -0.68476  -0.65669  -0.61244
  Beta  occ. eigenvalues --   -0.52754  -0.44885
  Beta virt. eigenvalues --   -0.00236   0.04976   0.06851   0.09537   0.10063
  Beta virt. eigenvalues --    0.11118   0.11459   0.11766   0.13951   0.14488
  Beta virt. eigenvalues --    0.17397   0.18229   0.18312   0.19470   0.20553

 Mulliken charges and spin densities:
               1          2
     1  C   -0.018437  -0.827909
     2  C    0.055040   2.637496
     3  C   -0.026278   1.126202
     4  H    0.205910   0.165103
     5  O   -0.216236  -0.100892
 Sum of Mulliken charges =  -0.00000   3.00000

 Dipole moment (field-independent basis, Debye):
    X=             -2.7470    Y=              0.4169    Z=              0.0007  Tot=              2.7784
 Quadrupole moment (field-independent basis, Debye-Ang):
   XX=            -25.4934   YY=            -21.7296   ZZ=            -22.7053
   XY=             -0.1558   XZ=              0.0025   YZ=              0.0018

 .408863\CCSD=-189.4201382\CCSD(T)=-189.4447553\S2=4.210246\S2-1=4.1304
 Normal termination of Gaussian 09 at Tue Oct 10 16:16:38 2017.
