 Gaussian 09, Revision E.01,
 Gaussian 09:  ES64L-G09RevE.01 30-Nov-2015

 -----------------------------------
 #p ccsd(t,maxcyc=200)/6-311++G(d,p)
 -----------------------------------

 -------------
 ccsd(t) iener
 -------------
 Symbolic Z-matrix:
 Charge =  1 Multiplicity = 1

                         Standard orientation:
 ---------------------------------------------------------------------
 Center     Atomic      Atomic             Coordinates (Angstroms)
 Number     Number       Type             X           Y           Z
 ---------------------------------------------------------------------
      1          6           0       -0.825956    0.008874   -0.000063
      2          6           0        0.419066    0.008459   -0.000241
      3          6           0       -2.143240    0.009309    0.000123
      4          1           0        2.224069    0.684840    0.000156
      5          8           0        1.634589   -0.105586    0.000116
 ---------------------------------------------------------------------

 SCF Done:  E(RHF) =  -188.588854742     A.U. after   17 cycles
 E2 =    -0.5538593827D+00 EUMP2 =    -0.18914271412518D+03
 CCSD(T)
 CCSD(T)= -0.18918880775D+03

 The electronic state is 1-A.
 Alpha  occ. eigenvalues --  -20.96119 -11.70820 -11.63454 -11.50394  -1.80433
 Alpha  occ. eigenvalues --   -1.37077  -1.22241  -1.15083  -0.97881  -0.94429
 Alpha  occ. eigenvalues --   -0.74387  -0.70485  -0.69169
 Alpha virt. eigenvalues --   -0.24290  -0.22768  -0.13138  -0.07042  -0.05365
 Alpha virt. eigenvalues --   -0.05225  -0.02483  -0.01124   0.00098   0.00174
 Alpha virt. eigenvalues --    0.02177   0.04072   0.04686   0.06124   0.08828

 Mulliken charges:
               1
     1  C    2.270811
     2  C   -2.470026
     3  C    0.972951
     4  H    0.409835
     5  O   -0.183572
 Sum of Mulliken charges =   1.00000

 Dipole moment (field-independent basis, Debye):
    X=              2.4002    Y=              1.7994    Z=             -0.0006  Tot=              2.9998
 Quadrupole moment (field-independent basis, Debye-Ang):
   XX=             -7.3527   YY=            -18.6589   ZZ=            -20.2809
   XY=              4.3437   XZ=              0.0002   YZ=              0.0003

 MP4SDQ=-189.1561006\CCSD=-189.1543704\CCSD(T)=-189.1888078\RMSD=2.537e
 Normal termination of Gaussian 09 at Tue Oct 10 16:13:09 2017.
