 Gaussian 09, Revision E.01,
 Gaussian 09:  ES64L-G09RevE.01 30-Nov-2015

 -----------------------------------
 #p ccsd(t,maxcyc=200)/6-311++G(d,p)
 -----------------------------------

 -------------
 ccsd(t) iener
 -------------
 Symbolic Z-matrix:
 Charge =  0 Multiplicity = 2

                         Standard orientation:
 ---------------------------------------------------------------------
 Center     Atomic      Atomic             Coordinates (Angstroms)
 Number     Number       Type             X           Y           Z
 ---------------------------------------------------------------------
      1          6           0        0.000000    0.733321   -0.000000
      2          6           0       -1.041745   -1.713295   -0.000000
      3          6           0       -0.380110   -0.660907   -0.000000
      4          1           0       -0.816763    1.472442   -0.000000
      5          8           0        1.168487    1.046605    0.000000
 ---------------------------------------------------------------------

 SCF Done:  E(UHF) =  -188.904798363     A.U. after   37 cycles
 E2 =    -0.5425929576D+00 EUMP2 =    -0.18944739132110D+03
 CCSD(T)
 CCSD(T)= -0.18951412727D+03

 The electronic state is 2-A'.
 Alpha  occ. eigenvalues --  -20.59747 -11.38679 -11.33331 -11.30544  -1.42479
 Alpha  occ. eigenvalues --   -1.11771  -0.94037  -0.76401  -0.68449  -0.60213
 Alpha  occ. eigenvalues --   -0.56433  -0.48009  -0.46405  -0.44809
 Alpha virt. eigenvalues --    0.04011   0.05678   0.08781   0.09731   0.09960
 Alpha virt. eigenvalues --    0.10217   0.11204   0.14264   0.14309   0.16750
 Alpha virt. eigenvalues --    0.16961   0.19603   0.20470   0.25688   0.25884

  Beta  occ. eigenvalues --  -20.61263 -11.37871 -11.30575 -11.30210  -1.45588
  Beta  occ. eigenvalues --   -1.06534  -0.90903  -0.75422  -0.69294  -0.62224
  Beta  occ. eigenvalues --   -0.49597  -0.44927  -0.43661
  Beta virt. eigenvalues --   -0.03621   0.04314   0.06178   0.09687   0.09713
  Beta virt. eigenvalues --    0.10819   0.11097   0.11959   0.15558   0.16199
  Beta virt. eigenvalues --    0.17127   0.17671   0.20054   0.22680   0.26216

 Mulliken charges and spin densities:
               1          2
     1  C    0.127752   0.344564
     2  C   -0.619767   0.986107
     3  C    0.556940   0.062720
     4  H    0.153325  -0.026030
     5  O   -0.218250  -0.367360
 Sum of Mulliken charges =  -0.00000   1.00000

 Dipole moment (field-independent basis, Debye):
    X=             -1.5914    Y=              0.1533    Z=             -0.0000  Tot=              1.5988
 Quadrupole moment (field-independent basis, Debye-Ang):
   XX=            -27.0398   YY=            -21.9999   ZZ=            -22.7977
   XY=             -4.4310   XZ=             -0.0000   YZ=             -0.0000

 MP3-0=-189.4694693\MP4SDQ=-189.4750243\CCSD=-189.4847486\CCSD(T)=-189.
 Normal termination of Gaussian 09 at Tue Oct 10 16:10:58 2017.
