 Gaussian 09, Revision E.01,
 Gaussian 09:  ES64L-G09RevE.01 30-Nov-2015

 -----------------------------------
 #p ccsd(t,maxcyc=200)/6-311++G(d,p)
 -----------------------------------

 -------------
 ccsd(t) iener
 -------------
 Symbolic Z-matrix:
 Charge =  1 Multiplicity = 1

                         Standard orientation:
 ---------------------------------------------------------------------
 Center     Atomic      Atomic             Coordinates (Angstroms)
 Number     Number       Type             X           Y           Z
 ---------------------------------------------------------------------
      1          6           0        0.000000   -0.000000    0.670842
      2          6           0       -0.000000    0.000000   -0.662865
      3          6           0        0.000000   -0.000000    1.881822
      4          1           0        0.000000   -0.000000    2.957703
      5          8           0       -0.000000    0.000000   -1.787062
 ---------------------------------------------------------------------

 SCF Done:  E(RHF) =  -188.710457698     A.U. after   13 cycles
 E2 =    -0.5778864958D+00 EUMP2 =    -0.18928834419341D+03
 CCSD(T)
 CCSD(T)= -0.18932034085D+03

 The electronic state is 1-SG.
 Alpha  occ. eigenvalues --  -20.96123 -11.71911 -11.59862 -11.53745  -1.80723
 Alpha  occ. eigenvalues --   -1.37769  -1.21800  -1.04074  -1.00230  -0.93135
 Alpha  occ. eigenvalues --   -0.93135  -0.71097  -0.71097
 Alpha virt. eigenvalues --   -0.21235  -0.21235  -0.10386  -0.07874  -0.05422
 Alpha virt. eigenvalues --   -0.05422  -0.03503  -0.01202  -0.01202   0.00479
 Alpha virt. eigenvalues --    0.02766   0.04238   0.04238   0.07521   0.08345

 Mulliken charges:
               1
     1  C    2.858978
     2  C   -0.569672
     3  C   -1.554310
     4  H    0.272212
     5  O   -0.007208
 Sum of Mulliken charges =   1.00000

 Dipole moment (field-independent basis, Debye):
    X=              0.0000    Y=             -0.0000    Z=              3.8647  Tot=              3.8647
 Quadrupole moment (field-independent basis, Debye-Ang):
   XX=            -19.7594   YY=            -19.7594   ZZ=             -2.8053
   XY=              0.0000   XZ=              0.0000   YZ=              0.0000

 785498\MP4SDQ=-189.2919261\CCSD=-189.288182\CCSD(T)=-189.3203409\RMSD=
 Normal termination of Gaussian 09 at Tue Oct 10 16:17:17 2017.
