 Gaussian 09, Revision E.01,
 Gaussian 09:  ES64L-G09RevE.01 30-Nov-2015

 -----------------------------------
 #p ccsd(t,maxcyc=200)/6-311++G(d,p)
 -----------------------------------

 -------------
 ccsd(t) iener
 -------------
 Symbolic Z-matrix:
 Charge =  0 Multiplicity = 2

                         Standard orientation:
 ---------------------------------------------------------------------
 Center     Atomic      Atomic             Coordinates (Angstroms)
 Number     Number       Type             X           Y           Z
 ---------------------------------------------------------------------
      1          6           0       -1.693913    0.046989   -0.000105
      2          6           0       -0.377000   -0.056192    0.000217
      3          6           0        0.895889    0.544383   -0.000089
      4          6           0        0.960303   -0.793214   -0.000043
      5          1           0        1.288318    1.548202    0.000121
 ---------------------------------------------------------------------

 SCF Done:  E(UHF) =  -151.811417086     A.U. after   25 cycles
 E2 =    -0.4679536413D+00 EUMP2 =    -0.15227937072727D+03
 CCSD(T)
 CCSD(T)= -0.15234167734D+03

 The electronic state is 2-A.
 Alpha  occ. eigenvalues --  -11.33230 -11.32839 -11.31352 -11.31289  -1.24766
 Alpha  occ. eigenvalues --   -1.04851  -0.81723  -0.67511  -0.57160  -0.55416
 Alpha  occ. eigenvalues --   -0.49217  -0.41113  -0.40774
 Alpha virt. eigenvalues --    0.01855   0.03652   0.08381   0.08956   0.09814
 Alpha virt. eigenvalues --    0.10247   0.12030   0.12775   0.14355   0.14613
 Alpha virt. eigenvalues --    0.15908   0.15942   0.18572   0.19587   0.21010

  Beta  occ. eigenvalues --  -11.32283 -11.31612 -11.31434 -11.31302  -1.23917
  Beta  occ. eigenvalues --   -0.97746  -0.81236  -0.66979  -0.54636  -0.50136
  Beta  occ. eigenvalues --   -0.46115  -0.41114
  Beta virt. eigenvalues --   -0.00637   0.02870   0.04671   0.09070   0.09099
  Beta virt. eigenvalues --    0.10436   0.10551   0.12045   0.13131   0.14731
  Beta virt. eigenvalues --    0.15566   0.16086   0.18733   0.19115   0.21285

 Mulliken charges and spin densities:
               1          2
     1  C    0.055536   1.046354
     2  C   -0.047655  -0.255819
     3  C   -0.113308   0.248877
     4  C   -0.124693  -0.016872
     5  H    0.230120  -0.022541
 Sum of Mulliken charges =  -0.00000   1.00000

 Dipole moment (field-independent basis, Debye):
    X=              1.5623    Y=              2.7777    Z=              0.0007  Tot=              3.1869
 Quadrupole moment (field-independent basis, Debye-Ang):
   XX=            -28.7506   YY=            -23.5888   ZZ=            -23.3418
   XY=              4.5350   XZ=             -0.0009   YZ=              0.0001

 52.3093143\CCSD=-152.3120261\CCSD(T)=-152.3416773\S2=0.791508\S2-1=0.7
 Normal termination of Gaussian 09 at Tue Oct 10 16:56:01 2017.
