 Gaussian 09, Revision E.01,
 Gaussian 09:  ES64L-G09RevE.01 30-Nov-2015

 -----------------------------------
 #p ccsd(t,maxcyc=200)/6-311++G(d,p)
 -----------------------------------

 -------------
 ccsd(t) iener
 -------------
 Symbolic Z-matrix:
 Charge =  0 Multiplicity = 4

                         Standard orientation:
 ---------------------------------------------------------------------
 Center     Atomic      Atomic             Coordinates (Angstroms)
 Number     Number       Type             X           Y           Z
 ---------------------------------------------------------------------
      1          6           0       -0.000000    0.693268    0.000000
      2          6           0       -0.471804   -0.513968    0.000000
      3          6           0       -0.006039   -1.790774   -0.000000
      4          6           0        0.309130    1.975992    0.000000
      5          1           0        1.012279   -2.187108   -0.000000
 ---------------------------------------------------------------------

 SCF Done:  E(UHF) =  -151.800538531     A.U. after   24 cycles
 E2 =    -0.4177419552D+00 EUMP2 =    -0.15221828048599D+03
 CCSD(T)
 CCSD(T)= -0.15229345016D+03

 The electronic state is 4-A".
 Alpha  occ. eigenvalues --  -11.34414 -11.31792 -11.30799 -11.28991  -1.15694
 Alpha  occ. eigenvalues --   -1.06837  -0.90738  -0.73411  -0.59649  -0.53717
 Alpha  occ. eigenvalues --   -0.49596  -0.46937  -0.42900  -0.37403
 Alpha virt. eigenvalues --    0.03318   0.03687   0.08829   0.09333   0.10599
 Alpha virt. eigenvalues --    0.11747   0.12565   0.13017   0.14990   0.15453
 Alpha virt. eigenvalues --    0.17040   0.17102   0.17746   0.19556   0.20341

  Beta  occ. eigenvalues --  -11.30706 -11.30039 -11.28997 -11.28793  -1.10571
  Beta  occ. eigenvalues --   -0.94923  -0.82737  -0.68380  -0.46633  -0.45212
  Beta  occ. eigenvalues --   -0.44249
  Beta virt. eigenvalues --   -0.01807  -0.00337   0.04303   0.07307   0.08222
  Beta virt. eigenvalues --    0.09354   0.11405   0.13372   0.13392   0.14397
  Beta virt. eigenvalues --    0.15665   0.16065   0.18042   0.18631   0.18709

 Mulliken charges and spin densities:
               1          2
     1  C    0.218038   0.222554
     2  C   -0.166304  -0.090691
     3  C   -0.082706   1.809286
     4  C   -0.143147   1.068811
     5  H    0.174118  -0.009960
 Sum of Mulliken charges =  -0.00000   3.00000

 Dipole moment (field-independent basis, Debye):
    X=              0.5291    Y=             -3.5706    Z=             -0.0000  Tot=              3.6096
 Quadrupole moment (field-independent basis, Debye-Ang):
   XX=            -24.0585   YY=            -27.9526   ZZ=            -23.3078
   XY=             -3.1666   XZ=              0.0000   YZ=             -0.0000

 0=-152.2571008\MP4SDQ=-152.2600728\CCSD=-152.267389\CCSD(T)=-152.29345
 Normal termination of Gaussian 09 at Tue Oct 10 17:12:18 2017.
