 Gaussian 09, Revision E.01,
 Gaussian 09:  ES64L-G09RevE.01 30-Nov-2015

 -----------------------------------
 #p ccsd(t,maxcyc=200)/6-311++G(d,p)
 -----------------------------------

 -------------
 ccsd(t) iener
 -------------
 Symbolic Z-matrix:
 Charge =  1 Multiplicity = 1

                         Standard orientation:
 ---------------------------------------------------------------------
 Center     Atomic      Atomic             Coordinates (Angstroms)
 Number     Number       Type             X           Y           Z
 ---------------------------------------------------------------------
      1          1           0       -1.037623   -1.717532    0.000000
      2          6           0       -0.209715   -1.012334    0.000000
      3          6           0       -0.000000    0.359201   -0.000000
      4          6           0        1.113689   -0.583430    0.000000
      5          6           0       -0.731037    1.522818   -0.000000
 ---------------------------------------------------------------------

 SCF Done:  E(RHF) =  -151.451573037     A.U. after   16 cycles
 E2 =    -0.4636635006D+00 EUMP2 =    -0.15191523653762D+03
 CCSD(T)
 CCSD(T)= -0.15198201901D+03

 The electronic state is 1-A'.
 Alpha  occ. eigenvalues --  -11.70764 -11.61724 -11.58126 -11.57578  -1.51881
 Alpha  occ. eigenvalues --   -1.28915  -1.07131  -0.91814  -0.83328  -0.77485
 Alpha  occ. eigenvalues --   -0.77039  -0.64982
 Alpha virt. eigenvalues --   -0.30716  -0.24955  -0.11954  -0.10014  -0.07482
 Alpha virt. eigenvalues --   -0.06680  -0.05633  -0.02659  -0.02254  -0.02142
 Alpha virt. eigenvalues --   -0.00486  -0.00412   0.01572   0.02776   0.03660

 Mulliken charges:
               1
     1  H    0.344528
     2  C    0.074919
     3  C   -0.281881
     4  C    0.129424
     5  C    0.733010
 Sum of Mulliken charges =   1.00000

 Dipole moment (field-independent basis, Debye):
    X=             -2.9744    Y=             -0.4681    Z=             -0.0000  Tot=              3.0110
 Quadrupole moment (field-independent basis, Debye-Ang):
   XX=            -21.2496   YY=            -12.6900   ZZ=            -19.2381
   XY=              1.9495   XZ=             -0.0000   YZ=             -0.0000

 9418\CCSD(T)=-151.982019\RMSD=3.270e-09\PG=CS [SG(C4H1)]\\@
 Normal termination of Gaussian 09 at Tue Oct 10 17:14:04 2017.
