 Gaussian 09, Revision E.01,
 Gaussian 09:  ES64L-G09RevE.01 30-Nov-2015

 -----------------------------------
 #p ccsd(t,maxcyc=200)/6-311++G(d,p)
 -----------------------------------

 -------------
 ccsd(t) iener
 -------------
 Symbolic Z-matrix:
 Charge =  1 Multiplicity = 1

                         Standard orientation:
 ---------------------------------------------------------------------
 Center     Atomic      Atomic             Coordinates (Angstroms)
 Number     Number       Type             X           Y           Z
 ---------------------------------------------------------------------
      1          6           0        0.000000   -0.000000   -0.744237
      2          6           0        0.000000   -0.000000   -2.089029
      3          6           0       -0.000000    0.000000    1.800631
      4          6           0       -0.000000    0.000000    0.552945
      5          1           0       -0.000000    0.000000    2.878136
 ---------------------------------------------------------------------

 SCF Done:  E(RHF) =  -151.481320122     A.U. after   15 cycles
 E2 =    -0.4580164283D+00 EUMP2 =    -0.15193933655061D+03
 CCSD(T)
 CCSD(T)= -0.15200729772D+03

 Unable to determine electronic state:  an orbital has unidentified symmetry.
 Alpha  occ. eigenvalues --  -11.61936 -11.60933 -11.58379 -11.56445  -1.38874
 Alpha  occ. eigenvalues --   -1.29318  -1.15102  -1.00734  -0.77953  -0.73802
 Alpha  occ. eigenvalues --   -0.73001  -0.63567
 Alpha virt. eigenvalues --   -0.32509  -0.17743  -0.14062  -0.09806  -0.06735
 Alpha virt. eigenvalues --   -0.04154  -0.04106  -0.02399  -0.01971  -0.01769
 Alpha virt. eigenvalues --    0.00650   0.02724   0.04652   0.04989   0.07304

 Mulliken charges:
               1
     1  C    0.226342
     2  C    0.013704
     3  C   -1.884681
     4  C    2.363475
     5  H    0.281160
 Sum of Mulliken charges =   1.00000

 Dipole moment (field-independent basis, Debye):
    X=             -0.0000    Y=              0.0000    Z=              3.5403  Tot=              3.5403
 Quadrupole moment (field-independent basis, Debye-Ang):
   XX=            -22.4865   YY=            -18.8942   ZZ=             -3.0779
   XY=              0.0000   XZ=             -0.0000   YZ=              0.0000

 9758203\CCSD(T)=-152.0072977\RMSD=3.182e-09\PG=C*V [C*(C1C1C1C1H1)]\\@
 Normal termination of Gaussian 09 at Tue Oct 10 17:12:53 2017.
