 Gaussian 09, Revision E.01,
 Gaussian 09:  ES64L-G09RevE.01 30-Nov-2015

 -----------------------------------
 #p ccsd(t,maxcyc=200)/6-311++G(d,p)
 -----------------------------------

 -------------
 ccsd(t) iener
 -------------
 Symbolic Z-matrix:
 Charge =  0 Multiplicity = 2

                         Standard orientation:
 ---------------------------------------------------------------------
 Center     Atomic      Atomic             Coordinates (Angstroms)
 Number     Number       Type             X           Y           Z
 ---------------------------------------------------------------------
      1          6           0       -0.000022   -2.047639   -0.000000
      2          6           0        0.095835   -0.768761    0.000000
      3          6           0       -0.000000    0.559893    0.000000
      4          6           0       -0.072804    1.782414   -0.000000
      5          1           0       -0.138054    2.844555   -0.000000
 ---------------------------------------------------------------------

 SCF Done:  E(UHF) =  -151.866271140     A.U. after   32 cycles
 E2 =    -0.4386074500D+00 EUMP2 =    -0.15230487858958D+03
 CCSD(T)
 CCSD(T)= -0.15238940522D+03

 The electronic state is 2-A'.
 Alpha  occ. eigenvalues --  -11.30431 -11.29876 -11.29496 -11.28390  -1.13452
 Alpha  occ. eigenvalues --   -1.06520  -0.87730  -0.75496  -0.54492  -0.52909
 Alpha  occ. eigenvalues --   -0.47469  -0.42790  -0.40792
 Alpha virt. eigenvalues --    0.03021   0.06788   0.08249   0.09356   0.11064
 Alpha virt. eigenvalues --    0.11243   0.11569   0.12645   0.13269   0.15221
 Alpha virt. eigenvalues --    0.16586   0.19198   0.20448   0.22487   0.23941

  Beta  occ. eigenvalues --  -11.30598 -11.30108 -11.27803 -11.27517  -1.11504
  Beta  occ. eigenvalues --   -1.00330  -0.86318  -0.73922  -0.52074  -0.48862
  Beta  occ. eigenvalues --   -0.46982  -0.38024
  Beta virt. eigenvalues --   -0.02469   0.03137   0.07259   0.08345   0.09630
  Beta virt. eigenvalues --    0.11218   0.12754   0.13187   0.13793   0.15278
  Beta virt. eigenvalues --    0.15714   0.17057   0.20080   0.20884   0.22632

 Mulliken charges and spin densities:
               1          2
     1  C   -0.601732   0.079859
     2  C   -0.030438   0.832090
     3  C    2.412045  -1.127206
     4  C   -1.951512   1.302933
     5  H    0.171638  -0.087677
 Sum of Mulliken charges =   0.00000   1.00000

 Dipole moment (field-independent basis, Debye):
    X=              0.1442    Y=              3.9141    Z=              0.0000  Tot=              3.9168
 Quadrupole moment (field-independent basis, Debye-Ang):
   XX=            -22.8852   YY=            -23.1321   ZZ=            -24.8226
   XY=             -1.0765   XZ=             -0.0000   YZ=             -0.0000

 .3574441\MP4SDQ=-152.3450521\CCSD=-152.3614702\CCSD(T)=-152.3894052\S2
 Normal termination of Gaussian 09 at Tue Oct 10 16:57:26 2017.
