 Gaussian 09, Revision E.01,
 Gaussian 09:  ES64L-G09RevE.01 30-Nov-2015

 -----------------------------------
 #p ccsd(t,maxcyc=200)/6-311++G(d,p)
 -----------------------------------

 -------------
 ccsd(t) iener
 -------------
 Symbolic Z-matrix:
 Charge =  0 Multiplicity = 4

                         Standard orientation:
 ---------------------------------------------------------------------
 Center     Atomic      Atomic             Coordinates (Angstroms)
 Number     Number       Type             X           Y           Z
 ---------------------------------------------------------------------
      1          6           0       -1.903043   -0.216254    0.000425
      2          6           0       -0.638178    0.061869   -0.000713
      3          6           0        1.722915   -0.513942    0.000121
      4          6           0        0.659066    0.422193    0.000046
      5          1           0        0.955445    1.476810    0.000726
 ---------------------------------------------------------------------

 SCF Done:  E(UHF) =  -151.733241298     A.U. after   31 cycles
 E2 =    -0.4544759125D+00 EUMP2 =    -0.15218771721050D+03
 CCSD(T)
 CCSD(T)= -0.15226053770D+03

 The electronic state is 4-A.
 Alpha  occ. eigenvalues --  -11.33750 -11.33346 -11.32946 -11.32551  -1.17517
 Alpha  occ. eigenvalues --   -1.08248  -0.88011  -0.74265  -0.56936  -0.54225
 Alpha  occ. eigenvalues --   -0.51037  -0.46770  -0.42401  -0.41012
 Alpha virt. eigenvalues --    0.02535   0.03720   0.09253   0.09787   0.10456
 Alpha virt. eigenvalues --    0.10518   0.12068   0.13207   0.13310   0.15147
 Alpha virt. eigenvalues --    0.15256   0.16811   0.18297   0.18934   0.19264

  Beta  occ. eigenvalues --  -11.33744 -11.32059 -11.31182 -11.29016  -1.12672
  Beta  occ. eigenvalues --   -0.96590  -0.78112  -0.68879  -0.47305  -0.46796
  Beta  occ. eigenvalues --   -0.34290
  Beta virt. eigenvalues --   -0.09300  -0.03005   0.03922   0.07676   0.08704
  Beta virt. eigenvalues --    0.10482   0.11089   0.11926   0.12305   0.14201
  Beta virt. eigenvalues --    0.15084   0.15191   0.17358   0.18084   0.18329

 Mulliken charges and spin densities:
               1          2
     1  C   -0.197971   0.989174
     2  C    0.470380   0.300606
     3  C   -0.108081   1.831299
     4  C   -0.392038  -0.218072
     5  H    0.227710   0.096993
 Sum of Mulliken charges =  -0.00000   3.00000

 Dipole moment (field-independent basis, Debye):
    X=              1.1221    Y=              1.7546    Z=             -0.0011  Tot=              2.0827
 Quadrupole moment (field-independent basis, Debye-Ang):
   XX=            -33.1297   YY=            -22.6447   ZZ=            -23.8684
   XY=              1.7528   XZ=              0.0044   YZ=              0.0014

 238696\CCSD=-152.2278442\CCSD(T)=-152.2605377\S2=3.9079\S2-1=3.845224\
 Normal termination of Gaussian 09 at Tue Oct 10 17:05:40 2017.
