 Gaussian 09, Revision E.01,
 Gaussian 09:  ES64L-G09RevE.01 30-Nov-2015

 -----------------------------------
 #p ccsd(t,maxcyc=200)/6-311++G(d,p)
 -----------------------------------

 -------------
 ccsd(t) iener
 -------------
 Symbolic Z-matrix:
 Charge =  0 Multiplicity = 2

                         Standard orientation:
 ---------------------------------------------------------------------
 Center     Atomic      Atomic             Coordinates (Angstroms)
 Number     Number       Type             X           Y           Z
 ---------------------------------------------------------------------
      1          6           0        0.000000   -0.000000   -1.099588
      2          1           0        0.000000   -0.000000   -2.172177
      3          6           0       -0.000000    0.000000    1.317226
      4          6           0       -0.000000    0.755434    0.072196
      5          6           0       -0.000000   -0.755434    0.072196
 ---------------------------------------------------------------------

 SCF Done:  E(UHF) =  -151.808987581     A.U. after   17 cycles
 E2 =    -0.4962503851D+00 EUMP2 =    -0.15230523796634D+03
 CCSD(T)
 CCSD(T)= -0.15235487168D+03

 The electronic state is 2-B1.
 Alpha  occ. eigenvalues --  -11.34819 -11.34687 -11.34625 -11.29981  -1.33058
 Alpha  occ. eigenvalues --   -1.01689  -0.77785  -0.75971  -0.60954  -0.55845
 Alpha  occ. eigenvalues --   -0.48429  -0.40684  -0.37203
 Alpha virt. eigenvalues --    0.02863   0.07169   0.07362   0.09654   0.10498
 Alpha virt. eigenvalues --    0.10962   0.12068   0.13745   0.14369   0.14572
 Alpha virt. eigenvalues --    0.15190   0.16004   0.18207   0.18573   0.20005

  Beta  occ. eigenvalues --  -11.35237 -11.35147 -11.32876 -11.28680  -1.31648
  Beta  occ. eigenvalues --   -0.95557  -0.76340  -0.75567  -0.54607  -0.53200
  Beta  occ. eigenvalues --   -0.47838  -0.39696
  Beta virt. eigenvalues --    0.02952   0.03713   0.05642   0.07549   0.10149
  Beta virt. eigenvalues --    0.11027   0.11137   0.12199   0.13942   0.14702
  Beta virt. eigenvalues --    0.16267   0.16886   0.17385   0.17994   0.18669

 Mulliken charges and spin densities:
               1          2
     1  C   -0.269115   0.802846
     2  H    0.232428  -0.060926
     3  C   -0.294611   0.684067
     4  C    0.165649  -0.212994
     5  C    0.165649  -0.212994
 Sum of Mulliken charges =  -0.00000   1.00000

 Dipole moment (field-independent basis, Debye):
    X=             -0.0000    Y=              0.0000    Z=             -4.3881  Tot=              4.3881
 Quadrupole moment (field-independent basis, Debye-Ang):
   XX=            -23.1460   YY=            -25.6365   ZZ=            -24.6872
   XY=             -0.0000   XZ=             -0.0000   YZ=              0.0000

 72\CCSD(T)=-152.3548717\S2=0.816747\S2-1=0.779267\S2A=0.751396\RMSD=4.
 Normal termination of Gaussian 09 at Tue Oct 10 16:58:43 2017.
