 Gaussian 09, Revision E.01,
 Gaussian 09:  ES64L-G09RevE.01 30-Nov-2015

 -----------------------------------
 #p ccsd(t,maxcyc=200)/6-311++G(d,p)
 -----------------------------------

 -------------
 ccsd(t) iener
 -------------
 Symbolic Z-matrix:
 Charge =  1 Multiplicity = 3

                         Standard orientation:
 ---------------------------------------------------------------------
 Center     Atomic      Atomic             Coordinates (Angstroms)
 Number     Number       Type             X           Y           Z
 ---------------------------------------------------------------------
      1          1           0       -0.000000   -0.000000    2.593487
      2          6           0       -0.000000   -0.000000    1.512388
      3          6           0       -0.000000   -0.000000    0.203908
      4          6           0        0.000000    0.649730   -1.074271
      5          6           0       -0.000000   -0.649730   -1.074271
 ---------------------------------------------------------------------

 SCF Done:  E(UHF) =  -151.449849886     A.U. after   21 cycles
 E2 =    -0.4506138964D+00 EUMP2 =    -0.15190046378241D+03
 CCSD(T)
 CCSD(T)= -0.15196293933D+03

 The electronic state is 3-A2.
 Alpha  occ. eigenvalues --  -11.65413 -11.62842 -11.59441 -11.59193  -1.53991
 Alpha  occ. eigenvalues --   -1.37532  -1.05001  -0.95332  -0.89896  -0.85155
 Alpha  occ. eigenvalues --   -0.72805  -0.72228  -0.70442
 Alpha virt. eigenvalues --   -0.26072  -0.11468  -0.10194  -0.09947  -0.06271
 Alpha virt. eigenvalues --   -0.05244  -0.04755  -0.04578  -0.01985  -0.01068
 Alpha virt. eigenvalues --   -0.00065   0.01366   0.03171   0.03262   0.03879

  Beta  occ. eigenvalues --  -11.66421 -11.59214 -11.57810 -11.57582  -1.53103
  Beta  occ. eigenvalues --   -1.25464  -1.01280  -0.90653  -0.88321  -0.78665
  Beta  occ. eigenvalues --   -0.63335
  Beta virt. eigenvalues --   -0.31005  -0.25666  -0.14767  -0.09477  -0.08143
  Beta virt. eigenvalues --   -0.06097  -0.05290  -0.04271  -0.03034  -0.01334
  Beta virt. eigenvalues --   -0.00770  -0.00024   0.01487   0.02540   0.03873

 Mulliken charges and spin densities:
               1          2
     1  H    0.355044  -0.098460
     2  C    0.493160   2.099135
     3  C    0.573216  -0.347499
     4  C   -0.210710   0.173412
     5  C   -0.210710   0.173412
 Sum of Mulliken charges =   1.00000   2.00000

 Dipole moment (field-independent basis, Debye):
    X=              0.0000    Y=             -0.0000    Z=              3.2222  Tot=              3.2222
 Quadrupole moment (field-independent basis, Debye-Ang):
   XX=            -20.4217   YY=            -21.7464   ZZ=             -5.3379
   XY=             -0.0000   XZ=             -0.0000   YZ=             -0.0000

 .9256406\MP4SDQ=-151.9280341\CCSD=-151.9320634\CCSD(T)=-151.9629393\S2
 Normal termination of Gaussian 09 at Tue Oct 10 17:20:05 2017.
