 Gaussian 09, Revision E.01,
 Gaussian 09:  ES64L-G09RevE.01 30-Nov-2015

 -----------------------------------
 #p ccsd(t,maxcyc=200)/6-311++G(d,p)
 -----------------------------------

 -------------
 ccsd(t) iener
 -------------
 Symbolic Z-matrix:
 Charge =  1 Multiplicity = 3

                         Standard orientation:
 ---------------------------------------------------------------------
 Center     Atomic      Atomic             Coordinates (Angstroms)
 Number     Number       Type             X           Y           Z
 ---------------------------------------------------------------------
      1          6           0        0.000000    0.367124   -0.000000
      2          6           0        0.944465   -0.656366    0.000000
      3          6           0       -0.458862    1.661595   -0.000000
      4          6           0       -0.293505   -1.081812    0.000000
      5          1           0       -1.152589   -1.743246    0.000000
 ---------------------------------------------------------------------

 SCF Done:  E(UHF) =  -151.491975589     A.U. after   26 cycles
 E2 =    -0.4210250310D+00 EUMP2 =    -0.15191300062040D+03
 CCSD(T)
 CCSD(T)= -0.15197917554D+03

 The electronic state is 3-A".
 Alpha  occ. eigenvalues --  -11.63318 -11.61850 -11.60195 -11.60040  -1.54630
 Alpha  occ. eigenvalues --   -1.29930  -1.08473  -0.97419  -0.89451  -0.84200
 Alpha  occ. eigenvalues --   -0.75263  -0.72020  -0.66351
 Alpha virt. eigenvalues --   -0.20761  -0.15707  -0.09844  -0.09795  -0.06904
 Alpha virt. eigenvalues --   -0.06255  -0.04877  -0.02843  -0.02093  -0.01155
 Alpha virt. eigenvalues --   -0.00221   0.01222   0.01834   0.03871   0.05494

  Beta  occ. eigenvalues --  -11.61727 -11.59817 -11.59690 -11.58438  -1.52073
  Beta  occ. eigenvalues --   -1.21430  -1.06884  -0.89017  -0.82287  -0.77268
  Beta  occ. eigenvalues --   -0.70195
  Beta virt. eigenvalues --   -0.24728  -0.23778  -0.15822  -0.11003  -0.09451
  Beta virt. eigenvalues --   -0.06188  -0.06062  -0.04780  -0.02424  -0.01207
  Beta virt. eigenvalues --   -0.00891  -0.00409   0.02119   0.02163   0.02923

 Mulliken charges and spin densities:
               1          2
     1  C   -0.060173   0.131420
     2  C    0.304066   0.821457
     3  C    0.484207   0.953330
     4  C   -0.058743   0.101360
     5  H    0.330643  -0.007567
 Sum of Mulliken charges =   1.00000   2.00000

 Dipole moment (field-independent basis, Debye):
    X=             -0.3598    Y=             -2.7761    Z=              0.0000  Tot=              2.7993
 Quadrupole moment (field-independent basis, Debye-Ang):
   XX=            -16.4178   YY=            -15.4449   ZZ=            -20.4195
   XY=              2.7551   XZ=             -0.0000   YZ=              0.0000

 MP3-0=-151.9431111\MP4SDQ=-151.948025\CCSD=-151.9535644\CCSD(T)=-151.9
 Normal termination of Gaussian 09 at Tue Oct 10 17:22:59 2017.
