 Gaussian 09, Revision E.01,
 Gaussian 09:  ES64L-G09RevE.01 30-Nov-2015

 -----------------------------------
 #p ccsd(t,maxcyc=200)/6-311++G(d,p)
 -----------------------------------

 -------------
 ccsd(t) iener
 -------------
 Symbolic Z-matrix:
 Charge =  1 Multiplicity = 1

                         Standard orientation:
 ---------------------------------------------------------------------
 Center     Atomic      Atomic             Coordinates (Angstroms)
 Number     Number       Type             X           Y           Z
 ---------------------------------------------------------------------
      1          1           0       -0.000000    0.000000    1.822463
      2          6           0       -0.000000    0.000000    0.728715
      3          6           0        0.000000   -0.000000   -0.697881
      4          6           0        0.000000    1.287148   -0.167288
      5          6           0       -0.000000   -1.287148   -0.167288
 ---------------------------------------------------------------------

 SCF Done:  E(RHF) =  -151.458342762     A.U. after   12 cycles
 E2 =    -0.4687809080D+00 EUMP2 =    -0.15192712366963D+03
 CCSD(T)
 CCSD(T)= -0.15198378003D+03

 The electronic state is 1-A1.
 Alpha  occ. eigenvalues --  -11.66443 -11.64952 -11.64062 -11.64047  -1.60955
 Alpha  occ. eigenvalues --   -1.27622  -1.12457  -0.90399  -0.83039  -0.81602
 Alpha  occ. eigenvalues --   -0.79418  -0.70010
 Alpha virt. eigenvalues --   -0.25514  -0.20874  -0.16604  -0.10319  -0.07688
 Alpha virt. eigenvalues --   -0.07612  -0.04890  -0.03380  -0.02271  -0.01715
 Alpha virt. eigenvalues --   -0.01319  -0.00032   0.00508   0.01734   0.02346

 Mulliken charges:
               1
     1  H    0.390585
     2  C   -0.116414
     3  C   -0.178042
     4  C    0.451935
     5  C    0.451935
 Sum of Mulliken charges =   1.00000

 Dipole moment (field-independent basis, Debye):
    X=             -0.0000    Y=              0.0000    Z=              1.5066  Tot=              1.5066
 Quadrupole moment (field-independent basis, Debye-Ang):
   XX=            -19.0161   YY=            -23.7791   ZZ=            -14.2579
   XY=              0.0000   XZ=              0.0000   YZ=              0.0000

 18\MP4DQ=-151.9457245\MP4SDQ=-151.9521432\CCSD=-151.9535591\CCSD(T)=-1
 Normal termination of Gaussian 09 at Tue Oct 10 17:14:45 2017.
