 Gaussian 09, Revision E.01,
 Gaussian 09:  ES64L-G09RevE.01 30-Nov-2015

 -----------------------------------
 #p ccsd(t,maxcyc=200)/6-311++G(d,p)
 -----------------------------------

 -------------
 ccsd(t) iener
 -------------
 Symbolic Z-matrix:
 Charge =  1 Multiplicity = 3

                         Standard orientation:
 ---------------------------------------------------------------------
 Center     Atomic      Atomic             Coordinates (Angstroms)
 Number     Number       Type             X           Y           Z
 ---------------------------------------------------------------------
      1          6           0       -0.556898   -0.859008    0.000000
      2          6           0        0.183259   -0.174933    0.952744
      3          6           0        0.183259   -0.174933   -0.952744
      4          6           0        0.183259    0.882090   -0.000000
      5          1           0        0.042719    1.960706   -0.000000
 ---------------------------------------------------------------------

 SCF Done:  E(UHF) =  -151.469430217     A.U. after   21 cycles
 E2 =    -0.4568291139D+00 EUMP2 =    -0.15192625933077D+03
 CCSD(T)
 CCSD(T)= -0.15198069986D+03

 The electronic state is 3-A".
 Alpha  occ. eigenvalues --  -11.64775 -11.63840 -11.61908 -11.61904  -1.59586
 Alpha  occ. eigenvalues --   -1.19616  -1.16403  -0.99737  -0.88926  -0.88032
 Alpha  occ. eigenvalues --   -0.79948  -0.71685  -0.71421
 Alpha virt. eigenvalues --   -0.20363  -0.17448  -0.12639  -0.09018  -0.06186
 Alpha virt. eigenvalues --   -0.05940  -0.05513  -0.01817  -0.01807  -0.00527
 Alpha virt. eigenvalues --    0.00100   0.00110   0.02291   0.03324   0.03798

  Beta  occ. eigenvalues --  -11.63286 -11.61548 -11.59739 -11.59722  -1.56563
  Beta  occ. eigenvalues --   -1.15503  -1.09674  -0.94038  -0.84690  -0.77648
  Beta  occ. eigenvalues --   -0.63334
  Beta virt. eigenvalues --   -0.24968  -0.23141  -0.16537  -0.15523  -0.10431
  Beta virt. eigenvalues --   -0.07415  -0.05779  -0.04753  -0.03976  -0.01541
  Beta virt. eigenvalues --   -0.01042   0.00080   0.00931   0.02186   0.02849

 Mulliken charges and spin densities:
               1          2
     1  C    0.432327   0.844920
     2  C    0.076871   0.491067
     3  C    0.076871   0.491067
     4  C    0.081875   0.189257
     5  H    0.332056  -0.016311
 Sum of Mulliken charges =   1.00000   2.00000

 Dipole moment (field-independent basis, Debye):
    X=             -0.3239    Y=              1.4511    Z=             -0.0000  Tot=              1.4868
 Quadrupole moment (field-independent basis, Debye-Ang):
   XX=            -19.3685   YY=            -12.9963   ZZ=            -20.5928
   XY=              0.8604   XZ=             -0.0000   YZ=             -0.0000

 84732\CCSD(T)=-151.9806999\S2=2.09181\S2-1=2.04871\S2A=2.001114\RMSD=3
 Normal termination of Gaussian 09 at Tue Oct 10 17:20:14 2017.
