 Gaussian 09, Revision E.01,
 Gaussian 09:  ES64L-G09RevE.01 30-Nov-2015

 -----------------------------------
 #p ccsd(t,maxcyc=200)/6-311++G(d,p)
 -----------------------------------

 -------------
 ccsd(t) iener
 -------------
 Symbolic Z-matrix:
 Charge =  0 Multiplicity = 4

                         Standard orientation:
 ---------------------------------------------------------------------
 Center     Atomic      Atomic             Coordinates (Angstroms)
 Number     Number       Type             X           Y           Z
 ---------------------------------------------------------------------
      1          6           0       -0.000000    0.344186   -0.000000
      2          6           0       -0.429471   -1.043968    0.000000
      3          1           0       -1.225995   -1.775344    0.000000
      4          6           0        0.876833   -0.733344    0.000000
      5          6           0       -0.243030    1.729017   -0.000000
 ---------------------------------------------------------------------

 SCF Done:  E(UHF) =  -151.757569009     A.U. after   23 cycles
 E2 =    -0.4425990092D+00 EUMP2 =    -0.15220016801863D+03
 CCSD(T)
 CCSD(T)= -0.15225992472D+03

 The electronic state is 4-A".
 Alpha  occ. eigenvalues --  -11.36585 -11.35480 -11.34096 -11.23881  -1.29060
 Alpha  occ. eigenvalues --   -1.00350  -0.85467  -0.74502  -0.63140  -0.58700
 Alpha  occ. eigenvalues --   -0.52902  -0.44352  -0.35215  -0.32928
 Alpha virt. eigenvalues --    0.02711   0.04906   0.07199   0.08726   0.09587
 Alpha virt. eigenvalues --    0.12249   0.12626   0.14055   0.14994   0.15657
 Alpha virt. eigenvalues --    0.16541   0.16905   0.18249   0.20815   0.21843

  Beta  occ. eigenvalues --  -11.34850 -11.33738 -11.33220 -11.20861  -1.25126
  Beta  occ. eigenvalues --   -0.88327  -0.81632  -0.60890  -0.56949  -0.51808
  Beta  occ. eigenvalues --   -0.37327
  Beta virt. eigenvalues --   -0.01995   0.02962   0.03231   0.07698   0.08406
  Beta virt. eigenvalues --    0.09552   0.09830   0.12591   0.13025   0.14402
  Beta virt. eigenvalues --    0.15066   0.16322   0.16727   0.19702   0.19848

 Mulliken charges and spin densities:
               1          2
     1  C    0.200232   0.328995
     2  C   -0.245516   0.351172
     3  H    0.217927  -0.000973
     4  C    0.163534   0.840454
     5  C   -0.336176   1.480351
 Sum of Mulliken charges =  -0.00000   3.00000

 Dipole moment (field-independent basis, Debye):
    X=             -0.1916    Y=             -5.8825    Z=              0.0000  Tot=              5.8856
 Quadrupole moment (field-independent basis, Debye-Ang):
   XX=            -22.0421   YY=            -31.1617   ZZ=            -23.2847
   XY=              3.3973   XZ=             -0.0000   YZ=              0.0000

 =-152.2265344\MP4SDQ=-152.2308675\CCSD=-152.2339247\CCSD(T)=-152.25992
 Normal termination of Gaussian 09 at Tue Oct 10 17:07:20 2017.
