 Gaussian 09, Revision E.01,
 Gaussian 09:  ES64L-G09RevE.01 30-Nov-2015

 -----------------------------------
 #p ccsd(t,maxcyc=200)/6-311++G(d,p)
 -----------------------------------

 -------------
 ccsd(t) iener
 -------------
 Symbolic Z-matrix:
 Charge =  0 Multiplicity = 4

                         Standard orientation:
 ---------------------------------------------------------------------
 Center     Atomic      Atomic             Coordinates (Angstroms)
 Number     Number       Type             X           Y           Z
 ---------------------------------------------------------------------
      1          1           0        1.561176   -0.808899   -0.000000
      2          6           0        0.482762   -0.615675   -0.000000
      3          6           0       -0.000000    0.641261    0.000000
      4          6           0       -0.396866    1.874013    0.000000
      5          6           0       -0.346092   -1.764784   -0.000000
 ---------------------------------------------------------------------

 SCF Done:  E(UHF) =  -151.733219279     A.U. after   28 cycles
 E2 =    -0.4544930465D+00 EUMP2 =    -0.15218771232541D+03
 CCSD(T)
 CCSD(T)= -0.15226053871D+03

 The electronic state is 4-A".
 Alpha  occ. eigenvalues --  -11.33750 -11.33343 -11.32950 -11.32553  -1.17516
 Alpha  occ. eigenvalues --   -1.08254  -0.88017  -0.74255  -0.56938  -0.54226
 Alpha  occ. eigenvalues --   -0.51040  -0.46772  -0.42400  -0.41019
 Alpha virt. eigenvalues --    0.02538   0.03721   0.09255   0.09787   0.10455
 Alpha virt. eigenvalues --    0.10518   0.12065   0.13204   0.13307   0.15149
 Alpha virt. eigenvalues --    0.15257   0.16812   0.18301   0.18937   0.19265

  Beta  occ. eigenvalues --  -11.33744 -11.32060 -11.31186 -11.29012  -1.12670
  Beta  occ. eigenvalues --   -0.96595  -0.78121  -0.68868  -0.47303  -0.46800
  Beta  occ. eigenvalues --   -0.34282
  Beta virt. eigenvalues --   -0.09306  -0.03010   0.03923   0.07677   0.08705
  Beta virt. eigenvalues --    0.10480   0.11090   0.11926   0.12307   0.14201
  Beta virt. eigenvalues --    0.15083   0.15191   0.17359   0.18082   0.18332

 Mulliken charges and spin densities:
               1          2
     1  H    0.227679   0.097154
     2  C   -0.391308  -0.219356
     3  C    0.469589   0.301330
     4  C   -0.197647   0.989596
     5  C   -0.108312   1.831276
 Sum of Mulliken charges =  -0.00000   3.00000

 Dipole moment (field-independent basis, Debye):
    X=              1.8519    Y=             -0.9470    Z=             -0.0000  Tot=              2.0800
 Quadrupole moment (field-independent basis, Debye-Ang):
   XX=            -22.4069   YY=            -33.3711   ZZ=            -23.8683
   XY=             -0.7235   XZ=              0.0000   YZ=             -0.0000

 1\PMP3-0=-152.2194351\MP4SDQ=-152.2238626\CCSD=-152.2278423\CCSD(T)=-1
 Normal termination of Gaussian 09 at Tue Oct 10 17:02:53 2017.
