 Gaussian 09, Revision E.01,
 Gaussian 09:  ES64L-G09RevE.01 30-Nov-2015

 -----------------------------------
 #p ccsd(t,maxcyc=200)/6-311++G(d,p)
 -----------------------------------

 -------------
 ccsd(t) iener
 -------------
 Symbolic Z-matrix:
 Charge =  0 Multiplicity = 4

                         Standard orientation:
 ---------------------------------------------------------------------
 Center     Atomic      Atomic             Coordinates (Angstroms)
 Number     Number       Type             X           Y           Z
 ---------------------------------------------------------------------
      1          6           0        0.829868   -1.031154   -0.000000
      2          6           0        0.000000    0.169719    0.000000
      3          6           0       -0.114562    1.557928    0.000000
      4          6           0       -0.548524   -1.060637   -0.000000
      5          1           0       -1.000694    2.184861    0.000000
 ---------------------------------------------------------------------

 SCF Done:  E(UHF) =  -151.792216302     A.U. after   21 cycles
 E2 =    -0.4323479776D+00 EUMP2 =    -0.15222456427948D+03
 CCSD(T)
 CCSD(T)= -0.15228455768D+03

 The electronic state is 4-A".
 Alpha  occ. eigenvalues --  -11.32822 -11.32251 -11.31876 -11.28388  -1.25441
 Alpha  occ. eigenvalues --   -1.06204  -0.75762  -0.74140  -0.64175  -0.56345
 Alpha  occ. eigenvalues --   -0.52937  -0.45722  -0.42929  -0.37141
 Alpha virt. eigenvalues --    0.03858   0.08458   0.09374   0.09841   0.10037
 Alpha virt. eigenvalues --    0.11598   0.11836   0.13909   0.15645   0.15684
 Alpha virt. eigenvalues --    0.16689   0.18667   0.20308   0.20911   0.21456

  Beta  occ. eigenvalues --  -11.32266 -11.28775 -11.28159 -11.27786  -1.21969
  Beta  occ. eigenvalues --   -0.93066  -0.69740  -0.65232  -0.52825  -0.49811
  Beta  occ. eigenvalues --   -0.38740
  Beta virt. eigenvalues --   -0.00045   0.02059   0.04488   0.05440   0.09574
  Beta virt. eigenvalues --    0.10501   0.12003   0.12012   0.12157   0.14402
  Beta virt. eigenvalues --    0.15823   0.16264   0.17252   0.19250   0.19370

 Mulliken charges and spin densities:
               1          2
     1  C   -0.307489   0.123232
     2  C    0.286476   0.021162
     3  C   -0.075851   2.066025
     4  C   -0.068187   0.853264
     5  H    0.165051  -0.063683
 Sum of Mulliken charges =  -0.00000   3.00000

 Dipole moment (field-independent basis, Debye):
    X=             -2.5568    Y=              2.4069    Z=              0.0000  Tot=              3.5115
 Quadrupole moment (field-independent basis, Debye-Ang):
   XX=            -26.1956   YY=            -22.8708   ZZ=            -23.0498
   XY=              1.0115   XZ=              0.0000   YZ=             -0.0000

 =-152.2514145\MP4SDQ=-152.2551598\CCSD=-152.2594907\CCSD(T)=-152.28455
 Normal termination of Gaussian 09 at Tue Oct 10 17:09:15 2017.
