 Gaussian 09, Revision E.01,
 Gaussian 09:  ES64L-G09RevE.01 30-Nov-2015

 -----------------------------------
 #p ccsd(t,maxcyc=200)/6-311++G(d,p)
 -----------------------------------

 -------------
 ccsd(t) iener
 -------------
 Symbolic Z-matrix:
 Charge =  0 Multiplicity = 2

                         Standard orientation:
 ---------------------------------------------------------------------
 Center     Atomic      Atomic             Coordinates (Angstroms)
 Number     Number       Type             X           Y           Z
 ---------------------------------------------------------------------
      1          6           0        0.192124    0.761439   -0.000000
      2          1           0        0.052598    1.837212   -0.000000
      3          6           0       -0.585139   -0.643480    0.000000
      4          6           0        0.192124   -0.212081    1.090409
      5          6           0        0.192124   -0.212081   -1.090409
 ---------------------------------------------------------------------

 SCF Done:  E(UHF) =  -151.788554728     A.U. after   22 cycles
 E2 =    -0.4721694417D+00 EUMP2 =    -0.15226072416924D+03
 CCSD(T)
 CCSD(T)= -0.15232091971D+03

 The electronic state is 2-A'.
 Alpha  occ. eigenvalues --  -11.34519 -11.34470 -11.31285 -11.31281  -1.31595
 Alpha  occ. eigenvalues --   -0.91794  -0.88628  -0.71001  -0.58381  -0.55608
 Alpha  occ. eigenvalues --   -0.48629  -0.43485  -0.40539
 Alpha virt. eigenvalues --    0.03785   0.05097   0.07046   0.08980   0.10058
 Alpha virt. eigenvalues --    0.10581   0.11350   0.13973   0.14014   0.15340
 Alpha virt. eigenvalues --    0.16689   0.17294   0.18407   0.18820   0.19633

  Beta  occ. eigenvalues --  -11.33675 -11.31907 -11.31268 -11.31257  -1.29656
  Beta  occ. eigenvalues --   -0.91317  -0.84338  -0.61474  -0.57386  -0.54463
  Beta  occ. eigenvalues --   -0.43482  -0.40298
  Beta virt. eigenvalues --    0.01215   0.03865   0.04081   0.07572   0.09509
  Beta virt. eigenvalues --    0.10431   0.10827   0.13383   0.14027   0.14485
  Beta virt. eigenvalues --    0.16277   0.16638   0.17768   0.18287   0.18951

 Mulliken charges and spin densities:
               1          2
     1  C   -0.093231   0.331926
     2  H    0.211946   0.000383
     3  C    0.199473   0.736687
     4  C   -0.159094  -0.034497
     5  C   -0.159094  -0.034497
 Sum of Mulliken charges =   0.00000   1.00000

 Dipole moment (field-independent basis, Debye):
    X=             -1.2223    Y=              1.9196    Z=             -0.0000  Tot=              2.2757
 Quadrupole moment (field-independent basis, Debye-Ang):
   XX=            -23.3357   YY=            -20.1245   ZZ=            -31.3655
   XY=              0.2956   XZ=              0.0000   YZ=             -0.0000

 P3-0=-152.2835746\MP4SDQ=-152.2876554\CCSD=-152.2911743\CCSD(T)=-152.3
 Normal termination of Gaussian 09 at Tue Oct 10 17:00:24 2017.
