 Gaussian 09, Revision E.01,
 Gaussian 09:  ES64L-G09RevE.01 30-Nov-2015

 -----------------------------------
 #p ccsd(t,maxcyc=200)/6-311++G(d,p)
 -----------------------------------

 -------------
 ccsd(t) iener
 -------------
 Symbolic Z-matrix:
 Charge =  1 Multiplicity = 1

                         Standard orientation:
 ---------------------------------------------------------------------
 Center     Atomic      Atomic             Coordinates (Angstroms)
 Number     Number       Type             X           Y           Z
 ---------------------------------------------------------------------
      1          6           0       -0.000000   -0.000000    1.320485
      2          6           0        0.000000    0.791377    0.054724
      3          6           0        0.000000    0.000000   -1.070274
      4          6           0       -0.000000   -0.791377    0.054724
      5          1           0        0.000000    0.000000   -2.157957
 ---------------------------------------------------------------------

 SCF Done:  E(RHF) =  -151.485705989     A.U. after   13 cycles
 E2 =    -0.4876733476D+00 EUMP2 =    -0.15197337933683D+03
 CCSD(T)
 CCSD(T)= -0.15202255095D+03

 The electronic state is 1-A1.
 Alpha  occ. eigenvalues --  -11.66168 -11.64780 -11.62991 -11.62930  -1.60399
 Alpha  occ. eigenvalues --   -1.26195  -1.05492  -1.03395  -0.85017  -0.81612
 Alpha  occ. eigenvalues --   -0.74903  -0.67922
 Alpha virt. eigenvalues --   -0.27474  -0.19388  -0.16892  -0.10448  -0.07093
 Alpha virt. eigenvalues --   -0.06810  -0.05387  -0.03317  -0.02279  -0.01932
 Alpha virt. eigenvalues --   -0.01599  -0.00158   0.00916   0.01329   0.02968

 Mulliken charges:
               1
     1  C    0.187938
     2  C    0.310912
     3  C   -0.147696
     4  C    0.310912
     5  H    0.337934
 Sum of Mulliken charges =   1.00000

 Dipole moment (field-independent basis, Debye):
    X=              0.0000    Y=             -0.0000    Z=             -3.4951  Tot=              3.4951
 Quadrupole moment (field-independent basis, Debye-Ang):
   XX=            -19.0247   YY=            -21.5605   ZZ=            -13.8219
   XY=             -0.0000   XZ=             -0.0000   YZ=              0.0000

 D=-151.9900839\CCSD(T)=-152.0225509\RMSD=3.695e-09\PG=C02V [C2(H1C1C1)
 Normal termination of Gaussian 09 at Tue Oct 10 17:10:13 2017.
