 Gaussian 09, Revision E.01,
 Gaussian 09:  ES64L-G09RevE.01 30-Nov-2015

 -----------------------------------
 #p ccsd(t,maxcyc=200)/6-311++G(d,p)
 -----------------------------------

 -------------
 ccsd(t) iener
 -------------
 Symbolic Z-matrix:
 Charge =  1 Multiplicity = 3

                         Standard orientation:
 ---------------------------------------------------------------------
 Center     Atomic      Atomic             Coordinates (Angstroms)
 Number     Number       Type             X           Y           Z
 ---------------------------------------------------------------------
      1          6           0        0.183257    0.882808   -0.000000
      2          1           0        0.043457    1.961569   -0.000000
      3          6           0       -0.557015   -0.860105    0.000000
      4          6           0        0.183257   -0.174815    0.951694
      5          6           0        0.183257   -0.174815   -0.951694
 ---------------------------------------------------------------------

 SCF Done:  E(UHF) =  -151.469441159     A.U. after   21 cycles
 E2 =    -0.4567990583D+00 EUMP2 =    -0.15192624021737D+03
 CCSD(T)
 CCSD(T)= -0.15198065407D+03

 The electronic state is 3-A".
 Alpha  occ. eigenvalues --  -11.64783 -11.63846 -11.61896 -11.61892  -1.59593
 Alpha  occ. eigenvalues --   -1.19646  -1.16364  -0.99753  -0.88925  -0.88039
 Alpha  occ. eigenvalues --   -0.79977  -0.71650  -0.71424
 Alpha virt. eigenvalues --   -0.20398  -0.17411  -0.12638  -0.09018  -0.06186
 Alpha virt. eigenvalues --   -0.05936  -0.05517  -0.01818  -0.01810  -0.00526
 Alpha virt. eigenvalues --    0.00101   0.00109   0.02292   0.03329   0.03795

  Beta  occ. eigenvalues --  -11.63294 -11.61556 -11.59722 -11.59706  -1.56573
  Beta  occ. eigenvalues --   -1.15544  -1.09617  -0.94081  -0.84697  -0.77655
  Beta  occ. eigenvalues --   -0.63319
  Beta virt. eigenvalues --   -0.24997  -0.23093  -0.16581  -0.15467  -0.10432
  Beta virt. eigenvalues --   -0.07413  -0.05782  -0.04752  -0.03976  -0.01541
  Beta virt. eigenvalues --   -0.01044   0.00078   0.00936   0.02179   0.02843

 Mulliken charges and spin densities:
               1          2
     1  C    0.082090   0.187703
     2  H    0.332254  -0.016352
     3  C    0.432338   0.844429
     4  C    0.076659   0.492110
     5  C    0.076659   0.492110
 Sum of Mulliken charges =   1.00000   2.00000

 Dipole moment (field-independent basis, Debye):
    X=             -0.3233    Y=              1.4547    Z=             -0.0000  Tot=              1.4902
 Quadrupole moment (field-independent basis, Debye-Ang):
   XX=            -19.3699   YY=            -12.9829   ZZ=            -20.5979
   XY=              0.8634   XZ=              0.0000   YZ=              0.0000

 1.9484421\CCSD(T)=-151.9806541\S2=2.09177\S2-1=2.048687\S2A=2.001107\R
 Normal termination of Gaussian 09 at Tue Oct 10 17:21:28 2017.
