 Gaussian 09, Revision E.01,
 Gaussian 09:  ES64L-G09RevE.01 30-Nov-2015

 -----------------------------------
 #p ccsd(t,maxcyc=200)/6-311++G(d,p)
 -----------------------------------

 -------------
 ccsd(t) iener
 -------------
 Symbolic Z-matrix:
 Charge =  1 Multiplicity = 1

                         Standard orientation:
 ---------------------------------------------------------------------
 Center     Atomic      Atomic             Coordinates (Angstroms)
 Number     Number       Type             X           Y           Z
 ---------------------------------------------------------------------
      1          6           0       -0.698661    0.124467   -0.031701
      2          6           0        1.355933    0.063926    0.223632
      3          6           0        0.447551    0.998531   -0.192972
      4          6           0       -2.021611   -0.031696    0.162922
      5          1           0        2.383038   -0.182053    0.461856
      6          8           0        0.389712   -0.843665   -0.179143
 ---------------------------------------------------------------------

 SCF Done:  E(RHF) =  -226.268939498     A.U. after   18 cycles
 E2 =    -0.6727961501D+00 EUMP2 =    -0.22694173564773D+03
 CCSD(T)
 CCSD(T)= -0.22702103758D+03

 The electronic state is 1-A.
 Alpha  occ. eigenvalues --  -20.96322 -11.67196 -11.62833 -11.59284 -11.58523
 Alpha  occ. eigenvalues --   -1.78767  -1.33315  -1.30458  -1.14882  -0.97442
 Alpha  occ. eigenvalues --   -0.95631  -0.93157  -0.86201  -0.71117  -0.70232
 Alpha  occ. eigenvalues --   -0.62992
 Alpha virt. eigenvalues --   -0.26634  -0.21270  -0.16937  -0.09867  -0.06807
 Alpha virt. eigenvalues --   -0.05951  -0.05188  -0.03957  -0.01980  -0.01279
 Alpha virt. eigenvalues --   -0.00032   0.00416   0.01145   0.02498   0.02897

 Mulliken charges:
               1
     1  C   -0.543014
     2  C    0.141831
     3  C    0.621606
     4  C    0.324837
     5  H    0.383316
     6  O    0.071426
 Sum of Mulliken charges =   1.00000

 Dipole moment (field-independent basis, Debye):
    X=              3.7246    Y=              1.1870    Z=              1.5726  Tot=              4.2137
 Quadrupole moment (field-independent basis, Debye-Ang):
   XX=            -15.2585   YY=            -23.4375   ZZ=            -26.7975
   XY=             -0.5166   XZ=              2.7490   YZ=              0.9858

 25\CCSD(T)=-227.0210376\RMSD=6.608e-09\PG=C01 [X(C4H1O1)]\\@
 Normal termination of Gaussian 09 at Tue Oct 10 16:53:26 2017.
