 Gaussian 09, Revision E.01,
 Gaussian 09:  ES64L-G09RevE.01 30-Nov-2015

 -----------------------------------
 #p ccsd(t,maxcyc=200)/6-311++G(d,p)
 -----------------------------------

 -------------
 ccsd(t) iener
 -------------
 Symbolic Z-matrix:
 Charge =  0 Multiplicity = 2

                         Standard orientation:
 ---------------------------------------------------------------------
 Center     Atomic      Atomic             Coordinates (Angstroms)
 Number     Number       Type             X           Y           Z
 ---------------------------------------------------------------------
      1          6           0       -0.000000    0.399911   -0.000000
      2          6           0       -0.986043   -0.626866    0.000000
      3          6           0        0.397056    1.698456   -0.000000
      4          6           0       -0.838913   -1.932837    0.000000
      5          1           0       -2.047205   -0.345052    0.000000
      6          8           0        1.326826    0.389133   -0.000000
 ---------------------------------------------------------------------

 SCF Done:  E(UHF) =  -226.661662934     A.U. after   40 cycles
 E2 =    -0.6688367418D+00 EUMP2 =    -0.22733049967599D+03
 CCSD(T)
 CCSD(T)= -0.22740156357D+03

 The electronic state is 2-A".
 Alpha  occ. eigenvalues --  -20.67717 -11.37123 -11.35772 -11.35172 -11.29306
 Alpha  occ. eigenvalues --   -1.51540  -1.13471  -1.01220  -0.86913  -0.75146
 Alpha  occ. eigenvalues --   -0.71978  -0.66213  -0.56225  -0.51190  -0.49455
 Alpha  occ. eigenvalues --   -0.47520  -0.37554
 Alpha virt. eigenvalues --    0.01562   0.03580   0.03652   0.08287   0.09561
 Alpha virt. eigenvalues --    0.10212   0.11143   0.12331   0.12619   0.14888
 Alpha virt. eigenvalues --    0.15041   0.15836   0.16376   0.17575   0.19243

  Beta  occ. eigenvalues --  -20.64951 -11.36607 -11.35024 -11.34634 -11.30052
  Beta  occ. eigenvalues --   -1.45759  -1.13601  -0.95529  -0.85327  -0.74092
  Beta  occ. eigenvalues --   -0.65093  -0.56980  -0.53582  -0.49411  -0.46190
  Beta  occ. eigenvalues --   -0.44200
  Beta virt. eigenvalues --    0.02211   0.02694   0.03603   0.08125   0.08520
  Beta virt. eigenvalues --    0.09669   0.11310   0.12158   0.12734   0.13416
  Beta virt. eigenvalues --    0.15118   0.15362   0.15958   0.16384   0.17625

 Mulliken charges and spin densities:
               1          2
     1  C   -0.179069   0.248694
     2  C   -0.301921  -0.265026
     3  C    0.168415   0.203068
     4  C    0.162497   0.340296
     5  H    0.245616   0.028776
     6  O   -0.095538   0.444192
 Sum of Mulliken charges =  -0.00000   1.00000

 Dipole moment (field-independent basis, Debye):
    X=             -2.7380    Y=             -0.4177    Z=              0.0000  Tot=              2.7697
 Quadrupole moment (field-independent basis, Debye-Ang):
   XX=            -26.8889   YY=            -38.1490   ZZ=            -29.2996
   XY=             -2.1921   XZ=              0.0000   YZ=              0.0000

 .3645772\CCSD=-227.3651498\CCSD(T)=-227.4015636\S2=0.834001\S2-1=0.802
 Normal termination of Gaussian 09 at Tue Oct 10 16:35:29 2017.
