 Gaussian 09, Revision E.01,
 Gaussian 09:  ES64L-G09RevE.01 30-Nov-2015

 -----------------------------------
 #p ccsd(t,maxcyc=200)/6-311++G(d,p)
 -----------------------------------

 -------------
 ccsd(t) iener
 -------------
 Symbolic Z-matrix:
 Charge =  1 Multiplicity = 1

                         Standard orientation:
 ---------------------------------------------------------------------
 Center     Atomic      Atomic             Coordinates (Angstroms)
 Number     Number       Type             X           Y           Z
 ---------------------------------------------------------------------
      1          6           0       -0.986787    1.455311    0.000000
      2          6           0        1.196299   -0.325743   -0.000000
      3          6           0        1.138843   -1.669162   -0.000000
      4          6           0        0.000000    0.373968    0.000000
      5          1           0        2.160852    0.196708   -0.000000
      6          8           0       -1.281373    0.099631    0.000000
 ---------------------------------------------------------------------

 SCF Done:  E(RHF) =  -226.364377711     A.U. after   16 cycles
 E2 =    -0.6534366875D+00 EUMP2 =    -0.22701781439848D+03
 CCSD(T)
 CCSD(T)= -0.22708826624D+03

 The electronic state is 1-A'.
 Alpha  occ. eigenvalues --  -20.98036 -11.68089 -11.64702 -11.63374 -11.52346
 Alpha  occ. eigenvalues --   -1.84794  -1.38977  -1.20923  -1.13749  -1.04124
 Alpha  occ. eigenvalues --   -0.93565  -0.91787  -0.83343  -0.74677  -0.70106
 Alpha  occ. eigenvalues --   -0.69480
 Alpha virt. eigenvalues --   -0.24472  -0.20659  -0.15477  -0.09456  -0.07078
 Alpha virt. eigenvalues --   -0.05339  -0.04951  -0.04221  -0.02454  -0.01286
 Alpha virt. eigenvalues --   -0.00191   0.00197   0.01057   0.02220   0.03542

 Mulliken charges:
               1
     1  C    0.333705
     2  C   -0.268682
     3  C    0.417136
     4  C    0.031894
     5  H    0.331305
     6  O    0.154642
 Sum of Mulliken charges =   1.00000

 Dipole moment (field-independent basis, Debye):
    X=              2.6809    Y=              0.2355    Z=             -0.0000  Tot=              2.6912
 Quadrupole moment (field-independent basis, Debye-Ang):
   XX=            -17.8213   YY=            -25.2223   ZZ=            -25.0240
   XY=             -2.0036   XZ=              0.0000   YZ=             -0.0000

 02492\MP4SDQ=-227.0526256\CCSD=-227.0523516\CCSD(T)=-227.0882662\RMSD=
 Normal termination of Gaussian 09 at Tue Oct 10 16:38:12 2017.
