 Gaussian 09, Revision E.01,
 Gaussian 09:  ES64L-G09RevE.01 30-Nov-2015

 -----------------------------------
 #p ccsd(t,maxcyc=200)/6-311++G(d,p)
 -----------------------------------

 -------------
 ccsd(t) iener
 -------------
 Symbolic Z-matrix:
 Charge =  1 Multiplicity = 1

                         Standard orientation:
 ---------------------------------------------------------------------
 Center     Atomic      Atomic             Coordinates (Angstroms)
 Number     Number       Type             X           Y           Z
 ---------------------------------------------------------------------
      1          6           0        2.550456    0.722754    0.000000
      2          6           0       -1.424744   -0.046522   -0.000000
      3          6           0       -0.000000    0.389426    0.000000
      4          6           0        1.238522    0.477133    0.000000
      5          1           0       -2.239451    0.685381   -0.000000
      6          8           0       -1.493244   -1.242766   -0.000000
 ---------------------------------------------------------------------

 SCF Done:  E(RHF) =  -226.413510439     A.U. after   19 cycles
 E2 =    -0.6827694470D+00 EUMP2 =    -0.22709627988595D+03
 CCSD(T)
 CCSD(T)= -0.22715613286D+03

 The electronic state is 1-A'.
 Alpha  occ. eigenvalues --  -20.84200 -11.67905 -11.65012 -11.61585 -11.52829
 Alpha  occ. eigenvalues --   -1.67607  -1.39132  -1.25051  -1.14715  -0.98710
 Alpha  occ. eigenvalues --   -0.90953  -0.80837  -0.77849  -0.74055  -0.71599
 Alpha  occ. eigenvalues --   -0.70498
 Alpha virt. eigenvalues --   -0.28774  -0.27216  -0.11463  -0.10014  -0.06425
 Alpha virt. eigenvalues --   -0.05306  -0.04305  -0.02597  -0.01756  -0.01082
 Alpha virt. eigenvalues --    0.00698   0.01069   0.02068   0.03820   0.04016

 Mulliken charges:
               1
     1  C    0.039536
     2  C   -0.616071
     3  C    0.898930
     4  C    0.537629
     5  H    0.239731
     6  O   -0.099756
 Sum of Mulliken charges =   1.00000

 Dipole moment (field-independent basis, Debye):
    X=              1.5053    Y=              3.7727    Z=              0.0000  Tot=              4.0620
 Quadrupole moment (field-independent basis, Debye-Ang):
   XX=            -11.3153   YY=            -25.6766   ZZ=            -24.6853
   XY=             -1.0957   XZ=              0.0000   YZ=             -0.0000

 34\MP4SDQ=-227.1155362\CCSD=-227.1123986\CCSD(T)=-227.1561329\RMSD=4.4
 Normal termination of Gaussian 09 at Tue Oct 10 16:52:12 2017.
