 Gaussian 09, Revision E.01,
 Gaussian 09:  ES64L-G09RevE.01 30-Nov-2015

 -----------------------------------
 #p ccsd(t,maxcyc=200)/6-311++G(d,p)
 -----------------------------------

 -------------
 ccsd(t) iener
 -------------
 Symbolic Z-matrix:
 Charge =  1 Multiplicity = 1

                         Standard orientation:
 ---------------------------------------------------------------------
 Center     Atomic      Atomic             Coordinates (Angstroms)
 Number     Number       Type             X           Y           Z
 ---------------------------------------------------------------------
      1          6           0       -0.100238   -0.999582   -0.000000
      2          6           0        0.737980    1.485009    0.000000
      3          6           0       -0.674925    1.661116    0.000000
      4          6           0        0.000000    0.366941    0.000000
      5          1           0        1.750830    1.872106    0.000000
      6          8           0       -0.190966   -2.119126   -0.000000
 ---------------------------------------------------------------------

 SCF Done:  E(RHF) =  -226.498196002     A.U. after   17 cycles
 E2 =    -0.6839086206D+00 EUMP2 =    -0.22718210462247D+03
 CCSD(T)
 CCSD(T)= -0.22723140485D+03

 The electronic state is 1-A'.
 Alpha  occ. eigenvalues --  -20.97967 -11.72895 -11.57631 -11.57351 -11.54176
 Alpha  occ. eigenvalues --   -1.82341  -1.49279  -1.26737  -1.05685  -1.04532
 Alpha  occ. eigenvalues --   -0.95082  -0.94031  -0.89346  -0.75208  -0.74722
 Alpha  occ. eigenvalues --   -0.62964
 Alpha virt. eigenvalues --   -0.24093  -0.16672  -0.10642  -0.09571  -0.07666
 Alpha virt. eigenvalues --   -0.06146  -0.05425  -0.03082  -0.02354  -0.01744
 Alpha virt. eigenvalues --    0.00465   0.01658   0.02665   0.03203   0.04002

 Mulliken charges:
               1
     1  C   -0.447518
     2  C    0.230421
     3  C    0.230067
     4  C    0.635812
     5  H    0.329926
     6  O    0.021293
 Sum of Mulliken charges =   1.00000

 Dipole moment (field-independent basis, Debye):
    X=              3.0200    Y=             -0.1068    Z=              0.0000  Tot=              3.0219
 Quadrupole moment (field-independent basis, Debye-Ang):
   XX=            -22.7553   YY=            -18.4387   ZZ=            -24.0620
   XY=              7.1222   XZ=             -0.0000   YZ=              0.0000

 MP4SDQ=-227.1971292\CCSD=-227.1937631\CCSD(T)=-227.2314048\RMSD=4.660e
 Normal termination of Gaussian 09 at Tue Oct 10 16:36:58 2017.
