 Gaussian 09, Revision E.01,
 Gaussian 09:  ES64L-G09RevE.01 30-Nov-2015

 -----------------------------------
 #p ccsd(t,maxcyc=200)/6-311++G(d,p)
 -----------------------------------

 -------------
 ccsd(t) iener
 -------------
 Symbolic Z-matrix:
 Charge =  1 Multiplicity = 1

                         Standard orientation:
 ---------------------------------------------------------------------
 Center     Atomic      Atomic             Coordinates (Angstroms)
 Number     Number       Type             X           Y           Z
 ---------------------------------------------------------------------
      1          6           0       -0.443463   -1.028638    0.225205
      2          6           0       -0.408496    0.836116    0.067124
      3          6           0        2.038467   -0.027073   -0.141696
      4          6           0        0.722141    0.013015    0.075124
      5          1           0       -0.653837    1.810625    0.492873
      6          8           0       -1.349757   -0.071393   -0.230927
 ---------------------------------------------------------------------

 SCF Done:  E(RHF) =  -226.340486827     A.U. after   18 cycles
 E2 =    -0.6587865972D+00 EUMP2 =    -0.22699927342431D+03
 CCSD(T)
 CCSD(T)= -0.22707655599D+03

 The electronic state is 1-A.
 Alpha  occ. eigenvalues --  -20.94500 -11.70017 -11.65193 -11.63585 -11.52798
 Alpha  occ. eigenvalues --   -1.80828  -1.38510  -1.21817  -1.18899  -1.00612
 Alpha  occ. eigenvalues --   -0.95249  -0.88436  -0.88357  -0.74351  -0.69182
 Alpha  occ. eigenvalues --   -0.66070
 Alpha virt. eigenvalues --   -0.24554  -0.22027  -0.18315  -0.10024  -0.07863
 Alpha virt. eigenvalues --   -0.06782  -0.05178  -0.02382  -0.01477  -0.01265
 Alpha virt. eigenvalues --   -0.00947   0.00189   0.00979   0.02157   0.03743

 Mulliken charges:
               1
     1  C    0.226110
     2  C   -0.109892
     3  C    0.510048
     4  C   -0.020728
     5  H    0.290887
     6  O    0.103575
 Sum of Mulliken charges =   1.00000

 Dipole moment (field-independent basis, Debye):
    X=              0.6421    Y=              3.1546    Z=              0.4318  Tot=              3.2481
 Quadrupole moment (field-independent basis, Debye-Ang):
   XX=            -23.7133   YY=            -20.2946   ZZ=            -25.3173
   XY=             -2.2057   XZ=             -0.2860   YZ=              1.7166

 8\CCSD(T)=-227.076556\RMSD=3.904e-09\PG=C01 [X(C4H1O1)]\\@
 Normal termination of Gaussian 09 at Tue Oct 10 16:44:02 2017.
