 Gaussian 09, Revision E.01,
 Gaussian 09:  ES64L-G09RevE.01 30-Nov-2015

 -----------------------------------
 #p ccsd(t,maxcyc=200)/6-311++G(d,p)
 -----------------------------------

 -------------
 ccsd(t) iener
 -------------
 Symbolic Z-matrix:
 Charge =  1 Multiplicity = 1

                         Standard orientation:
 ---------------------------------------------------------------------
 Center     Atomic      Atomic             Coordinates (Angstroms)
 Number     Number       Type             X           Y           Z
 ---------------------------------------------------------------------
      1          6           0       -2.339645   -0.179618   -0.001229
      2          6           0       -1.114169    0.409761    0.000150
      3          6           0        2.484151    0.131200   -0.002008
      4          6           0        1.162362   -0.048225    0.002180
      5          1           0       -0.985679    1.494688    0.001466
      6          8           0       -0.021314   -0.421674    0.000496
 ---------------------------------------------------------------------

 SCF Done:  E(RHF) =  -226.250859671     A.U. after   20 cycles
 E2 =    -0.6411606363D+00 EUMP2 =    -0.22689202030711D+03
 CCSD(T)
 CCSD(T)= -0.22698101142D+03

 The electronic state is 1-A.
 Alpha  occ. eigenvalues --  -21.01727 -11.67179 -11.62706 -11.57901 -11.56020
 Alpha  occ. eigenvalues --   -1.83415  -1.37282  -1.29341  -1.13384  -1.06317
 Alpha  occ. eigenvalues --   -0.96264  -0.90278  -0.75263  -0.70270  -0.68955
 Alpha  occ. eigenvalues --   -0.63206
 Alpha virt. eigenvalues --   -0.31881  -0.18963  -0.11751  -0.08767  -0.08720
 Alpha virt. eigenvalues --   -0.06963  -0.05260  -0.04249  -0.03959  -0.01474
 Alpha virt. eigenvalues --   -0.00871   0.00593   0.01142   0.01614   0.03847

 Mulliken charges:
               1
     1  C    0.391757
     2  C   -0.283561
     3  C    0.335030
     4  C    0.181682
     5  H    0.268464
     6  O    0.106628
 Sum of Mulliken charges =   1.00000

 Dipole moment (field-independent basis, Debye):
    X=              1.2388    Y=              1.3579    Z=              0.0109  Tot=              1.8381
 Quadrupole moment (field-independent basis, Debye-Ang):
   XX=            -20.4935   YY=            -24.1504   ZZ=            -25.1467
   XY=             -3.0354   XZ=              0.0207   YZ=              0.0028

 7\CCSD(T)=-226.9810114\RMSD=1.668e-09\PG=C01 [X(C4H1O1)]\\@
 Normal termination of Gaussian 09 at Tue Oct 10 16:49:36 2017.
