 Gaussian 09, Revision E.01,
 Gaussian 09:  ES64L-G09RevE.01 30-Nov-2015

 -----------------------------------
 #p ccsd(t,maxcyc=200)/6-311++G(d,p)
 -----------------------------------

 -------------
 ccsd(t) iener
 -------------
 Symbolic Z-matrix:
 Charge =  0 Multiplicity = 2

                         Standard orientation:
 ---------------------------------------------------------------------
 Center     Atomic      Atomic             Coordinates (Angstroms)
 Number     Number       Type             X           Y           Z
 ---------------------------------------------------------------------
      1          6           0        0.059677    0.790545    0.000000
      2          1           0       -0.835475   -0.897577    0.000000
      3          8           0        0.059677   -0.480712    0.000000
 ---------------------------------------------------------------------

 SCF Done:  E(UHF) =  -113.230966028     A.U. after   16 cycles
 E2 =    -0.2956347256D+00 EUMP2 =    -0.11352660075345D+03
 CCSD(T)
 CCSD(T)= -0.11355552829D+03

 The electronic state is 2-A'.
 Alpha  occ. eigenvalues --  -20.66062 -11.32366  -1.48777  -0.91311  -0.72415
 Alpha  occ. eigenvalues --   -0.61413  -0.54031  -0.35817
 Alpha virt. eigenvalues --    0.03654   0.08031   0.11557   0.12324   0.13966
 Alpha virt. eigenvalues --    0.16438   0.22620   0.26203   0.28269   0.30932
 Alpha virt. eigenvalues --    0.39006   0.49843   0.61120   0.72995   0.73536

  Beta  occ. eigenvalues --  -20.66085 -11.29884  -1.47771  -0.87216  -0.67014
  Beta  occ. eigenvalues --   -0.61958  -0.47207
  Beta virt. eigenvalues --    0.03739   0.08675   0.09557   0.12752   0.13455
  Beta virt. eigenvalues --    0.18257   0.18260   0.25424   0.26924   0.28259
  Beta virt. eigenvalues --    0.31504   0.39263   0.52354   0.63558   0.75166

 Mulliken charges and spin densities:
               1          2
     1  C   -0.176012   1.074645
     2  H    0.299005   0.077506
     3  O   -0.122993  -0.152151
 Sum of Mulliken charges =  -0.00000   1.00000

 Dipole moment (field-independent basis, Debye):
    X=             -1.7952    Y=             -2.0024    Z=              0.0000  Tot=              2.6894
 Quadrupole moment (field-independent basis, Debye-Ang):
   XX=            -11.0576   YY=            -13.6241   ZZ=            -11.3034
   XY=              1.8827   XZ=              0.0000   YZ=              0.0000

 =-113.54449\CCSD(T)=-113.5555283\S2=0.761164\S2-1=0.752741\S2A=0.75006
 Normal termination of Gaussian 09 at Tue Oct 10 17:23:14 2017.
