 Gaussian 09, Revision E.01,
 Gaussian 09:  ES64L-G09RevE.01 30-Nov-2015

 -----------------------------------
 #p ccsd(t,maxcyc=200)/6-311++G(d,p)
 -----------------------------------

 -------------
 ccsd(t) iener
 -------------
 Symbolic Z-matrix:
 Charge =  1 Multiplicity = 3

                         Standard orientation:
 ---------------------------------------------------------------------
 Center     Atomic      Atomic             Coordinates (Angstroms)
 Number     Number       Type             X           Y           Z
 ---------------------------------------------------------------------
      1          6           0        0.059394    0.765636    0.000000
      2          1           0       -0.831515   -0.918049    0.000000
      3          8           0        0.059394   -0.459471    0.000000
 ---------------------------------------------------------------------

 SCF Done:  E(UHF) =  -112.833616608     A.U. after   16 cycles
 E2 =    -0.2610173992D+00 EUMP2 =    -0.11309463400694D+03
 CCSD(T)
 CCSD(T)= -0.11311788822D+03

 The electronic state is 3-A'.
 Alpha  occ. eigenvalues --  -21.01299 -11.78228  -1.84243  -1.27790  -1.09359
 Alpha  occ. eigenvalues --   -1.02139  -0.93067  -0.76117
 Alpha virt. eigenvalues --   -0.25208  -0.14078  -0.08222  -0.06574  -0.06051
 Alpha virt. eigenvalues --   -0.03671   0.01705   0.07052   0.08351   0.10928
 Alpha virt. eigenvalues --    0.16452   0.20723   0.34120   0.40062   0.42880

  Beta  occ. eigenvalues --  -21.01702 -11.70783  -1.82883  -1.19882  -0.98988
  Beta  occ. eigenvalues --   -0.97528
  Beta virt. eigenvalues --   -0.33366  -0.15412  -0.14376  -0.12910  -0.05681
  Beta virt. eigenvalues --   -0.04843  -0.04112  -0.02346   0.03855   0.07453
  Beta virt. eigenvalues --    0.07849   0.11604   0.18169   0.26637   0.37501

 Mulliken charges and spin densities:
               1          2
     1  C    0.546353   2.176187
     2  H    0.395739   0.068895
     3  O    0.057908  -0.245082
 Sum of Mulliken charges =   1.00000   2.00000

 Dipole moment (field-independent basis, Debye):
    X=             -1.8088    Y=              1.2682    Z=              0.0000  Tot=              2.2090
 Quadrupole moment (field-independent basis, Debye-Ang):
   XX=             -7.9459   YY=             -4.8882   ZZ=             -8.8694
   XY=              2.4588   XZ=              0.0000   YZ=              0.0000

 \CCSD=-113.1076189\CCSD(T)=-113.1178882\S2=2.056975\S2-1=2.039383\S2A=
 Normal termination of Gaussian 09 at Tue Oct 10 17:23:46 2017.
