 Gaussian 09, Revision E.01,
 Gaussian 09:  ES64L-G09RevE.01 30-Nov-2015

 -----------------------------------
 #p ccsd(t,maxcyc=200)/6-311++G(d,p)
 -----------------------------------

 -------------
 ccsd(t) iener
 -------------
 Symbolic Z-matrix:
 Charge =  1 Multiplicity = 1

                         Standard orientation:
 ---------------------------------------------------------------------
 Center     Atomic      Atomic             Coordinates (Angstroms)
 Number     Number       Type             X           Y           Z
 ---------------------------------------------------------------------
      1          6           0       -0.000000   -0.000000   -0.763621
      2          1           0        0.000000    0.000000    1.402095
      3          8           0        0.000000    0.000000    0.397454
 ---------------------------------------------------------------------

 SCF Done:  E(RHF) =  -112.946382818     A.U. after   10 cycles
 E2 =    -0.2961513178D+00 EUMP2 =    -0.11324253413625D+03
 CCSD(T)
 CCSD(T)= -0.11326949697D+03

 The electronic state is 1-SG.
 Alpha  occ. eigenvalues --  -21.04272 -11.75475  -1.89387  -1.34091  -1.00967
 Alpha  occ. eigenvalues --   -1.00967  -0.87253
 Alpha virt. eigenvalues --   -0.18306  -0.18306  -0.15699  -0.08105  -0.05151
 Alpha virt. eigenvalues --   -0.05151  -0.02920  -0.01302   0.06669   0.06669
 Alpha virt. eigenvalues --    0.13859   0.16008   0.25869   0.35832   0.44310

 Mulliken charges:
               1
     1  C    0.323487
     2  H    0.505544
     3  O    0.170968
 Sum of Mulliken charges =   1.00000

 Dipole moment (field-independent basis, Debye):
    X=              0.0000    Y=              0.0000    Z=              2.3439  Tot=              2.3439
 Quadrupole moment (field-independent basis, Debye-Ang):
   XX=             -9.2127   YY=             -9.2127   ZZ=             -3.7689
   XY=             -0.0000   XZ=             -0.0000   YZ=             -0.0000

 13.2574855\CCSD=-113.2566454\CCSD(T)=-113.269497\RMSD=3.676e-09\PG=C*V
 Normal termination of Gaussian 09 at Tue Oct 10 17:23:43 2017.
