 Gaussian 09, Revision E.01,
 Gaussian 09:  ES64L-G09RevE.01 30-Nov-2015

 -----------------------------------
 #p ccsd(t,maxcyc=200)/6-311++G(d,p)
 -----------------------------------

 -------------
 ccsd(t) iener
 -------------
 Symbolic Z-matrix:
 Charge =  1 Multiplicity = 1

                         Standard orientation:
 ---------------------------------------------------------------------
 Center     Atomic      Atomic             Coordinates (Angstroms)
 Number     Number       Type             X           Y           Z
 ---------------------------------------------------------------------
      1          6           0       -0.000000   -0.000000    0.515851
      2          1           0       -0.000000   -0.000000    1.622992
      3          8           0        0.000000    0.000000   -0.589763
 ---------------------------------------------------------------------

 SCF Done:  E(RHF) =  -112.997845316     A.U. after   10 cycles
 E2 =    -0.3195442444D+00 EUMP2 =    -0.11331738956080D+03
 CCSD(T)
 CCSD(T)= -0.11333356444D+03

 The electronic state is 1-SG.
 Alpha  occ. eigenvalues --  -21.03503 -11.76521  -1.88288  -1.19613  -1.08895
 Alpha  occ. eigenvalues --   -0.98155  -0.98155
 Alpha virt. eigenvalues --   -0.20186  -0.20186  -0.13515  -0.11731  -0.06073
 Alpha virt. eigenvalues --   -0.06073  -0.01873  -0.00309   0.09998   0.09998
 Alpha virt. eigenvalues --    0.12953   0.15004   0.26426   0.39558   0.39558

 Mulliken charges:
               1
     1  C    0.518208
     2  H    0.375316
     3  O    0.106476
 Sum of Mulliken charges =   1.00000

 Dipole moment (field-independent basis, Debye):
    X=             -0.0000    Y=             -0.0000    Z=              4.2724  Tot=              4.2724
 Quadrupole moment (field-independent basis, Debye-Ang):
   XX=             -8.8081   YY=             -8.8081   ZZ=             -3.4278
   XY=              0.0000   XZ=              0.0000   YZ=              0.0000

 113.3223609\CCSD=-113.3196132\CCSD(T)=-113.3335644\RMSD=2.399e-09\PG=C
 Normal termination of Gaussian 09 at Tue Oct 10 17:23:32 2017.
