 Gaussian 09, Revision E.01,
 Gaussian 09:  ES64L-G09RevE.01 30-Nov-2015

 -----------------------------------
 #p ccsd(t,maxcyc=200)/6-311++G(d,p)
 -----------------------------------

 -------------
 ccsd(t) iener
 -------------
 Symbolic Z-matrix:
 Charge =  0 Multiplicity = 2

                         Standard orientation:
 ---------------------------------------------------------------------
 Center     Atomic      Atomic             Coordinates (Angstroms)
 Number     Number       Type             X           Y           Z
 ---------------------------------------------------------------------
      1          6           0        0.061667    0.583558    0.000000
      2          1           0       -0.863339    1.222535    0.000000
      3          8           0        0.061667   -0.590485    0.000000
 ---------------------------------------------------------------------

 SCF Done:  E(UHF) =  -113.282275869     A.U. after   18 cycles
 E2 =    -0.3168714104D+00 EUMP2 =    -0.11359914727955D+03
 CCSD(T)
 CCSD(T)= -0.11362108778D+03

 The electronic state is 2-A'.
 Alpha  occ. eigenvalues --  -20.62441 -11.36078  -1.46827  -0.86055  -0.71669
 Alpha  occ. eigenvalues --   -0.65508  -0.57994  -0.39205
 Alpha virt. eigenvalues --    0.04383   0.07313   0.09757   0.10879   0.15469
 Alpha virt. eigenvalues --    0.16518   0.26170   0.27225   0.31279   0.31974
 Alpha virt. eigenvalues --    0.38006   0.52390   0.60060   0.69459   0.71928

  Beta  occ. eigenvalues --  -20.61283 -11.34142  -1.44041  -0.79993  -0.67031
  Beta  occ. eigenvalues --   -0.58111  -0.52944
  Beta virt. eigenvalues --    0.04530   0.06298   0.08031   0.09872   0.14170
  Beta virt. eigenvalues --    0.17630   0.17925   0.27411   0.29225   0.31220
  Beta virt. eigenvalues --    0.32722   0.38337   0.55125   0.63952   0.71219

 Mulliken charges and spin densities:
               1          2
     1  C    0.093136   0.672702
     2  H    0.121524   0.189146
     3  O   -0.214659   0.138152
 Sum of Mulliken charges =  -0.00000   1.00000

 Dipole moment (field-independent basis, Debye):
    X=             -0.9763    Y=              2.0099    Z=              0.0000  Tot=              2.2345
 Quadrupole moment (field-independent basis, Debye-Ang):
   XX=            -11.3872   YY=            -11.6075   ZZ=            -10.9426
   XY=             -1.0724   XZ=              0.0000   YZ=              0.0000

 SD=-113.6077437\CCSD(T)=-113.6210878\S2=0.764709\S2-1=0.754343\S2A=0.7
 Normal termination of Gaussian 09 at Tue Oct 10 17:23:12 2017.
