 Gaussian 09, Revision E.01,
 Gaussian 09:  ES64L-G09RevE.01 30-Nov-2015

 -----------------------------------
 #p ccsd(t,maxcyc=200)/6-311++G(d,p)
 -----------------------------------

 -------------
 ccsd(t) iener
 -------------
 Symbolic Z-matrix:
 Charge =  1 Multiplicity = 3

                         Standard orientation:
 ---------------------------------------------------------------------
 Center     Atomic      Atomic             Coordinates (Angstroms)
 Number     Number       Type             X           Y           Z
 ---------------------------------------------------------------------
      1          6           0        0.065927    0.640435    0.000000
      2          1           0       -0.922979    1.157725    0.000000
      3          8           0        0.065927   -0.625042    0.000000
 ---------------------------------------------------------------------

 SCF Done:  E(UHF) =  -112.845495993     A.U. after   17 cycles
 E2 =    -0.2404374733D+00 EUMP2 =    -0.11308593346582D+03
 CCSD(T)
 CCSD(T)= -0.11312372511D+03

 The electronic state is 3-A'.
 Alpha  occ. eigenvalues --  -21.07712 -11.78282  -1.88362  -1.25456  -1.14299
 Alpha  occ. eigenvalues --   -1.04989  -0.98597  -0.84622
 Alpha virt. eigenvalues --   -0.26374  -0.12441  -0.08970  -0.07556  -0.06045
 Alpha virt. eigenvalues --   -0.01029   0.02164   0.05864   0.08478   0.08633
 Alpha virt. eigenvalues --    0.11314   0.20409   0.32483   0.39388   0.40147

  Beta  occ. eigenvalues --  -21.03217 -11.75252  -1.72564  -1.14912  -1.00979
  Beta  occ. eigenvalues --   -0.93258
  Beta virt. eigenvalues --   -0.36428  -0.22045  -0.17707  -0.11912  -0.08264
  Beta virt. eigenvalues --   -0.05673  -0.05187   0.00210   0.05136   0.06730
  Beta virt. eigenvalues --    0.08886   0.11746   0.14203   0.23757   0.36221

 Mulliken charges and spin densities:
               1          2
     1  C    0.412932   0.880602
     2  H    0.288270   0.093920
     3  O    0.298798   1.025479
 Sum of Mulliken charges =   1.00000   2.00000

 Dipole moment (field-independent basis, Debye):
    X=             -0.6432    Y=              2.8221    Z=              0.0000  Tot=              2.8944
 Quadrupole moment (field-independent basis, Debye-Ang):
   XX=             -7.5016   YY=             -6.5889   ZZ=             -9.0191
   XY=             -1.4671   XZ=              0.0000   YZ=              0.0000

 38\CCSD=-113.1132772\CCSD(T)=-113.1237251\S2=2.006484\S2-1=2.000865\S2
 Normal termination of Gaussian 09 at Tue Oct 10 17:24:09 2017.
