 Gaussian 09, Revision E.01,
 Gaussian 09:  ES64L-G09RevE.01 30-Nov-2015

 -----------------------------------
 #p ccsd(t,maxcyc=200)/6-311++G(d,p)
 -----------------------------------

 -------------
 ccsd(t) iener
 -------------
 Symbolic Z-matrix:
 Charge =  0 Multiplicity = 4

                         Standard orientation:
 ---------------------------------------------------------------------
 Center     Atomic      Atomic             Coordinates (Angstroms)
 Number     Number       Type             X           Y           Z
 ---------------------------------------------------------------------
      1          6           0        0.064488    0.709189    0.000000
      2          1           0       -0.902835    1.212444    0.000000
      3          8           0        0.064488   -0.683447    0.000000
 ---------------------------------------------------------------------

 SCF Done:  E(UHF) =  -113.165707772     A.U. after   16 cycles
 E2 =    -0.2408948299D+00 EUMP2 =    -0.11340660260167D+03
 CCSD(T)
 CCSD(T)= -0.11343972036D+03

 The electronic state is 4-A".
 Alpha  occ. eigenvalues --  -20.66832 -11.33528  -1.44502  -0.92522  -0.73302
 Alpha  occ. eigenvalues --   -0.65582  -0.65209  -0.49126  -0.38822
 Alpha virt. eigenvalues --    0.04697   0.09415   0.10635   0.11469   0.17007
 Alpha virt. eigenvalues --    0.25453   0.26642   0.29160   0.29476   0.33940
 Alpha virt. eigenvalues --    0.42857   0.59342   0.66414   0.69361   0.80640

  Beta  occ. eigenvalues --  -20.61932 -11.28422  -1.26086  -0.76029  -0.60425
  Beta  occ. eigenvalues --   -0.52186
  Beta virt. eigenvalues --   -0.00195   0.05070   0.08935   0.09899   0.10910
  Beta virt. eigenvalues --    0.15482   0.20714   0.21695   0.26540   0.30372
  Beta virt. eigenvalues --    0.30679   0.34563   0.38245   0.48393   0.64916

 Mulliken charges and spin densities:
               1          2
     1  C   -0.095301   1.993829
     2  H    0.140477  -0.023062
     3  O   -0.045176   1.029233
 Sum of Mulliken charges =  -0.00000   3.00000

 Dipole moment (field-independent basis, Debye):
    X=             -0.5057    Y=              1.3126    Z=              0.0000  Tot=              1.4066
 Quadrupole moment (field-independent basis, Debye-Ang):
   XX=            -10.1018   YY=            -12.0008   ZZ=            -12.6817
   XY=             -0.9194   XZ=              0.0000   YZ=              0.0000

 CSD=-113.4325457\CCSD(T)=-113.4397204\S2=3.764514\S2-1=3.753356\S2A=3.
 Normal termination of Gaussian 09 at Tue Oct 10 17:23:31 2017.
