 Gaussian 09, Revision E.01,
 Gaussian 09:  ES64L-G09RevE.01 30-Nov-2015

 -----------------------------------
 #p ccsd(t,maxcyc=200)/6-311++G(d,p)
 -----------------------------------

 -------------
 ccsd(t) iener
 -------------
 Symbolic Z-matrix:
 Charge =  0 Multiplicity = 2

                         Standard orientation:
 ---------------------------------------------------------------------
 Center     Atomic      Atomic             Coordinates (Angstroms)
 Number     Number       Type             X           Y           Z
 ---------------------------------------------------------------------
      1          1           0        0.000000    0.000000   -0.867425
      2          8           0        0.000000    0.000000    0.108428
 ---------------------------------------------------------------------

 SCF Done:  E(UHF) =  -75.4142644674     A.U. after   12 cycles
 E2 =    -0.1655930549D+00 EUMP2 =    -0.75579857522355D+02
 CCSD(T)
 CCSD(T)= -0.75596457328D+02

 Unable to determine electronic state:  an orbital has unidentified symmetry.
 Alpha  occ. eigenvalues --  -20.64131  -1.38952  -0.68253  -0.65739  -0.56257
 Alpha virt. eigenvalues --    0.04351   0.22357   0.23242   0.23874   0.24559
 Alpha virt. eigenvalues --    0.30155   0.67579   1.16492   1.19112   1.21745
 Alpha virt. eigenvalues --    1.53963   1.55046   1.57088   2.28845   2.76109

  Beta  occ. eigenvalues --  -20.60068  -1.23053  -0.63669  -0.51141
  Beta virt. eigenvalues --    0.04546   0.07059   0.23872   0.24307   0.24998
  Beta virt. eigenvalues --    0.30633   0.30876   0.68674   1.21062   1.23708
  Beta virt. eigenvalues --    1.31363   1.56772   1.57859   1.58194   2.30852

 Mulliken charges and spin densities:
               1          2
     1  H    0.238159  -0.050743
     2  O   -0.238159   1.050743
 Sum of Mulliken charges =  -0.00000   1.00000

 Dipole moment (field-independent basis, Debye):
    X=              0.0000    Y=              0.0000    Z=             -1.9146  Tot=              1.9146
 Quadrupole moment (field-independent basis, Debye-Ang):
   XX=             -5.3929   YY=             -6.7406   ZZ=             -4.5856
   XY=              0.0000   XZ=              0.0000   YZ=              0.0000

 5924609\CCSD=-75.5931447\CCSD(T)=-75.5964573\S2=0.755863\S2-1=0.751311
 Normal termination of Gaussian 09 at Tue Oct 10 17:24:20 2017.
