 Gaussian 09, Revision E.01,
 Gaussian 09:  ES64L-G09RevE.01 30-Nov-2015

 -----------------------------------
 #p ccsd(t,maxcyc=200)/6-311++G(d,p)
 -----------------------------------

 -------------
 ccsd(t) iener
 -------------
 Symbolic Z-matrix:
 Charge =  1 Multiplicity = 1

                         Standard orientation:
 ---------------------------------------------------------------------
 Center     Atomic      Atomic             Coordinates (Angstroms)
 Number     Number       Type             X           Y           Z
 ---------------------------------------------------------------------
      1          1           0        0.000000    0.000000   -0.923486
      2          8           0        0.000000    0.000000    0.115436
 ---------------------------------------------------------------------

 SCF Done:  E(RHF) =  -74.8584500349     A.U. after    9 cycles
 E2 =    -0.1373944913D+00 EUMP2 =    -0.74995844526218D+02
 CCSD(T)
 CCSD(T)= -0.75038619237D+02

 Unable to determine electronic state:  an orbital has unidentified symmetry.
 Alpha  occ. eigenvalues --  -21.24231  -1.80642  -1.16747  -1.07660
 Alpha virt. eigenvalues --   -0.46453  -0.19438  -0.05767  -0.02014  -0.01316
 Alpha virt. eigenvalues --   -0.00608   0.05230   0.29721   0.80299   0.80703
 Alpha virt. eigenvalues --    0.82185   1.12893   1.13092   1.13988   1.74447

 Mulliken charges:
               1
     1  H    0.422892
     2  O    0.577108
 Sum of Mulliken charges =   1.00000

 Dipole moment (field-independent basis, Debye):
    X=              0.0000    Y=              0.0000    Z=             -2.2521  Tot=              2.2521
 Quadrupole moment (field-independent basis, Debye-Ang):
   XX=             -3.2312   YY=             -5.0942   ZZ=             -2.2049
   XY=              0.0000   XZ=              0.0000   YZ=              0.0000

 \MP4SDQ=-75.0184991\CCSD=-75.0292716\CCSD(T)=-75.0386192\RMSD=1.035e-0
 Normal termination of Gaussian 09 at Tue Oct 10 17:25:05 2017.
