 Gaussian 09, Revision E.01,
 Gaussian 09:  ES64L-G09RevE.01 30-Nov-2015

 -----------------------------------
 #p ccsd(t,maxcyc=200)/6-311++G(d,p)
 -----------------------------------

 -------------
 ccsd(t) iener
 -------------
 Symbolic Z-matrix:
 Charge =  1 Multiplicity = 3

                         Standard orientation:
 ---------------------------------------------------------------------
 Center     Atomic      Atomic             Coordinates (Angstroms)
 Number     Number       Type             X           Y           Z
 ---------------------------------------------------------------------
      1          1           0        0.000000    0.000000   -0.922450
      2          8           0        0.000000    0.000000    0.115306
 ---------------------------------------------------------------------

 SCF Done:  E(UHF) =  -74.9972350123     A.U. after   11 cycles
 E2 =    -0.1181315608D+00 EUMP2 =    -0.75115366573107D+02
 CCSD(T)
 CCSD(T)= -0.75134989956D+02

 The electronic state is 3-SG.
 Alpha  occ. eigenvalues --  -21.25408  -1.96525  -1.21332  -1.21332  -1.20061
 Alpha virt. eigenvalues --   -0.19883  -0.05892  -0.03443  -0.03443  -0.00967
 Alpha virt. eigenvalues --    0.04949   0.29740   0.74939   0.74939   0.79690
 Alpha virt. eigenvalues --    1.09962   1.13085   1.13085   1.73822   2.37284

  Beta  occ. eigenvalues --  -21.16418  -1.62872  -1.10379
  Beta virt. eigenvalues --   -0.33950  -0.33950  -0.18214  -0.04927   0.00017
  Beta virt. eigenvalues --    0.01423   0.01423   0.05739   0.30850   0.83058
  Beta virt. eigenvalues --    0.89954   0.89954   1.14988   1.14988   1.17974

 Mulliken charges and spin densities:
               1          2
     1  H    0.405341  -0.093243
     2  O    0.594659   2.093243
 Sum of Mulliken charges =   1.00000   2.00000

 Dipole moment (field-independent basis, Debye):
    X=              0.0000    Y=              0.0000    Z=             -2.2108  Tot=              2.2108
 Quadrupole moment (field-independent basis, Debye-Ang):
   XX=             -4.0373   YY=             -4.0373   ZZ=             -2.2442
   XY=              0.0000   XZ=              0.0000   YZ=              0.0000

 6\MP4SDQ=-75.1321102\CCSD=-75.1331896\CCSD(T)=-75.13499\S2=2.014416\S2
 Normal termination of Gaussian 09 at Tue Oct 10 17:24:27 2017.
