 Gaussian 09, Revision E.01,
 Gaussian 09:  ES64L-G09RevE.01 30-Nov-2015

 -----------------------------------
 #p ccsd(t,maxcyc=200)/6-311++G(d,p)
 -----------------------------------

 -------------
 ccsd(t) iener
 -------------
 Symbolic Z-matrix:
 Charge =  0 Multiplicity = 1

                         Standard orientation:
 ---------------------------------------------------------------------
 Center     Atomic      Atomic             Coordinates (Angstroms)
 Number     Number       Type             X           Y           Z
 ---------------------------------------------------------------------
      1          8           0        0.000000    0.000000    0.000000
 ---------------------------------------------------------------------

 SCF Done:  E(RHF) =  -74.6806131668     A.U. after    7 cycles
 E2 =    -0.1329059514D+00 EUMP2 =    -0.74813519118153D+02
 CCSD(T)
 CCSD(T)= -0.74854080026D+02

 Unable to determine electronic state:  an orbital has unidentified symmetry.
 Alpha  occ. eigenvalues --  -20.70893  -1.26398  -0.58661  -0.58661
 Alpha virt. eigenvalues --   -0.02391   0.18659   0.23352   0.23352   0.25388
 Alpha virt. eigenvalues --    1.19955   1.19955   1.21937   1.43164   3.08496
 Alpha virt. eigenvalues --    3.09433   3.09433   3.12265   3.12265   5.35443

 Mulliken charges:
               1
     1  O   -0.000000
 Sum of Mulliken charges =  -0.00000

 Dipole moment (field-independent basis, Debye):
    X=              0.0000    Y=              0.0000    Z=              0.0000  Tot=              0.0000
 Quadrupole moment (field-independent basis, Debye-Ang):
   XX=             -3.6755   YY=             -5.9013   ZZ=             -5.9013
   XY=              0.0000   XZ=             -0.0000   YZ=             -0.0000

 8457696\CCSD(T)=-74.85408\RMSD=5.534e-09\PG=OH [O(O1)]\\@
 Normal termination of Gaussian 09 at Tue Oct 10 17:25:16 2017.
