 Gaussian 09, Revision E.01,
 Gaussian 09:  ES64L-G09RevE.01 30-Nov-2015

 -----------------------------------
 #p ccsd(t,maxcyc=200)/6-311++G(d,p)
 -----------------------------------

 -------------
 ccsd(t) iener
 -------------
 Symbolic Z-matrix:
 Charge =  0 Multiplicity = 3

                         Standard orientation:
 ---------------------------------------------------------------------
 Center     Atomic      Atomic             Coordinates (Angstroms)
 Number     Number       Type             X           Y           Z
 ---------------------------------------------------------------------
      1          8           0        0.000000    0.000000    0.000000
 ---------------------------------------------------------------------

 SCF Done:  E(UHF) =  -74.8073964413     A.U. after   10 cycles
 E2 =    -0.1143848107D+00 EUMP2 =    -0.74921781252026D+02
 CCSD(T)
 CCSD(T)= -0.74938152067D+02

 Unable to determine electronic state:  an orbital has unidentified symmetry.
 Alpha  occ. eigenvalues --  -20.71112  -1.41936  -0.71075  -0.71075  -0.61382
 Alpha virt. eigenvalues --    0.18083   0.21842   0.21842   0.23275   1.14209
 Alpha virt. eigenvalues --    1.14209   1.19365   1.40013   2.98558   2.98558
 Alpha virt. eigenvalues --    3.05302   3.05302   3.07686   5.31484   5.31484

  Beta  occ. eigenvalues --  -20.63100  -1.07627  -0.51832
  Beta virt. eigenvalues --    0.07195   0.07195   0.19713   0.24006   0.30300
  Beta virt. eigenvalues --    0.30300   1.22936   1.30559   1.30559   1.48861
  Beta virt. eigenvalues --    3.18612   3.19757   3.19757   3.23697   3.23697

 Mulliken charges and spin densities:
               1          2
     1  O   -0.000000   2.000000
 Sum of Mulliken charges =  -0.00000   2.00000

 Dipole moment (field-independent basis, Debye):
    X=              0.0000    Y=              0.0000    Z=              0.0000  Tot=              0.0000
 Quadrupole moment (field-independent basis, Debye-Ang):
   XX=             -4.6090   YY=             -4.6090   ZZ=             -5.9242
   XY=             -0.0000   XZ=             -0.0000   YZ=              0.0000

 Normal termination of Gaussian 09 at Tue Oct 10 17:25:23 2017.
