 Gaussian 09, Revision E.01,
 Gaussian 09:  ES64L-G09RevE.01 30-Nov-2015

 -----------------------------------
 #p ccsd(t,maxcyc=200)/6-311++G(d,p)
 -----------------------------------

 -------------
 ccsd(t) iener
 -------------
 Symbolic Z-matrix:
 Charge =  1 Multiplicity = 2

                         Standard orientation:
 ---------------------------------------------------------------------
 Center     Atomic      Atomic             Coordinates (Angstroms)
 Number     Number       Type             X           Y           Z
 ---------------------------------------------------------------------
      1          8           0        0.000000    0.000000    0.000000
 ---------------------------------------------------------------------

 SCF Done:  E(UHF) =  -74.1817008651     A.U. after   10 cycles
 E2 =    -0.9232521170D-01 EUMP2 =    -0.74274026076783D+02
 CCSD(T)
 CCSD(T)= -0.74320817129D+02

 Unable to determine electronic state:  an orbital has unidentified symmetry.
 Alpha  occ. eigenvalues --  -21.41668  -1.91465  -1.30946  -1.20081
 Alpha virt. eigenvalues --   -0.55594  -0.11013  -0.04502  -0.03277  -0.02972
 Alpha virt. eigenvalues --    0.70755   0.75340   0.76843   0.94302   2.44282
 Alpha virt. eigenvalues --    2.44933   2.47796   2.52166   2.52508   4.69904

  Beta  occ. eigenvalues --  -21.37027  -1.73268  -1.15188
  Beta virt. eigenvalues --   -0.51992  -0.43225  -0.10265  -0.03044  -0.02578
  Beta virt. eigenvalues --   -0.00942   0.76678   0.78273   0.83432   0.98342
  Beta virt. eigenvalues --    2.53349   2.53702   2.58063   2.61023   2.62034

 Mulliken charges and spin densities:
               1          2
     1  O    1.000000   1.000000
 Sum of Mulliken charges =   1.00000   1.00000

 Dipole moment (field-independent basis, Debye):
    X=              0.0000    Y=              0.0000    Z=              0.0000  Tot=              0.0000
 Quadrupole moment (field-independent basis, Debye-Ang):
   XX=             -2.5778   YY=             -3.3780   ZZ=             -4.3032
   XY=              0.0000   XZ=             -0.0000   YZ=              0.0000

 CCSD(T)=-74.3208171\S2=0.752789\S2-1=0.749598\S2A=0.750002\RMSD=4.738e
 Normal termination of Gaussian 09 at Tue Oct 10 17:25:48 2017.
