 Gaussian 09, Revision E.01,
 Gaussian 09:  ES64L-G09RevE.01 30-Nov-2015

 -----------------------------------
 #p ccsd(t,maxcyc=200)/6-311++G(d,p)
 -----------------------------------

 -------------
 ccsd(t) iener
 -------------
 Symbolic Z-matrix:
 Charge =  1 Multiplicity = 4

                         Standard orientation:
 ---------------------------------------------------------------------
 Center     Atomic      Atomic             Coordinates (Angstroms)
 Number     Number       Type             X           Y           Z
 ---------------------------------------------------------------------
      1          8           0        0.000000    0.000000    0.000000
 ---------------------------------------------------------------------

 SCF Done:  E(UHF) =  -74.3665415195     A.U. after    8 cycles
 E2 =    -0.7827415795D-01 EUMP2 =    -0.74444815677429D+02
 CCSD(T)
 CCSD(T)= -0.74460109133D+02

 The electronic state is 4-A1G.
 Alpha  occ. eigenvalues --  -21.41245  -2.07169  -1.33051  -1.33051  -1.33051
 Alpha virt. eigenvalues --   -0.11537  -0.04527  -0.04527  -0.04527   0.70567
 Alpha virt. eigenvalues --    0.70567   0.70567   0.91681   2.40949   2.40949
 Alpha virt. eigenvalues --    2.40949   2.40949   2.40949   4.70652   4.70652

  Beta  occ. eigenvalues --  -21.27657  -1.53063
  Beta virt. eigenvalues --   -0.38329  -0.38329  -0.38329  -0.09225  -0.00046
  Beta virt. eigenvalues --   -0.00046  -0.00046   0.86234   0.86234   0.86234
  Beta virt. eigenvalues --    1.03892   2.68707   2.68707   2.68707   2.68707

 Mulliken charges and spin densities:
               1          2
     1  O    1.000000   3.000000
 Sum of Mulliken charges =   1.00000   3.00000

 Dipole moment (field-independent basis, Debye):
    X=              0.0000    Y=              0.0000    Z=              0.0000  Tot=              0.0000
 Quadrupole moment (field-independent basis, Debye-Ang):
   XX=             -3.3199   YY=             -3.3199   ZZ=             -3.3199
   XY=             -0.0000   XZ=             -0.0000   YZ=             -0.0000

 .4595145\CCSD(T)=-74.4601091\S2=3.755714\S2-1=3.750889\S2A=3.75\RMSD=4
 Normal termination of Gaussian 09 at Tue Oct 10 17:25:26 2017.
