 Gaussian 09, Revision C.01,
 Gaussian 09:  AM64L-G09RevC.01 23-Sep-2011

 -----------------------
 #p ccsd(t)/6-311+G(3df)
 -----------------------

 (Enter /home/nestor/.gaussian09/l101.exe)
 -------
 ccsd(t)
 -------
 Charge =  2 Multiplicity = 1

                         Standard orientation:
 ---------------------------------------------------------------------
 Center     Atomic      Atomic             Coordinates (Angstroms)
 Number     Number       Type             X           Y           Z
 ---------------------------------------------------------------------
      1          6           0        0.000000    0.000000    0.766175
      2          6           0        0.000000    0.000000   -0.766175
 ---------------------------------------------------------------------

 SCF Done:  E(RHF) =  -74.2794492199     A.U. after    8 cycles
 E2 =    -0.1413655097D+00 EUMP2 =    -0.74420814729546D+02
 CCSD(T)
 CCSD(T)= -0.74490408752D+02

 The electronic state is 1-SGG.
 Alpha  occ. eigenvalues --  -12.20786 -12.20713  -1.76788  -1.32244  -1.15484
 Alpha virt. eigenvalues --   -0.75403  -0.75403  -0.53365  -0.53365  -0.31908
 Alpha virt. eigenvalues --   -0.30190  -0.25156  -0.25156  -0.20955  -0.19588
 Alpha virt. eigenvalues --   -0.17124  -0.17124  -0.14773  -0.14773  -0.10540

 Mulliken atomic charges:
              1
     1  C    1.000000
     2  C    1.000000
 Sum of Mulliken atomic charges =   2.00000

 Dipole moment (field-independent basis, Debye):
    X=              0.0000    Y=              0.0000    Z=              0.0000  Tot=              0.0000
 Quadrupole moment (field-independent basis, Debye-Ang):
   XX=             -5.8925   YY=             -5.8925   ZZ=             -5.7132
   XY=              0.0000   XZ=              0.0000   YZ=              0.0000

 .4684166\CCSD=-74.4833552\CCSD(T)=-74.4904088\RMSD=7.042e-09\PG=D*H [C
 Normal termination of Gaussian 09 at Tue Nov 15 17:58:51 2016.
