 Gaussian 09, Revision E.01,
 Gaussian 09:  EM64L-G09RevE.01 30-Nov-2015

 -----------------------------------------------------
 #p ccsd(t)/6-311+G(3df) scf(MaxCyc=300) guess(Huckel)
 -----------------------------------------------------

 -------------
 ccsd(t) iener
 -------------
 Symbolic Z-matrix:
 Charge =  2 Multiplicity = 1

                         Standard orientation:
 ---------------------------------------------------------------------
 Center     Atomic      Atomic             Coordinates (Angstroms)
 Number     Number       Type             X           Y           Z
 ---------------------------------------------------------------------
      1          6           0        0.000000    0.767858    0.000000
      2          6           0        0.665154   -0.383955    0.000000
      3          6           0       -0.665154   -0.383903    0.000000
 ---------------------------------------------------------------------

 SCF Done:  E(RHF) =  -111.989336124     A.U. after   33 cycles
 E2 =    -0.4297733866D+00 EUMP2 =    -0.11241910951024D+03
 CCSD(T)
 CCSD(T)= -0.11331233981D+03

 The electronic state is 1-A'.
 Alpha  occ. eigenvalues --  -12.11343 -12.08050 -12.07950  -2.00257  -1.38556
 Alpha  occ. eigenvalues --   -1.35341  -1.21668  -0.99452
 Alpha virt. eigenvalues --   -0.80027  -0.67545  -0.49817  -0.47166  -0.27626
 Alpha virt. eigenvalues --   -0.26466  -0.25099  -0.24419  -0.22768  -0.20359
 Alpha virt. eigenvalues --   -0.18202  -0.17302  -0.16544  -0.16044  -0.09728

 Mulliken charges:
               1
     1  C    0.782443
     2  C    0.608208
     3  C    0.609349
 Sum of Mulliken charges =   2.00000

 Dipole moment (field-independent basis, Debye):
    X=             -0.0070    Y=              2.6580    Z=              0.0000  Tot=              2.6580
 Quadrupole moment (field-independent basis, Debye-Ang):
   XX=             -7.2907   YY=             -5.9438   ZZ=            -11.7130
   XY=              0.0031   XZ=              0.0000   YZ=              0.0000

 DQ=-112.4867221\CCSD=-112.5806612\CCSD(T)=-113.3123398\RMSD=5.766e-09\
 Normal termination of Gaussian 09 at Thu Jun 16 18:23:46 2016.
