 Gaussian 09, Revision C.01,
 Gaussian 09:  AM64L-G09RevC.01 23-Sep-2011

 --------------------------------------
 #p ccsd(t,maxcyc=200)/6-311++G(3df,2p)
 --------------------------------------

 (Enter /home/nestor/.gaussian09/l101.exe)
 -------------
 ccsd(t) iener
 -------------
 Charge =  2 Multiplicity = 1

                         Standard orientation:
 ---------------------------------------------------------------------
 Center     Atomic      Atomic             Coordinates (Angstroms)
 Number     Number       Type             X           Y           Z
 ---------------------------------------------------------------------
      1          6           0        0.000000    0.767956    0.000000
      2          6           0        0.665070   -0.383978    0.000000
      3          6           0       -0.665070   -0.383978    0.000000
 ---------------------------------------------------------------------

 SCF Done:  E(RHF) =  -112.197738149     A.U. after   12 cycles
 E2 =    -0.4576237862D+00 EUMP2 =    -0.11265536193493D+03
 CCSD(T)
 CCSD(T)= -0.11268581374D+03

 The electronic state is 1-A1'.
 Alpha  occ. eigenvalues --  -12.11362 -12.11087 -12.11087  -2.00721  -1.35947
 Alpha  occ. eigenvalues --   -1.35947  -1.21697  -1.11955
 Alpha virt. eigenvalues --   -0.70792  -0.70792  -0.49196  -0.49196  -0.27110
 Alpha virt. eigenvalues --   -0.25515  -0.25515  -0.24985  -0.20926  -0.20806
 Alpha virt. eigenvalues --   -0.17996  -0.17996  -0.16418  -0.16418  -0.09539

 Mulliken atomic charges:
              1
     1  C    0.666667
     2  C    0.666667
     3  C    0.666667
 Sum of Mulliken atomic charges =   2.00000

 Dipole moment (field-independent basis, Debye):
    X=              0.0000    Y=              0.0000    Z=              0.0000  Tot=              0.0000
 Quadrupole moment (field-independent basis, Debye-Ang):
   XX=             -6.7744   YY=             -6.7744   ZZ=            -11.9420
   XY=              0.0000   XZ=              0.0000   YZ=              0.0000

 318766\MP4SDQ=-112.6417914\CCSD=-112.6427571\CCSD(T)=-112.6858137\RMSD
 Normal termination of Gaussian 09 at Wed Nov 16 17:42:08 2016.
