 Gaussian 09, Revision C.01,
 Gaussian 09:  AM64L-G09RevC.01 23-Sep-2011

 --------------------------------------
 #p ccsd(t,maxcyc=200)/6-311++G(3df,2p)
 --------------------------------------

 (Enter /home/nestor/.gaussian09/l101.exe)
 -------------
 ccsd(t) iener
 -------------
 Charge =  2 Multiplicity = 1

                         Standard orientation:
 ---------------------------------------------------------------------
 Center     Atomic      Atomic             Coordinates (Angstroms)
 Number     Number       Type             X           Y           Z
 ---------------------------------------------------------------------
      1          6           0        0.000000    0.000000    1.300874
      2          6           0        0.000000    0.000000    0.000000
      3          6           0        0.000000    0.000000   -1.300874
 ---------------------------------------------------------------------

 SCF Done:  E(RHF) =  -112.061198544     A.U. after   11 cycles
 E2 =    -0.6703499692D+00 EUMP2 =    -0.11273154851343D+03
 CCSD(T)
 CCSD(T)= -0.11269998627D+03

 The electronic state is 1-SG.
 Alpha  occ. eigenvalues --  -12.15027 -12.15015 -11.92446  -1.74483  -1.57485
 Alpha  occ. eigenvalues --   -1.07642  -1.07642  -1.05997
 Alpha virt. eigenvalues --   -0.82475  -0.63426  -0.63426  -0.33102  -0.33102
 Alpha virt. eigenvalues --   -0.29325  -0.22181  -0.22181  -0.21640  -0.19207
 Alpha virt. eigenvalues --   -0.16857  -0.16857  -0.13330  -0.10751  -0.10281

 Mulliken atomic charges:
              1
     1  C    0.388570
     2  C    1.222860
     3  C    0.388570
 Sum of Mulliken atomic charges =   2.00000

 Dipole moment (field-independent basis, Debye):
    X=              0.0000    Y=              0.0000    Z=              0.0000  Tot=              0.0000
 Quadrupole moment (field-independent basis, Debye-Ang):
   XX=            -12.4595   YY=            -12.4595   ZZ=              7.4572
   XY=              0.0000   XZ=              0.0000   YZ=              0.0000

 76059\MP4DQ=-112.6608937\MP4SDQ=-112.741303\CCSD=-112.6013835\CCSD(T)=
 Normal termination of Gaussian 09 at Wed Nov 16 17:29:15 2016.
