 Gaussian 09, Revision E.01,
 Gaussian 09:  EM64L-G09RevE.01 30-Nov-2015

 -----------------------------------------------------
 #p ccsd(t)/6-311+G(3df) scf(MaxCyc=300) guess(Huckel)
 -----------------------------------------------------

 -------------
 ccsd(t) iener
 -------------
 Symbolic Z-matrix:
 Charge =  2 Multiplicity = 3

                         Standard orientation:
 ---------------------------------------------------------------------
 Center     Atomic      Atomic             Coordinates (Angstroms)
 Number     Number       Type             X           Y           Z
 ---------------------------------------------------------------------
      1          6           0        0.000000    0.000000   -0.000024
      2          6           0       -0.000000    0.000000    1.269470
      3          6           0        0.000000   -0.000000   -1.269446
 ---------------------------------------------------------------------

 SCF Done:  E(UHF) =  -112.284624415     A.U. after   13 cycles
 E2 =    -0.3382007114D+00 EUMP2 =    -0.11262282512614D+03
 CCSD(T)
 CCSD(T)= -0.11266205633D+03

 The electronic state is 3-SG.
 Alpha  occ. eigenvalues --  -12.12359 -12.12351 -11.89026  -1.75102  -1.61551
 Alpha  occ. eigenvalues --   -1.30820  -1.27403  -1.07526  -1.07526
 Alpha virt. eigenvalues --   -0.65753  -0.65753  -0.32350  -0.32350  -0.29234
 Alpha virt. eigenvalues --   -0.22564  -0.22368  -0.22368  -0.19475  -0.16975
 Alpha virt. eigenvalues --   -0.16975  -0.13607  -0.10081  -0.10081  -0.09456

  Beta  occ. eigenvalues --  -12.07759 -12.07752 -11.88509  -1.71391  -1.53983
  Beta  occ. eigenvalues --   -1.06664  -1.06664
  Beta virt. eigenvalues --   -0.61003  -0.57173  -0.56996  -0.56996  -0.28589
  Beta virt. eigenvalues --   -0.27415  -0.27415  -0.21173  -0.21173  -0.20146
  Beta virt. eigenvalues --   -0.18480  -0.16644  -0.16644  -0.12733  -0.09937

 Mulliken charges and spin densities:
               1          2
     1  C    0.826924   0.044515
     2  C    0.586587   0.977664
     3  C    0.586489   0.977821
 Sum of Mulliken charges =   2.00000   2.00000

 Dipole moment (field-independent basis, Debye):
    X=             -0.0000    Y=             -0.0000    Z=              0.0007  Tot=              0.0007
 Quadrupole moment (field-independent basis, Debye-Ang):
   XX=            -11.9223   YY=            -11.9223   ZZ=              7.2209
   XY=             -0.0000   XZ=             -0.0000   YZ=              0.0000

 6225984\CCSD=-112.6253825\CCSD(T)=-112.6620563\S2=2.030052\S2-1=2.0166
 Normal termination of Gaussian 09 at Thu Jun 16 18:22:56 2016.
