 Gaussian 09, Revision E.01,
 Gaussian 09:  EM64L-G09RevE.01 30-Nov-2015

 -----------------------------------------------------
 #p ccsd(t)/6-311+G(3df) scf(MaxCyc=300) guess(Huckel)
 -----------------------------------------------------

 -------------
 ccsd(t) iener
 -------------
 Symbolic Z-matrix:
 Charge =  2 Multiplicity = 1

                         Standard orientation:
 ---------------------------------------------------------------------
 Center     Atomic      Atomic             Coordinates (Angstroms)
 Number     Number       Type             X           Y           Z
 ---------------------------------------------------------------------
      1          6           0        1.188222   -0.000006    0.001060
      2          6           0        0.000232    0.705445   -0.001060
      3          6           0       -1.188708   -0.000018    0.001059
      4          6           0        0.000253   -0.705421   -0.001060
 ---------------------------------------------------------------------

 SCF Done:  E(RHF) =  -150.065714585     A.U. after   25 cycles
 E2 =    -0.5281488184D+00 EUMP2 =    -0.15059386340306D+03
 CCSD(T)
 CCSD(T)= -0.15066758225D+03

 The electronic state is 1-A.
 Alpha  occ. eigenvalues --  -12.05831 -12.05725 -11.98518 -11.98371  -2.01406
 Alpha  occ. eigenvalues --   -1.64168  -1.36258  -1.21622  -1.19942  -1.14923
 Alpha  occ. eigenvalues --   -0.97678
 Alpha virt. eigenvalues --   -0.70932  -0.55759  -0.52032  -0.41106  -0.30634
 Alpha virt. eigenvalues --   -0.28019  -0.25060  -0.23559  -0.21322  -0.20808
 Alpha virt. eigenvalues --   -0.19291  -0.16869  -0.15934  -0.15840  -0.12853

 Mulliken charges:
               1
     1  C   -0.152232
     2  C    1.153062
     3  C   -0.154014
     4  C    1.153183
 Sum of Mulliken charges =   2.00000

 Dipole moment (field-independent basis, Debye):
    X=              0.0376    Y=              0.0001    Z=             -0.0099  Tot=              0.0389
 Quadrupole moment (field-independent basis, Debye-Ang):
   XX=            -14.0241   YY=            -10.6497   ZZ=            -15.7082
   XY=             -0.0001   XZ=              0.0001   YZ=              0.0000

 150.6127695\CCSD(T)=-150.6675822\RMSD=3.993e-09\PG=C01 [X(C4)]\\@
 Normal termination of Gaussian 09 at Thu Jun 16 19:53:18 2016.
