 Gaussian 09, Revision D.01,
 Gaussian 09:  EM64L-G09RevD.01 24-Apr-2013

 -----------------------------------------------
 #p ccsd(t,maxcyc=1000)/6-311++G(3df,2p) scf(QC)
 -----------------------------------------------

 -------------
 ccsd(t) iener
 -------------
 Symbolic Z-matrix:
 Charge =  0 Multiplicity = 2

                         Standard orientation:
 ---------------------------------------------------------------------
 Center     Atomic      Atomic             Coordinates (Angstroms)
 Number     Number       Type             X           Y           Z
 ---------------------------------------------------------------------
      1          6           0        0.000000    0.000000    1.252868
      2          6           0        0.000000    0.000000   -0.084071
      3          6           0        0.000000    0.000000   -1.337751
      4          6           0        0.000000    0.000000   -2.654390
      5          7           0        0.000000    0.000000    2.420011
 ---------------------------------------------------------------------

 SCF Done:  E(UHF) =  -205.779487691     a.u. after   33 cycles
 E2 =    -0.6521198520D+00 EUMP2 =    -0.20643160754346D+03
 CCSD(T)
 CCSD(T)= -0.20654598599D+03

 Unable to determine electronic state:  an orbital has unidentified symmetry.
 Alpha  occ. eigenvalues --  -15.65182 -11.36062 -11.33640 -11.31538 -11.29185
 Alpha  occ. eigenvalues --   -1.30900  -1.15704  -1.02184  -0.88691  -0.64702
 Alpha  occ. eigenvalues --   -0.62388  -0.60651  -0.53556  -0.50955  -0.49528
 Alpha  occ. eigenvalues --   -0.41130
 Alpha virt. eigenvalues --   -0.03661   0.05387   0.08675   0.09156   0.09265
 Alpha virt. eigenvalues --    0.09932   0.11708   0.11993   0.13305   0.14026
 Alpha virt. eigenvalues --    0.16794   0.18084   0.18775   0.19393   0.24092

  Beta  occ. eigenvalues --  -15.61800 -11.33920 -11.32920 -11.32191 -11.31521
  Beta  occ. eigenvalues --   -1.25242  -1.14066  -0.98878  -0.88203  -0.59287
  Beta  occ. eigenvalues --   -0.56905  -0.56505  -0.48666  -0.48320  -0.47220
  Beta virt. eigenvalues --   -0.00520   0.02023   0.05428   0.08756   0.09123
  Beta virt. eigenvalues --    0.09408   0.09999   0.10671   0.11108   0.13930
  Beta virt. eigenvalues --    0.17415   0.18519   0.18552   0.19594   0.19675

 Mulliken charges and spin densities:
               1          2
     1  C    0.434275  -1.225169
     2  C    0.323636   1.308091
     3  C    1.178636  -0.993497
     4  C   -0.888807   0.749026
     5  N   -1.047741   1.161549
 Sum of Mulliken charges =   0.00000   1.00000

 Dipole moment (field-independent basis, Debye):
    X=              0.0000    Y=              0.0000    Z=              0.0904  Tot=              0.0904
 Quadrupole moment (field-independent basis, Debye-Ang):
   XX=            -28.2070   YY=            -26.4157   ZZ=            -42.2960
   XY=              0.0000   XZ=              0.0000   YZ=              0.0000

 9\PMP3-0=-206.5118738\MP4SDQ=-206.4761028\CCSD=-206.4998844\CCSD(T)=-2
 Normal termination of Gaussian 09 at Sun Aug 19 23:22:18 2018.
