 Gaussian 09, Revision E.01,
 Gaussian 09:  EM64L-G09RevE.01 30-Nov-2015

 -----------------------------------------------------
 #p ccsd(t)/6-311+G(3df) scf(MaxCyc=300) guess(Huckel)
 -----------------------------------------------------

 -------------
 ccsd(t) iener
 -------------
 Symbolic Z-matrix:
 Charge =  2 Multiplicity = 1

                         Standard orientation:
 ---------------------------------------------------------------------
 Center     Atomic      Atomic             Coordinates (Angstroms)
 Number     Number       Type             X           Y           Z
 ---------------------------------------------------------------------
      1          6           0        0.679812    0.030191    0.000095
      2          6           0        1.934335   -0.702512   -0.000109
      3          6           0       -0.000655    1.346148   -0.000186
      4          6           0       -1.934187   -0.702470   -0.000225
      5          6           0       -0.679304    0.028644    0.000425
 ---------------------------------------------------------------------

 SCF Done:  E(RHF) =  -188.007412564     A.U. after   30 cycles
 E2 =    -0.5859681350D+00 EUMP2 =    -0.18859338069889D+03
 CCSD(T)
 CCSD(T)= -0.18869179459D+03

 The electronic state is 1-A.
 Alpha  occ. eigenvalues --  -11.98962 -11.98933 -11.84217 -11.84067 -11.83255
 Alpha  occ. eigenvalues --   -1.74035  -1.52671  -1.47950  -1.19536  -1.08956
 Alpha  occ. eigenvalues --   -1.03186  -1.00709  -0.97491  -0.88724
 Alpha virt. eigenvalues --   -0.56687  -0.50524  -0.47067  -0.46251  -0.30620
 Alpha virt. eigenvalues --   -0.26987  -0.25278  -0.20464  -0.19840  -0.19379
 Alpha virt. eigenvalues --   -0.17075  -0.16356  -0.15111  -0.14045  -0.12847

 Mulliken charges:
               1
     1  C    0.686619
     2  C    0.332883
     3  C   -0.038999
     4  C    0.332927
     5  C    0.686571
 Sum of Mulliken charges =   2.00000

 Dipole moment (field-independent basis, Debye):
    X=              0.0086    Y=             -3.2955    Z=              0.0007  Tot=              3.2956
 Quadrupole moment (field-independent basis, Debye-Ang):
   XX=             -1.0534   YY=            -20.6665   ZZ=            -20.9332
   XY=              0.0040   XZ=             -0.0014   YZ=              0.0002

 .6271971\MP4SDQ=-188.6391123\CCSD=-188.6464432\CCSD(T)=-188.6917946\RM
 Normal termination of Gaussian 09 at Fri Jun 17 01:32:00 2016.
