 Gaussian 09, Revision E.01,
 Gaussian 09:  EM64L-G09RevE.01 30-Nov-2015

 -----------------------------------------------------
 #p ccsd(t)/6-311+G(3df) scf(MaxCyc=300) guess(Huckel)
 -----------------------------------------------------

 -------------
 ccsd(t) iener
 -------------
 Symbolic Z-matrix:
 Charge =  2 Multiplicity = 3

                         Standard orientation:
 ---------------------------------------------------------------------
 Center     Atomic      Atomic             Coordinates (Angstroms)
 Number     Number       Type             X           Y           Z
 ---------------------------------------------------------------------
      1          6           0        0.000000   -0.000000    0.000015
      2          6           0        0.000000   -0.000000   -2.534569
      3          6           0        0.000000   -0.000000   -1.291739
      4          6           0       -0.000000    0.000000    2.534575
      5          6           0       -0.000000    0.000000    1.291719
 ---------------------------------------------------------------------

 SCF Done:  E(UHF) =  -188.140332212     A.U. after   23 cycles
 E2 =    -0.5587807147D+00 EUMP2 =    -0.18869911292667D+03
 CCSD(T)
 CCSD(T)= -0.18880732312D+03

 The electronic state is 3-SG.
 Alpha  occ. eigenvalues --  -11.93568 -11.89780 -11.89777 -11.77455 -11.77451
 Alpha  occ. eigenvalues --   -1.63176  -1.60248  -1.49460  -1.37556  -1.13442
 Alpha  occ. eigenvalues --   -1.13037  -0.99142  -0.99142  -0.94960  -0.94960
 Alpha virt. eigenvalues --   -0.53661  -0.53661  -0.30380  -0.30380  -0.25134
 Alpha virt. eigenvalues --   -0.19792  -0.19216  -0.19216  -0.16045  -0.14765
 Alpha virt. eigenvalues --   -0.14765  -0.13424  -0.12205  -0.12205  -0.08477

  Beta  occ. eigenvalues --  -11.95058 -11.83516 -11.83514 -11.78179 -11.78172
  Beta  occ. eigenvalues --   -1.69063  -1.56020  -1.42507  -1.35151  -1.07987
  Beta  occ. eigenvalues --   -1.07987  -0.86848  -0.86848
  Beta virt. eigenvalues --   -0.46838  -0.46838  -0.42733  -0.42330  -0.25184
  Beta virt. eigenvalues --   -0.24167  -0.24167  -0.19481  -0.19481  -0.18215
  Beta virt. eigenvalues --   -0.14735  -0.13044  -0.13044  -0.12824  -0.12824

 Mulliken charges and spin densities:
               1          2
     1  C   -0.797804  -0.681527
     2  C    0.479578   1.876098
     3  C    0.919275  -0.535415
     4  C    0.479566   1.876199
     5  C    0.919385  -0.535355
 Sum of Mulliken charges =   2.00000   2.00000

 Dipole moment (field-independent basis, Debye):
    X=              0.0000    Y=              0.0000    Z=              0.0009  Tot=              0.0009
 Quadrupole moment (field-independent basis, Debye-Ang):
   XX=            -22.3015   YY=            -22.3015   ZZ=             24.9640
   XY=              0.0000   XZ=             -0.0000   YZ=              0.0000

 MP4SDQ=-188.729559\CCSD=-188.7540866\CCSD(T)=-188.8073231\S2=3.0485\S2
 Normal termination of Gaussian 09 at Fri Jun 17 07:46:33 2016.
