 Gaussian 09, Revision E.01,
 Gaussian 09:  EM64L-G09RevE.01 30-Nov-2015

 -----------------------------------------------------
 #p ccsd(t)/6-311+G(3df) scf(MaxCyc=300) guess(Huckel)
 -----------------------------------------------------

 -------------
 ccsd(t) iener
 -------------
 Symbolic Z-matrix:
 Charge =  2 Multiplicity = 3

                         Standard orientation:
 ---------------------------------------------------------------------
 Center     Atomic      Atomic             Coordinates (Angstroms)
 Number     Number       Type             X           Y           Z
 ---------------------------------------------------------------------
      1          6           0        1.897833    0.000218    0.149694
      2          6           0       -0.571468    1.052963   -0.202717
      3          6           0       -1.233081    0.000012    0.372829
      4          6           0        0.478027   -0.000349   -0.117141
      5          6           0       -0.571311   -1.052845   -0.202665
 ---------------------------------------------------------------------

 SCF Done:  E(UHF) =  -188.020096292     A.U. after   37 cycles
 E2 =    -0.5692471354D+00 EUMP2 =    -0.18858934342782D+03
 CCSD(T)
 CCSD(T)= -0.18868850014D+03

 The electronic state is 3-A.
 Alpha  occ. eigenvalues --  -11.99446 -11.89964 -11.89902 -11.89691 -11.89025
 Alpha  occ. eigenvalues --   -1.83278  -1.56913  -1.44323  -1.29268  -1.15842
 Alpha  occ. eigenvalues --   -1.12880  -1.09382  -1.02106  -0.98722  -0.95904
 Alpha virt. eigenvalues --   -0.52749  -0.49826  -0.43079  -0.36430  -0.31669
 Alpha virt. eigenvalues --   -0.24597  -0.21853  -0.20175  -0.19249  -0.17609
 Alpha virt. eigenvalues --   -0.17558  -0.16578  -0.15446  -0.15131  -0.13356

  Beta  occ. eigenvalues --  -11.99271 -11.88092 -11.88055 -11.87615 -11.86997
  Beta  occ. eigenvalues --   -1.80781  -1.53075  -1.40050  -1.23858  -1.10175
  Beta  occ. eigenvalues --   -1.07086  -1.02005  -0.88780
  Beta virt. eigenvalues --   -0.52645  -0.51808  -0.46829  -0.43557  -0.43435
  Beta virt. eigenvalues --   -0.31637  -0.27141  -0.23042  -0.20531  -0.18404
  Beta virt. eigenvalues --   -0.18364  -0.16806  -0.16701  -0.15435  -0.14939

 Mulliken charges and spin densities:
               1          2
     1  C    0.392056   0.060326
     2  C   -0.027652   0.389708
     3  C    0.777757   0.690694
     4  C    0.885337   0.471288
     5  C   -0.027498   0.387983
 Sum of Mulliken charges =   2.00000   2.00000

 Dipole moment (field-independent basis, Debye):
    X=              1.7410    Y=              0.0037    Z=              0.4737  Tot=              1.8042
 Quadrupole moment (field-independent basis, Debye-Ang):
   XX=             -4.4917   YY=            -18.4472   ZZ=            -21.6499
   XY=             -0.0042   XZ=             -0.0633   YZ=              0.0003

 P4SDQ=-188.6217324\CCSD=-188.6401424\CCSD(T)=-188.6885001\S2=2.602219\
 Normal termination of Gaussian 09 at Fri Jun 17 12:28:52 2016.
