 Gaussian 09, Revision E.01,
 Gaussian 09:  EM64L-G09RevE.01 30-Nov-2015

 -----------------------------------------------------
 #p ccsd(t)/6-311+G(3df) scf(MaxCyc=300) guess(Huckel)
 -----------------------------------------------------

 -------------
 ccsd(t) iener
 -------------
 Symbolic Z-matrix:
 Charge =  2 Multiplicity = 3

                         Standard orientation:
 ---------------------------------------------------------------------
 Center     Atomic      Atomic             Coordinates (Angstroms)
 Number     Number       Type             X           Y           Z
 ---------------------------------------------------------------------
      1          6           0       -2.091909    0.000001    0.001242
      2          6           0        0.536589    0.807256   -0.000211
      3          6           0        0.536583   -0.807248   -0.000211
      4          6           0        1.650830   -0.000005    0.001010
      5          6           0       -0.632092   -0.000004   -0.001831
 ---------------------------------------------------------------------

 SCF Done:  E(UHF) =  -188.032245551     A.U. after   43 cycles
 E2 =    -0.5853124948D+00 EUMP2 =    -0.18861755804554D+03
 CCSD(T)
 CCSD(T)= -0.18870056914D+03

 The electronic state is 3-A.
 Alpha  occ. eigenvalues --  -12.02202 -11.88986 -11.88480 -11.88234 -11.88206
 Alpha  occ. eigenvalues --   -1.82966  -1.57941  -1.42353  -1.29779  -1.20156
 Alpha  occ. eigenvalues --   -1.10953  -1.08247  -1.07610  -0.99779  -0.92050
 Alpha virt. eigenvalues --   -0.54291  -0.44531  -0.41896  -0.38526  -0.24730
 Alpha virt. eigenvalues --   -0.20926  -0.20527  -0.19552  -0.19491  -0.17414
 Alpha virt. eigenvalues --   -0.17234  -0.16669  -0.15104  -0.13556  -0.12936

  Beta  occ. eigenvalues --  -11.95671 -11.89645 -11.87358 -11.87294 -11.85901
  Beta  occ. eigenvalues --   -1.83254  -1.54202  -1.34093  -1.27644  -1.10802
  Beta  occ. eigenvalues --   -1.10712  -0.91293  -0.88757
  Beta virt. eigenvalues --   -0.53027  -0.47454  -0.44824  -0.39709  -0.38856
  Beta virt. eigenvalues --   -0.35021  -0.24036  -0.22337  -0.19631  -0.18738
  Beta virt. eigenvalues --   -0.18017  -0.17354  -0.16383  -0.16006  -0.13316

 Mulliken charges and spin densities:
               1          2
     1  C    0.178011   1.727496
     2  C    1.336241   0.349494
     3  C    1.336305   0.349533
     4  C   -0.597825   0.490212
     5  C   -0.252733  -0.916736
 Sum of Mulliken charges =   2.00000   2.00000

 Dipole moment (field-independent basis, Debye):
    X=             -4.0083    Y=             -0.0000    Z=              0.0030  Tot=              4.0083
 Quadrupole moment (field-independent basis, Debye-Ang):
   XX=              5.7191   YY=            -19.7997   ZZ=            -22.9261
   XY=             -0.0000   XZ=             -0.0057   YZ=             -0.0000

 SDQ=-188.635222\CCSD=-188.6508324\CCSD(T)=-188.7005691\S2=2.669235\S2-
 Normal termination of Gaussian 09 at Fri Jun 17 12:10:38 2016.
