 Gaussian 09, Revision E.01,
 Gaussian 09:  EM64L-G09RevE.01 30-Nov-2015

 -----------------------------------------------------
 #p ccsd(t)/6-311+G(3df) scf(MaxCyc=300) guess(Huckel)
 -----------------------------------------------------

 -------------
 ccsd(t) iener
 -------------
 Symbolic Z-matrix:
 Charge =  2 Multiplicity = 3

                         Standard orientation:
 ---------------------------------------------------------------------
 Center     Atomic      Atomic             Coordinates (Angstroms)
 Number     Number       Type             X           Y           Z
 ---------------------------------------------------------------------
      1          6           0        1.194679   -0.472489   -0.253150
      2          6           0        0.777073    0.763568    0.250794
      3          6           0       -1.347350   -0.267653   -0.017841
      4          6           0       -0.549803    0.823318   -0.178905
      5          6           0       -0.074599   -0.846744    0.199101
 ---------------------------------------------------------------------

 SCF Done:  E(UHF) =  -188.028688861     A.U. after   44 cycles
 E2 =    -0.5833034842D+00 EUMP2 =    -0.18861199234512D+03
 CCSD(T)
 CCSD(T)= -0.18871332659D+03

 The electronic state is 3-A.
 Alpha  occ. eigenvalues --  -11.95959 -11.94589 -11.94434 -11.93579 -11.91149
 Alpha  occ. eigenvalues --   -1.88558  -1.61926  -1.49760  -1.28453  -1.25486
 Alpha  occ. eigenvalues --   -1.15848  -1.13241  -1.07906  -1.01609  -0.97670
 Alpha virt. eigenvalues --   -0.54642  -0.47939  -0.43775  -0.38113  -0.30304
 Alpha virt. eigenvalues --   -0.23926  -0.21674  -0.20097  -0.19869  -0.18263
 Alpha virt. eigenvalues --   -0.17610  -0.17529  -0.16117  -0.15614  -0.11757

  Beta  occ. eigenvalues --  -11.92992 -11.92861 -11.92484 -11.91921 -11.89581
  Beta  occ. eigenvalues --   -1.86905  -1.60924  -1.43899  -1.23803  -1.20012
  Beta  occ. eigenvalues --   -1.12279  -1.00297  -0.93080
  Beta virt. eigenvalues --   -0.51975  -0.50807  -0.45933  -0.44603  -0.39244
  Beta virt. eigenvalues --   -0.36940  -0.28964  -0.22361  -0.21926  -0.19237
  Beta virt. eigenvalues --   -0.18518  -0.18057  -0.17058  -0.16773  -0.15878

 Mulliken charges and spin densities:
               1          2
     1  C    0.465139   0.281823
     2  C    0.431596   0.708404
     3  C    0.232092   0.549210
     4  C    0.471664  -0.010368
     5  C    0.399508   0.470931
 Sum of Mulliken charges =   2.00000   2.00000

 Dipole moment (field-independent basis, Debye):
    X=             -0.2894    Y=              0.3236    Z=              0.3036  Tot=              0.5297
 Quadrupole moment (field-independent basis, Debye-Ang):
   XX=            -11.1732   YY=            -14.8844   ZZ=            -21.9430
   XY=              0.2040   XZ=              0.3564   YZ=             -0.1295

 SDQ=-188.6426826\CCSD=-188.659876\CCSD(T)=-188.7133266\S2=2.975886\S2-
 Normal termination of Gaussian 09 at Fri Jun 17 12:28:42 2016.
