 Gaussian 09, Revision E.01,
 Gaussian 09:  EM64L-G09RevE.01 30-Nov-2015

 -----------------------------------------------------
 #p ccsd(t)/6-311+G(3df) scf(MaxCyc=300) guess(Huckel)
 -----------------------------------------------------

 -------------
 ccsd(t) iener
 -------------
 Symbolic Z-matrix:
 Charge =  2 Multiplicity = 3

                         Standard orientation:
 ---------------------------------------------------------------------
 Center     Atomic      Atomic             Coordinates (Angstroms)
 Number     Number       Type             X           Y           Z
 ---------------------------------------------------------------------
      1          6           0       -1.111752    0.483170   -0.002000
      2          6           0        0.568594   -0.243887    0.854674
      3          6           0        0.571593   -0.248038   -0.852314
      4          6           0       -0.470177   -0.892345    0.000932
      5          6           0        0.441742    0.901100   -0.001292
 ---------------------------------------------------------------------

 SCF Done:  E(UHF) =  -187.928605363     A.U. after   42 cycles
 E2 =    -0.6492007637D+00 EUMP2 =    -0.18857780612618D+03
 CCSD(T)
 CCSD(T)= -0.18865366332D+03

 The electronic state is 3-A.
 Alpha  occ. eigenvalues --  -11.99632 -11.96958 -11.96921 -11.92670 -11.92320
 Alpha  occ. eigenvalues --   -1.94970  -1.50150  -1.45658  -1.45618  -1.15981
 Alpha  occ. eigenvalues --   -1.11357  -1.10458  -1.05649  -0.99821  -0.95313
 Alpha virt. eigenvalues --   -0.55413  -0.49726  -0.46497  -0.41217  -0.25862
 Alpha virt. eigenvalues --   -0.23512  -0.23412  -0.23166  -0.20912  -0.18770
 Alpha virt. eigenvalues --   -0.17530  -0.16820  -0.16751  -0.16179  -0.15670

  Beta  occ. eigenvalues --  -12.01078 -11.92737 -11.92354 -11.92212 -11.92190
  Beta  occ. eigenvalues --   -1.91936  -1.48409  -1.42897  -1.31205  -1.11454
  Beta  occ. eigenvalues --   -1.10508  -1.07946  -0.96617
  Beta virt. eigenvalues --   -0.53419  -0.53285  -0.51088  -0.45198  -0.38085
  Beta virt. eigenvalues --   -0.26089  -0.24975  -0.23580  -0.21723  -0.21571
  Beta virt. eigenvalues --   -0.18746  -0.17839  -0.17418  -0.16408  -0.15851

 Mulliken charges and spin densities:
               1          2
     1  C    0.334695  -0.422720
     2  C    0.327490   1.523988
     3  C    0.327055   1.525078
     4  C    0.511309  -0.302400
     5  C    0.499451  -0.323945
 Sum of Mulliken charges =   2.00000   2.00000

 Dipole moment (field-independent basis, Debye):
    X=             -0.4422    Y=              0.0681    Z=             -0.0003  Tot=              0.4475
 Quadrupole moment (field-independent basis, Debye-Ang):
   XX=            -15.1643   YY=            -18.2809   ZZ=            -16.8998
   XY=             -0.8205   XZ=              0.0004   YZ=              0.0060

 P4SDQ=-188.5827883\CCSD=-188.594716\CCSD(T)=-188.6536633\S2=2.631738\S
 Normal termination of Gaussian 09 at Fri Jun 17 11:28:59 2016.
