 Gaussian 09, Revision E.01,
 Gaussian 09:  EM64L-G09RevE.01 30-Nov-2015

 ---------------------------------------
 #p ccsd(t)/6-311+G(3df) scf(MaxCyc=300)
 ---------------------------------------

 -------------
 ccsd(t) iener
 -------------
 Symbolic Z-matrix:
 Charge =  1 Multiplicity = 2

                         Standard orientation:
 ---------------------------------------------------------------------
 Center     Atomic      Atomic             Coordinates (Angstroms)
 Number     Number       Type             X           Y           Z
 ---------------------------------------------------------------------
      1          6           0       -0.141901    0.947616   -0.000643
      2          6           0        1.165419    0.675434    0.000305
      3          6           0        0.854069   -0.836301   -0.001251
      4          6           0       -0.266115   -0.462655    0.893112
      5          6           0       -0.268239   -0.462226   -0.892313
      6          6           0       -1.343232    0.138132    0.000790
 ---------------------------------------------------------------------

 SCF Done:  E(UHF) =  -226.389456241     A.U. after   37 cycles
 E2 =    -0.8576814961D+00 EUMP2 =    -0.22724713773747D+03
 CCSD(T)
 CCSD(T)= -0.22732283333D+03

 The electronic state is 2-A.
 Alpha  occ. eigenvalues --  -11.66915 -11.66115 -11.63831 -11.63803 -11.62773
 Alpha  occ. eigenvalues --  -11.59398  -1.69286  -1.36405  -1.27911  -1.12981
 Alpha  occ. eigenvalues --   -0.97912  -0.91886  -0.87550  -0.85759  -0.76382
 Alpha  occ. eigenvalues --   -0.71551  -0.69875  -0.65879
 Alpha virt. eigenvalues --   -0.22494  -0.21864  -0.18273  -0.12277  -0.07935
 Alpha virt. eigenvalues --   -0.06767  -0.05555  -0.04826  -0.03640  -0.02353
 Alpha virt. eigenvalues --   -0.02176  -0.01589  -0.01273  -0.00600   0.01547

  Beta  occ. eigenvalues --  -11.64204 -11.64157 -11.64142 -11.63449 -11.63063
  Beta  occ. eigenvalues --  -11.59865  -1.68510  -1.32628  -1.25307  -1.13734
  Beta  occ. eigenvalues --   -0.92993  -0.87560  -0.84735  -0.83839  -0.72753
  Beta  occ. eigenvalues --   -0.69419  -0.65354
  Beta virt. eigenvalues --   -0.22716  -0.21800  -0.20359  -0.14369  -0.13042
  Beta virt. eigenvalues --   -0.07510  -0.07205  -0.06021  -0.05110  -0.03880
  Beta virt. eigenvalues --   -0.02226  -0.02059  -0.01626  -0.01079  -0.00485

 Mulliken charges and spin densities:
               1          2
     1  C    0.654084  -0.808039
     2  C   -0.123130   1.161233
     3  C    0.485488   0.980604
     4  C    0.006223  -0.263396
     5  C    0.006258  -0.263809
     6  C   -0.028922   0.193407
 Sum of Mulliken charges =   1.00000   1.00000

 Dipole moment (field-independent basis, Debye):
    X=              2.2514    Y=              0.1028    Z=             -0.0046  Tot=              2.2537
 Quadrupole moment (field-independent basis, Debye-Ang):
   XX=            -29.7525   YY=            -25.5428   ZZ=            -30.0149
   XY=              0.4903   XZ=              0.0050   YZ=              0.0014

 8\PMP3-0=-227.2463564\MP4SDQ=-227.2406182\CCSD=-227.2497728\CCSD(T)=-2
 Normal termination of Gaussian 09 at Wed Nov  2 23:31:29 2016.
