 Gaussian 09, Revision E.01,
 Gaussian 09:  EM64L-G09RevE.01 30-Nov-2015

 -----------------------------------------------------
 #p ccsd(t)/6-311+G(3df) scf(MaxCyc=300) guess(Huckel)
 -----------------------------------------------------

 -------------
 ccsd(t) iener
 -------------
 Symbolic Z-matrix:
 Charge =  2 Multiplicity = 1

                         Standard orientation:
 ---------------------------------------------------------------------
 Center     Atomic      Atomic             Coordinates (Angstroms)
 Number     Number       Type             X           Y           Z
 ---------------------------------------------------------------------
      1          6           0        2.555014   -0.000024    0.000030
      2          6           0       -1.142279    0.000320   -0.000183
      3          6           0       -2.554966   -0.000248    0.000120
      4          6           0        0.000013   -0.814122    0.000007
      5          6           0       -0.000010    0.814238    0.000007
      6          6           0        1.142227   -0.000164    0.000019
 ---------------------------------------------------------------------

 SCF Done:  E(RHF) =  -225.920755401     A.U. after   18 cycles
 E2 =    -0.7569139068D+00 EUMP2 =    -0.22667766930733D+03
 CCSD(T)
 CCSD(T)= -0.22677375343D+03

 The electronic state is 1-A.
 Alpha  occ. eigenvalues --  -11.91238 -11.91231 -11.88044 -11.87985 -11.79970
 Alpha  occ. eigenvalues --  -11.79962  -1.81392  -1.55904  -1.46474  -1.30463
 Alpha  occ. eigenvalues --   -1.27813  -1.09299  -1.06200  -0.99311  -0.96885
 Alpha  occ. eigenvalues --   -0.90886  -0.86267
 Alpha virt. eigenvalues --   -0.50208  -0.48369  -0.41832  -0.39573  -0.33918
 Alpha virt. eigenvalues --   -0.33315  -0.23491  -0.20626  -0.20030  -0.16918
 Alpha virt. eigenvalues --   -0.16363  -0.14906  -0.14555  -0.14039  -0.13835

 Mulliken charges:
               1
     1  C   -0.246844
     2  C   -0.483025
     3  C   -0.247202
     4  C    1.729779
     5  C    1.730542
     6  C   -0.483251
 Sum of Mulliken charges =   2.00000

 Dipole moment (field-independent basis, Debye):
    X=              0.0018    Y=              0.0003    Z=              0.0003  Tot=              0.0018
 Quadrupole moment (field-independent basis, Debye-Ang):
   XX=              2.6451   YY=            -24.8850   ZZ=            -27.8634
   XY=             -0.0026   XZ=              0.0002   YZ=              0.0000

 6.71639\CCSD(T)=-226.7737534\RMSD=4.724e-09\PG=C01 [X(C6)]\\@
 Normal termination of Gaussian 09 at Mon Jun 20 03:32:27 2016.
