 Gaussian 09, Revision E.01,
 Gaussian 09:  EM64L-G09RevE.01 30-Nov-2015

 -----------------------------------------------------
 #p ccsd(t)/6-311+G(3df) scf(MaxCyc=300) guess(Huckel)
 -----------------------------------------------------

 -------------
 ccsd(t) iener
 -------------
 Symbolic Z-matrix:
 Charge =  2 Multiplicity = 3

                         Standard orientation:
 ---------------------------------------------------------------------
 Center     Atomic      Atomic             Coordinates (Angstroms)
 Number     Number       Type             X           Y           Z
 ---------------------------------------------------------------------
      1          6           0       -0.052483   -0.000261   -0.875248
      2          6           0        0.781192    0.002272    0.689851
      3          6           0        0.671815   -1.171407   -0.239201
      4          6           0       -0.643120   -0.001890    0.871310
      5          6           0       -1.417724   -0.005073   -0.207496
      6          6           0        0.660319    1.176360   -0.239216
 ---------------------------------------------------------------------

 SCF Done:  E(UHF) =  -225.822081139     A.U. after   40 cycles
 E2 =    -0.7625784283D+00 EUMP2 =    -0.22658465956680D+03
 CCSD(T)
 CCSD(T)= -0.22669259800D+03

 The electronic state is 3-A.
 Alpha  occ. eigenvalues --  -11.92380 -11.92280 -11.91408 -11.89703 -11.89026
 Alpha  occ. eigenvalues --  -11.87071  -1.89798  -1.59965  -1.46988  -1.44094
 Alpha  occ. eigenvalues --   -1.22191  -1.16592  -1.09989  -1.09880  -1.05469
 Alpha  occ. eigenvalues --   -1.03808  -0.96232  -0.94184
 Alpha virt. eigenvalues --   -0.46626  -0.44794  -0.43715  -0.39834  -0.32252
 Alpha virt. eigenvalues --   -0.23902  -0.22434  -0.20759  -0.19159  -0.18202
 Alpha virt. eigenvalues --   -0.17277  -0.16652  -0.16437  -0.16400  -0.15477

  Beta  occ. eigenvalues --  -11.91283 -11.91049 -11.90969 -11.89549 -11.87256
  Beta  occ. eigenvalues --  -11.83938  -1.88432  -1.54298  -1.45017  -1.43278
  Beta  occ. eigenvalues --   -1.17867  -1.09114  -1.08298  -0.99804  -0.96549
  Beta  occ. eigenvalues --   -0.90223
  Beta virt. eigenvalues --   -0.52449  -0.47645  -0.42784  -0.42622  -0.40667
  Beta virt. eigenvalues --   -0.38096  -0.32148  -0.22681  -0.21989  -0.19816
  Beta virt. eigenvalues --   -0.18370  -0.17153  -0.16538  -0.16269  -0.16062

 Mulliken charges and spin densities:
               1          2
     1  C    0.501315  -0.133789
     2  C    0.335979   0.702321
     3  C    0.164382   0.358558
     4  C    0.560464  -1.117807
     5  C    0.274538   1.837917
     6  C    0.163322   0.352798
 Sum of Mulliken charges =   2.00000   2.00000

 Dipole moment (field-independent basis, Debye):
    X=              0.0231    Y=             -0.0203    Z=             -0.2123  Tot=              0.2145
 Quadrupole moment (field-independent basis, Debye-Ang):
   XX=            -17.5514   YY=            -23.0350   ZZ=            -21.3627
   XY=             -0.0062   XZ=             -1.1276   YZ=             -0.0029

 CCSD(T)=-226.692598\S2=2.772127\S2-1=2.613272\S2A=2.429091\RMSD=7.757e
 Normal termination of Gaussian 09 at Wed Jun 22 08:53:24 2016.
