 Gaussian 09, Revision E.01,
 Gaussian 09:  EM64L-G09RevE.01 30-Nov-2015

 ---------------------------------------
 #p ccsd(t)/6-311+G(3df) scf(MaxCyc=300)
 ---------------------------------------

 -------------
 ccsd(t) iener
 -------------
 Symbolic Z-matrix:
 Charge =  1 Multiplicity = 4

                         Standard orientation:
 ---------------------------------------------------------------------
 Center     Atomic      Atomic             Coordinates (Angstroms)
 Number     Number       Type             X           Y           Z
 ---------------------------------------------------------------------
      1          6           0        2.178269   -0.000018    0.000075
      2          6           0       -1.473657   -0.000013   -0.000005
      3          6           0        1.063820   -0.769725   -0.000025
      4          6           0       -0.136449   -0.000007   -0.000068
      5          6           0        1.063812    0.769759   -0.000025
      6          6           0       -2.695795    0.000004    0.000047
 ---------------------------------------------------------------------

 SCF Done:  E(UHF) =  -226.557000416     A.U. after   29 cycles
 E2 =    -0.7297862994D+00 EUMP2 =    -0.22728678671578D+03
 CCSD(T)
 CCSD(T)= -0.22737923001D+03

 The electronic state is 4-A.
 Alpha  occ. eigenvalues --  -11.62445 -11.61118 -11.61031 -11.60854 -11.54166
 Alpha  occ. eigenvalues --  -11.47441  -1.60547  -1.33486  -1.27275  -1.09156
 Alpha  occ. eigenvalues --   -1.03302  -0.87948  -0.87057  -0.85917  -0.83682
 Alpha  occ. eigenvalues --   -0.72817  -0.67635  -0.67136  -0.63256
 Alpha virt. eigenvalues --   -0.17300  -0.14982  -0.11053  -0.06802  -0.06325
 Alpha virt. eigenvalues --   -0.05005  -0.04780  -0.02304  -0.01598  -0.01225
 Alpha virt. eigenvalues --   -0.01052  -0.00586   0.00375   0.01536   0.02134

  Beta  occ. eigenvalues --  -11.61452 -11.61368 -11.58697 -11.57386 -11.49531
  Beta  occ. eigenvalues --  -11.47506  -1.58649  -1.31720  -1.17313  -1.03686
  Beta  occ. eigenvalues --   -1.02696  -0.85413  -0.81071  -0.70113  -0.65722
  Beta  occ. eigenvalues --   -0.64713
  Beta virt. eigenvalues --   -0.21475  -0.17690  -0.17552  -0.16021  -0.12301
  Beta virt. eigenvalues --   -0.06265  -0.04469  -0.04166  -0.03221  -0.03074
  Beta virt. eigenvalues --   -0.01664  -0.01251  -0.00007   0.00113   0.00635

 Mulliken charges and spin densities:
               1          2
     1  C   -0.728369   1.598490
     2  C   -0.146500  -1.100741
     3  C    1.035948  -0.286417
     4  C   -0.649304   0.731697
     5  C    1.035734  -0.286077
     6  C    0.452491   2.343048
 Sum of Mulliken charges =   1.00000   3.00000

 Dipole moment (field-independent basis, Debye):
    X=              1.2598    Y=             -0.0002    Z=              0.0000  Tot=              1.2598
 Quadrupole moment (field-independent basis, Debye-Ang):
   XX=             -9.3829   YY=            -30.3071   ZZ=            -30.0674
   XY=             -0.0004   XZ=             -0.0000   YZ=              0.0000

 -0=-227.3206642\MP4SDQ=-227.3130439\CCSD=-227.3275755\CCSD(T)=-227.379
 Normal termination of Gaussian 09 at Thu Nov  3 17:06:06 2016.
