 Gaussian 09, Revision E.01,
 Gaussian 09:  EM64L-G09RevE.01 30-Nov-2015

 ---------------------------------------
 #p ccsd(t)/6-311+G(3df) scf(MaxCyc=300)
 ---------------------------------------

 -------------
 ccsd(t) iener
 -------------
 Symbolic Z-matrix:
 Charge =  1 Multiplicity = 4

                         Standard orientation:
 ---------------------------------------------------------------------
 Center     Atomic      Atomic             Coordinates (Angstroms)
 Number     Number       Type             X           Y           Z
 ---------------------------------------------------------------------
      1          6           0        0.714828    0.899600   -0.018790
      2          6           0       -0.715796   -0.434874    0.786306
      3          6           0       -0.721294    0.895618   -0.017975
      4          6           0        0.719076   -0.462696   -0.768117
      5          6           0        0.720161   -0.430867    0.785558
      6          6           0       -0.716975   -0.466781   -0.766982
 ---------------------------------------------------------------------

 SCF Done:  E(UHF) =  -226.389125767     A.U. after   22 cycles
 E2 =    -0.8308786393D+00 EUMP2 =    -0.22722000440615D+03
 CCSD(T)
 CCSD(T)= -0.22730308472D+03

 The electronic state is 4-A.
 Alpha  occ. eigenvalues --  -11.62770 -11.62700 -11.62689 -11.62654 -11.62580
 Alpha  occ. eigenvalues --  -11.62570  -1.66643  -1.28383  -1.23027  -1.22993
 Alpha  occ. eigenvalues --   -0.96091  -0.91161  -0.85095  -0.85057  -0.76422
 Alpha  occ. eigenvalues --   -0.76395  -0.71554  -0.71524  -0.69684
 Alpha virt. eigenvalues --   -0.26483  -0.26456  -0.08594  -0.07851  -0.07842
 Alpha virt. eigenvalues --   -0.07165  -0.06123  -0.02870  -0.02868  -0.02052
 Alpha virt. eigenvalues --   -0.01577  -0.01571   0.00638   0.01075   0.01089

  Beta  occ. eigenvalues --  -11.60808 -11.60726 -11.60718 -11.60716 -11.60651
  Beta  occ. eigenvalues --  -11.60641  -1.63947  -1.25703  -1.18771  -1.18734
  Beta  occ. eigenvalues --   -0.90840  -0.78782  -0.78753  -0.74530  -0.74485
  Beta  occ. eigenvalues --   -0.67388
  Beta virt. eigenvalues --   -0.23566  -0.21127  -0.21108  -0.15749  -0.15729
  Beta virt. eigenvalues --   -0.07198  -0.06429  -0.06425  -0.06417  -0.04656
  Beta virt. eigenvalues --   -0.02437  -0.02436  -0.01760  -0.01168  -0.01164

 Mulliken charges and spin densities:
               1          2
     1  C    0.169354   0.501288
     2  C    0.169405   0.500247
     3  C    0.162433   0.499217
     4  C    0.165363   0.499557
     5  C    0.164763   0.499393
     6  C    0.168683   0.500298
 Sum of Mulliken charges =   1.00000   3.00000

 Dipole moment (field-independent basis, Debye):
    X=              0.0005    Y=              0.0023    Z=             -0.0002  Tot=              0.0024
 Quadrupole moment (field-independent basis, Debye-Ang):
   XX=            -28.3747   YY=            -27.5212   ZZ=            -27.5364
   XY=             -0.0084   XZ=              0.0021   YZ=             -0.0002

 45\PMP3-0=-227.2195081\MP4SDQ=-227.2202814\CCSD=-227.2311056\CCSD(T)=-
 Normal termination of Gaussian 09 at Wed Nov  2 07:40:37 2016.
