 Gaussian 09, Revision E.01,
 Gaussian 09:  EM64L-G09RevE.01 30-Nov-2015

 -----------------------------------------------------
 #p ccsd(t)/6-311+G(3df) scf(MaxCyc=300) guess(Huckel)
 -----------------------------------------------------

 -------------
 ccsd(t) iener
 -------------
 Symbolic Z-matrix:
 Charge =  2 Multiplicity = 1

                         Standard orientation:
 ---------------------------------------------------------------------
 Center     Atomic      Atomic             Coordinates (Angstroms)
 Number     Number       Type             X           Y           Z
 ---------------------------------------------------------------------
      1          6           0        0.554742   -0.401206    1.024720
      2          6           0       -1.492908    0.230542   -0.000242
      3          6           0       -0.280457    0.853585   -0.001088
      4          6           0        1.130703    0.562952   -0.000511
      5          6           0       -0.467216   -0.842406    0.000690
      6          6           0        0.555136   -0.403468   -1.023568
 ---------------------------------------------------------------------

 SCF Done:  E(RHF) =  -225.731242847     A.U. after   21 cycles
 E2 =    -0.9257356916D+00 EUMP2 =    -0.22665697853888D+03
 CCSD(T)
 CCSD(T)= -0.22671975077D+03

 The electronic state is 1-A.
 Alpha  occ. eigenvalues --  -11.97525 -11.95669 -11.95658 -11.93185 -11.93045
 Alpha  occ. eigenvalues --  -11.88557  -1.95219  -1.63463  -1.48323  -1.44981
 Alpha  occ. eigenvalues --   -1.20224  -1.18108  -1.12772  -1.07226  -0.97290
 Alpha  occ. eigenvalues --   -0.96609  -0.90743
 Alpha virt. eigenvalues --   -0.56800  -0.54185  -0.46283  -0.43790  -0.38708
 Alpha virt. eigenvalues --   -0.34132  -0.24309  -0.23623  -0.22870  -0.20024
 Alpha virt. eigenvalues --   -0.18124  -0.17222  -0.16987  -0.16641  -0.16355

 Mulliken charges:
               1
     1  C    0.239377
     2  C   -0.269244
     3  C    0.584234
     4  C    0.468499
     5  C    0.738275
     6  C    0.238860
 Sum of Mulliken charges =   2.00000

 Dipole moment (field-independent basis, Debye):
    X=              0.5529    Y=             -0.5736    Z=             -0.0002  Tot=              0.7967
 Quadrupole moment (field-independent basis, Debye-Ang):
   XX=            -22.2053   YY=            -20.8678   ZZ=            -24.0014
   XY=              0.2823   XZ=              0.0002   YZ=             -0.0030

 26.6267117\CCSD(T)=-226.7197508\RMSD=5.474e-09\PG=C01 [X(C6)]\\@
 Normal termination of Gaussian 09 at Mon Jun 20 05:34:58 2016.
