 Gaussian 09, Revision E.01,
 Gaussian 09:  EM64L-G09RevE.01 30-Nov-2015

 -----------------------------------------------------
 #p ccsd(t)/6-311+G(3df) scf(MaxCyc=300) guess(Huckel)
 -----------------------------------------------------

 -------------
 ccsd(t) iener
 -------------
 Symbolic Z-matrix:
 Charge =  2 Multiplicity = 1

                         Standard orientation:
 ---------------------------------------------------------------------
 Center     Atomic      Atomic             Coordinates (Angstroms)
 Number     Number       Type             X           Y           Z
 ---------------------------------------------------------------------
      1          6           0        0.686652    0.910387    0.004040
      2          6           0       -0.687854    0.910058   -0.003905
      3          6           0       -1.168587   -0.389167    0.005767
      4          6           0       -0.004603   -0.521583   -0.903834
      5          6           0        0.004966   -0.521712    0.904235
      6          6           0        1.169426   -0.387983   -0.006304
 ---------------------------------------------------------------------

 SCF Done:  E(RHF) =  -225.684974726     A.U. after   21 cycles
 E2 =    -0.9563936733D+00 EUMP2 =    -0.22664136839966D+03
 CCSD(T)
 CCSD(T)= -0.22670019279D+03

 The electronic state is 1-A.
 Alpha  occ. eigenvalues --  -11.97723 -11.97600 -11.93306 -11.93278 -11.90484
 Alpha  occ. eigenvalues --  -11.90455  -1.98171  -1.63664  -1.53949  -1.41104
 Alpha  occ. eigenvalues --   -1.26485  -1.16045  -1.13531  -1.10209  -0.98545
 Alpha  occ. eigenvalues --   -0.94590  -0.89678
 Alpha virt. eigenvalues --   -0.59625  -0.53122  -0.46479  -0.39519  -0.37064
 Alpha virt. eigenvalues --   -0.36468  -0.25001  -0.22764  -0.21342  -0.19258
 Alpha virt. eigenvalues --   -0.17918  -0.17039  -0.16839  -0.16537  -0.15837

 Mulliken charges:
               1
     1  C    0.411507
     2  C    0.408966
     3  C    0.284926
     4  C    0.306359
     5  C    0.305872
     6  C    0.282369
 Sum of Mulliken charges =   2.00000

 Dipole moment (field-independent basis, Debye):
    X=             -0.0078    Y=              2.1555    Z=             -0.0005  Tot=              2.1556
 Quadrupole moment (field-independent basis, Debye-Ang):
   XX=            -20.7259   YY=            -18.9660   ZZ=            -25.4354
   XY=              0.0066   XZ=              0.0161   YZ=              0.0024

 226.6043956\CCSD(T)=-226.7001928\RMSD=8.132e-09\PG=C01 [X(C6)]\\@
 Normal termination of Gaussian 09 at Mon Jun 20 17:33:18 2016.
