 Gaussian 09, Revision E.01,
 Gaussian 09:  EM64L-G09RevE.01 30-Nov-2015

 -----------------------------------------------------
 #p ccsd(t)/6-311+G(3df) scf(MaxCyc=300) guess(Huckel)
 -----------------------------------------------------

 -------------
 ccsd(t) iener
 -------------
 Symbolic Z-matrix:
 Charge =  2 Multiplicity = 1

                         Standard orientation:
 ---------------------------------------------------------------------
 Center     Atomic      Atomic             Coordinates (Angstroms)
 Number     Number       Type             X           Y           Z
 ---------------------------------------------------------------------
      1          6           0       -0.000000   -0.000000   -1.909139
      2          6           0        0.000000    0.000000    0.673680
      3          6           0       -0.000000   -0.000000   -0.673684
      4          6           0        0.000000    0.000000    1.909134
      5          6           0       -0.000000   -0.000000   -3.293953
      6          6           0        0.000000    0.000000    3.293962
 ---------------------------------------------------------------------

 SCF Done:  E(RHF) =  -226.021368416     A.U. after   14 cycles
 E2 =    -0.7830302708D+00 EUMP2 =    -0.22680439868670D+03
 CCSD(T)
 CCSD(T)= -0.22688187778D+03

 The electronic state is 1-SG.
 Alpha  occ. eigenvalues --  -11.88664 -11.88663 -11.81410 -11.81267 -11.73850
 Alpha  occ. eigenvalues --  -11.73849  -1.60029  -1.54551  -1.45911  -1.38244
 Alpha  occ. eigenvalues --   -1.29889  -0.97079  -0.97079  -0.95610  -0.95470
 Alpha  occ. eigenvalues --   -0.86320  -0.86320
 Alpha virt. eigenvalues --   -0.50527  -0.50527  -0.39065  -0.39065  -0.23758
 Alpha virt. eigenvalues --   -0.21750  -0.21750  -0.19378  -0.17634  -0.17634
 Alpha virt. eigenvalues --   -0.14271  -0.13745  -0.13745  -0.11552  -0.09137

 Mulliken charges:
               1
     1  C    1.542227
     2  C   -0.544671
     3  C   -0.544676
     4  C    1.542201
     5  C    0.002438
     6  C    0.002481
 Sum of Mulliken charges =   2.00000

 Dipole moment (field-independent basis, Debye):
    X=             -0.0000    Y=             -0.0000    Z=              0.0002  Tot=              0.0002
 Quadrupole moment (field-independent basis, Debye-Ang):
   XX=            -27.4376   YY=            -27.4376   ZZ=             30.3988
   XY=             -0.0000   XZ=              0.0000   YZ=              0.0000

 226.8199962\CCSD(T)=-226.8818778\RMSD=6.065e-09\PG=C*V [C*(C1C1C1C1C1C
 Normal termination of Gaussian 09 at Sun Jun 19 21:43:35 2016.
