 Gaussian 09, Revision E.01,
 Gaussian 09:  EM64L-G09RevE.01 30-Nov-2015

 -----------------------------------------------------
 #p ccsd(t)/6-311+G(3df) scf(MaxCyc=300) guess(Huckel)
 -----------------------------------------------------

 -------------
 ccsd(t) iener
 -------------
 Symbolic Z-matrix:
 Charge =  2 Multiplicity = 3

                         Standard orientation:
 ---------------------------------------------------------------------
 Center     Atomic      Atomic             Coordinates (Angstroms)
 Number     Number       Type             X           Y           Z
 ---------------------------------------------------------------------
      1          6           0       -0.934287   -1.083697    0.000018
      2          6           0       -0.471239    1.350620   -0.000302
      3          6           0        0.388134   -1.111968   -0.000100
      4          6           0        0.769250    0.892188    0.000288
      5          6           0        1.406127   -0.267279   -0.000077
      6          6           0       -1.157985    0.220136    0.000172
 ---------------------------------------------------------------------

 SCF Done:  E(UHF) =  -226.012282086     A.U. after   24 cycles
 E2 =    -0.6683783364D+00 EUMP2 =    -0.22668066042209D+03
 CCSD(T)
 CCSD(T)= -0.22681088267D+03

 The electronic state is 3-A.
 Alpha  occ. eigenvalues --  -11.85927 -11.85903 -11.85898 -11.84518 -11.84510
 Alpha  occ. eigenvalues --  -11.84487  -1.79955  -1.61999  -1.61986  -1.31195
 Alpha  occ. eigenvalues --   -1.31174  -1.21246  -1.15872  -1.11015  -1.02102
 Alpha  occ. eigenvalues --   -1.02082  -0.94199  -0.94196
 Alpha virt. eigenvalues --   -0.48019  -0.35666  -0.35630  -0.33777  -0.33759
 Alpha virt. eigenvalues --   -0.24168  -0.20257  -0.18712  -0.18712  -0.18261
 Alpha virt. eigenvalues --   -0.17877  -0.15589  -0.15586  -0.15171  -0.15171

  Beta  occ. eigenvalues --  -11.88358 -11.88343 -11.88337 -11.79718 -11.79713
  Beta  occ. eigenvalues --  -11.79706  -1.77069  -1.56305  -1.56291  -1.32205
  Beta  occ. eigenvalues --   -1.32184  -1.18379  -1.12264  -0.98035  -0.94138
  Beta  occ. eigenvalues --   -0.94131
  Beta virt. eigenvalues --   -0.50888  -0.50867  -0.38727  -0.33404  -0.33375
  Beta virt. eigenvalues --   -0.31822  -0.31811  -0.23982  -0.20688  -0.18451
  Beta virt. eigenvalues --   -0.18450  -0.17959  -0.15024  -0.15023  -0.14517

 Mulliken charges and spin densities:
               1          2
     1  C    0.387524   1.900350
     2  C    0.386823   1.900007
     3  C    0.279291  -1.233424
     4  C    0.279115  -1.233668
     5  C    0.388916   1.900605
     6  C    0.278332  -1.233870
 Sum of Mulliken charges =   2.00000   2.00000

 Dipole moment (field-independent basis, Debye):
    X=             -0.0013    Y=              0.0002    Z=             -0.0006  Tot=              0.0014
 Quadrupole moment (field-independent basis, Debye-Ang):
   XX=            -12.8123   YY=            -12.8315   ZZ=            -28.6067
   XY=             -0.0007   XZ=             -0.0000   YZ=              0.0003

 CCSD(T)=-226.8108827\S2=3.314045\S2-1=3.060976\S2A=3.513648\RMSD=8.749
 Normal termination of Gaussian 09 at Tue Jun 21 17:37:13 2016.
