 Gaussian 09, Revision E.01,
 Gaussian 09:  EM64L-G09RevE.01 30-Nov-2015

 -----------------------------------------------------
 #p ccsd(t)/6-311+G(3df) scf(MaxCyc=300) guess(Huckel)
 -----------------------------------------------------

 -------------
 ccsd(t) iener
 -------------
 Symbolic Z-matrix:
 Charge =  2 Multiplicity = 3

                         Standard orientation:
 ---------------------------------------------------------------------
 Center     Atomic      Atomic             Coordinates (Angstroms)
 Number     Number       Type             X           Y           Z
 ---------------------------------------------------------------------
      1          6           0       -0.000034   -0.850250    0.000144
      2          6           0       -1.149170    0.000055   -0.000055
      3          6           0        1.149169   -0.000015    0.000004
      4          6           0        0.000030    0.850269    0.000144
      5          6           0        2.603165   -0.000024   -0.000132
      6          6           0       -2.603161   -0.000034   -0.000106
 ---------------------------------------------------------------------

 SCF Done:  E(UHF) =  -225.853016208     A.U. after   39 cycles
 E2 =    -0.7090814352D+00 EUMP2 =    -0.22656209764308D+03
 CCSD(T)
 CCSD(T)= -0.22668002784D+03

 The electronic state is 3-A.
 Alpha  occ. eigenvalues --  -11.90819 -11.90793 -11.89430 -11.89429 -11.75723
 Alpha  occ. eigenvalues --  -11.75720  -1.78677  -1.52324  -1.42111  -1.34859
 Alpha  occ. eigenvalues --   -1.26942  -1.11313  -1.10433  -1.03856  -0.96699
 Alpha  occ. eigenvalues --   -0.94547  -0.81956  -0.81715
 Alpha virt. eigenvalues --   -0.48841  -0.43671  -0.42706  -0.41743  -0.32048
 Alpha virt. eigenvalues --   -0.24029  -0.20416  -0.19882  -0.18341  -0.17140
 Alpha virt. eigenvalues --   -0.15193  -0.14868  -0.14663  -0.13817  -0.13605

  Beta  occ. eigenvalues --  -11.89381 -11.89380 -11.87977 -11.87960 -11.75257
  Beta  occ. eigenvalues --  -11.75252  -1.75155  -1.50562  -1.40712  -1.25894
  Beta  occ. eigenvalues --   -1.20804  -1.06580  -1.02463  -0.96507  -0.94209
  Beta  occ. eigenvalues --   -0.82242
  Beta virt. eigenvalues --   -0.47931  -0.47919  -0.43211  -0.39690  -0.38562
  Beta virt. eigenvalues --   -0.32054  -0.27432  -0.22182  -0.20039  -0.19525
  Beta virt. eigenvalues --   -0.16580  -0.14657  -0.14182  -0.13993  -0.13603

 Mulliken charges and spin densities:
               1          2
     1  C    1.515886   0.405469
     2  C   -0.516545   0.435857
     3  C   -0.516560   0.435862
     4  C    1.516049   0.405422
     5  C    0.000591   0.158694
     6  C    0.000580   0.158695
 Sum of Mulliken charges =   2.00000   2.00000

 Dipole moment (field-independent basis, Debye):
    X=              0.0001    Y=             -0.0000    Z=             -0.0012  Tot=              0.0012
 Quadrupole moment (field-independent basis, Debye-Ang):
   XX=              0.7911   YY=            -22.6156   ZZ=            -28.0737
   XY=             -0.0003   XZ=             -0.0000   YZ=             -0.0000

 \CCSD(T)=-226.6800278\S2=2.01548\S2-1=2.003954\S2A=2.000092\RMSD=2.566
 Normal termination of Gaussian 09 at Wed Jun 22 11:11:12 2016.
