 Gaussian 09, Revision E.01,
 Gaussian 09:  EM64L-G09RevE.01 30-Nov-2015

 ---------------------------------------
 #p ccsd(t)/6-311+G(3df) scf(MaxCyc=300)
 ---------------------------------------

 -------------
 ccsd(t) iener
 -------------
 Symbolic Z-matrix:
 Charge =  1 Multiplicity = 4

                         Standard orientation:
 ---------------------------------------------------------------------
 Center     Atomic      Atomic             Coordinates (Angstroms)
 Number     Number       Type             X           Y           Z
 ---------------------------------------------------------------------
      1          6           0        0.368274    0.008872    0.861108
      2          6           0        0.368331   -0.008692   -0.860993
      3          6           0        0.739620    1.134995   -0.011130
      4          6           0       -1.108940   -0.007873   -0.696572
      5          6           0       -1.108978    0.006564    0.696521
      6          6           0        0.741694   -1.133866    0.011066
 ---------------------------------------------------------------------

 SCF Done:  E(UHF) =  -226.392648121     A.U. after   53 cycles
 E2 =    -0.8249408580D+00 EUMP2 =    -0.22721758897878D+03
 CCSD(T)
 CCSD(T)= -0.22729044769D+03

 The electronic state is 4-A.
 Alpha  occ. eigenvalues --  -11.63567 -11.63561 -11.61365 -11.61282 -11.61270
 Alpha  occ. eigenvalues --  -11.61184  -1.63053  -1.32540  -1.20869  -1.20698
 Alpha  occ. eigenvalues --   -0.95583  -0.92616  -0.88265  -0.83569  -0.81482
 Alpha  occ. eigenvalues --   -0.75574  -0.71112  -0.67506  -0.65054
 Alpha virt. eigenvalues --   -0.20290  -0.18707  -0.17110  -0.15505  -0.07269
 Alpha virt. eigenvalues --   -0.06191  -0.05277  -0.04861  -0.02487  -0.01771
 Alpha virt. eigenvalues --   -0.01376  -0.01062  -0.00878   0.01133   0.02166

  Beta  occ. eigenvalues --  -11.62661 -11.62652 -11.60111 -11.60083 -11.58022
  Beta  occ. eigenvalues --  -11.57925  -1.59511  -1.24596  -1.17722  -1.15282
  Beta  occ. eigenvalues --   -0.89441  -0.82746  -0.82197  -0.72791  -0.63777
  Beta  occ. eigenvalues --   -0.63130
  Beta virt. eigenvalues --   -0.28993  -0.21275  -0.18649  -0.17607  -0.16778
  Beta virt. eigenvalues --   -0.14377  -0.08757  -0.06718  -0.04714  -0.04455
  Beta virt. eigenvalues --   -0.03224  -0.01675  -0.01310  -0.00904  -0.00898

 Mulliken charges and spin densities:
               1          2
     1  C    0.437900  -0.027484
     2  C    0.438449  -0.024874
     3  C   -0.170628   0.349202
     4  C    0.232673   1.176012
     5  C    0.232711   1.177208
     6  C   -0.171104   0.349937
 Sum of Mulliken charges =   1.00000   3.00000

 Dipole moment (field-independent basis, Debye):
    X=             -0.1230    Y=             -0.0029    Z=              0.0007  Tot=              0.1230
 Quadrupole moment (field-independent basis, Debye-Ang):
   XX=            -25.8379   YY=            -30.1909   ZZ=            -27.5263
   XY=              0.0003   XZ=              0.0008   YZ=              0.0307

 \PMP3-0=-227.2142097\MP4SDQ=-227.2191846\CCSD=-227.2218112\CCSD(T)=-22
 Normal termination of Gaussian 09 at Wed Nov  2 23:12:33 2016.
