 Gaussian 09, Revision E.01,
 Gaussian 09:  EM64L-G09RevE.01 30-Nov-2015

 ---------------------------------------
 #p ccsd(t)/6-311+G(3df) scf(MaxCyc=300)
 ---------------------------------------

 -------------
 ccsd(t) iener
 -------------
 Symbolic Z-matrix:
 Charge =  1 Multiplicity = 2

                         Standard orientation:
 ---------------------------------------------------------------------
 Center     Atomic      Atomic             Coordinates (Angstroms)
 Number     Number       Type             X           Y           Z
 ---------------------------------------------------------------------
      1          6           0       -0.189255    1.217723    0.015300
      2          6           0       -1.388902   -0.332755   -0.114709
      3          6           0       -0.144421   -0.645823   -0.663575
      4          6           0        0.998326   -0.721943    0.380574
      5          6           0       -0.168008    0.033030    0.918075
      6          6           0        0.892259    0.449768   -0.535664
 ---------------------------------------------------------------------

 SCF Done:  E(UHF) =  -226.380441196     A.U. after   47 cycles
 E2 =    -0.8680202234D+00 EUMP2 =    -0.22724846141934D+03
 CCSD(T)
 CCSD(T)= -0.22732207469D+03

 The electronic state is 2-A.
 Alpha  occ. eigenvalues --  -11.67401 -11.64747 -11.63937 -11.63024 -11.62555
 Alpha  occ. eigenvalues --  -11.60379  -1.68735  -1.31655  -1.27221  -1.16415
 Alpha  occ. eigenvalues --   -0.93613  -0.91114  -0.87158  -0.78767  -0.76591
 Alpha  occ. eigenvalues --   -0.75246  -0.70737  -0.67705
 Alpha virt. eigenvalues --   -0.26485  -0.19425  -0.17703  -0.12699  -0.07984
 Alpha virt. eigenvalues --   -0.07448  -0.06796  -0.05406  -0.02799  -0.02290
 Alpha virt. eigenvalues --   -0.02143  -0.01828  -0.01329   0.00125   0.01508

  Beta  occ. eigenvalues --  -11.64416 -11.64337 -11.64189 -11.62940 -11.61868
  Beta  occ. eigenvalues --  -11.60418  -1.68059  -1.30460  -1.24654  -1.16159
  Beta  occ. eigenvalues --   -0.90241  -0.87548  -0.80129  -0.76935  -0.75323
  Beta  occ. eigenvalues --   -0.69601  -0.67354
  Beta virt. eigenvalues --   -0.26365  -0.23269  -0.18312  -0.16980  -0.12591
  Beta virt. eigenvalues --   -0.07349  -0.07090  -0.06380  -0.04649  -0.02675
  Beta virt. eigenvalues --   -0.02137  -0.02016  -0.01660  -0.01264   0.00163

 Mulliken charges and spin densities:
               1          2
     1  C   -0.176721   0.157363
     2  C   -0.563778  -0.050295
     3  C    0.777735  -0.041968
     4  C   -0.263788   0.841682
     5  C    0.765147  -0.060500
     6  C    0.461404   0.153718
 Sum of Mulliken charges =   1.00000   1.00000

 Dipole moment (field-independent basis, Debye):
    X=              2.2659    Y=             -0.4341    Z=              0.1759  Tot=              2.3138
 Quadrupole moment (field-independent basis, Debye-Ang):
   XX=            -29.8337   YY=            -27.3880   ZZ=            -27.8295
   XY=              0.4056   XZ=             -0.2176   YZ=              0.3832

 P3-0=-227.2355279\MP4SDQ=-227.2389854\CCSD=-227.2474591\CCSD(T)=-227.3
 Normal termination of Gaussian 09 at Thu Nov  3 17:40:39 2016.
