 Gaussian 09, Revision E.01,
 Gaussian 09:  EM64L-G09RevE.01 30-Nov-2015

 -----------------------------------------------------
 #p ccsd(t)/6-311+G(3df) scf(MaxCyc=300) guess(Huckel)
 -----------------------------------------------------

 -------------
 ccsd(t) iener
 -------------
 Symbolic Z-matrix:
 Charge =  2 Multiplicity = 1

                         Standard orientation:
 ---------------------------------------------------------------------
 Center     Atomic      Atomic             Coordinates (Angstroms)
 Number     Number       Type             X           Y           Z
 ---------------------------------------------------------------------
      1          6           0       -1.131924    0.562251   -0.002221
      2          6           0       -0.554841   -0.398261    1.025206
      3          6           0        1.492004    0.231877   -0.000224
      4          6           0        0.468125   -0.842245    0.004489
      5          6           0       -0.552822   -0.407345   -1.023235
      6          6           0        0.279458    0.853723   -0.004015
 ---------------------------------------------------------------------

 SCF Done:  E(RHF) =  -225.731182456     A.U. after   22 cycles
 E2 =    -0.9258089618D+00 EUMP2 =    -0.22665699141819D+03
 CCSD(T)
 CCSD(T)= -0.22671978513D+03

 The electronic state is 1-A.
 Alpha  occ. eigenvalues --  -11.97531 -11.95676 -11.95665 -11.93173 -11.93037
 Alpha  occ. eigenvalues --  -11.88563  -1.95215  -1.63460  -1.48330  -1.44978
 Alpha  occ. eigenvalues --   -1.20183  -1.18132  -1.12766  -1.07227  -0.97301
 Alpha  occ. eigenvalues --   -0.96608  -0.90743
 Alpha virt. eigenvalues --   -0.56812  -0.54181  -0.46280  -0.43788  -0.38702
 Alpha virt. eigenvalues --   -0.34127  -0.24318  -0.23636  -0.22871  -0.20025
 Alpha virt. eigenvalues --   -0.18127  -0.17222  -0.16989  -0.16641  -0.16356

 Mulliken charges:
               1
     1  C    0.467043
     2  C    0.238405
     3  C   -0.270488
     4  C    0.740276
     5  C    0.238757
     6  C    0.586007
 Sum of Mulliken charges =   2.00000

 Dipole moment (field-independent basis, Debye):
    X=             -0.5411    Y=             -0.5805    Z=              0.0099  Tot=              0.7936
 Quadrupole moment (field-independent basis, Debye-Ang):
   XX=            -22.2116   YY=            -20.8650   ZZ=            -23.9968
   XY=             -0.2826   XZ=             -0.0047   YZ=             -0.0175

 267097\CCSD(T)=-226.7197851\RMSD=6.634e-09\PG=C01 [X(C6)]\\@
 Normal termination of Gaussian 09 at Mon Jun 20 17:48:22 2016.
