 Gaussian 09, Revision E.01,
 Gaussian 09:  EM64L-G09RevE.01 30-Nov-2015

 ---------------------------------------
 #p ccsd(t)/6-311+G(3df) scf(MaxCyc=300)
 ---------------------------------------

 -------------
 ccsd(t) iener
 -------------
 Symbolic Z-matrix:
 Charge =  1 Multiplicity = 2

                         Standard orientation:
 ---------------------------------------------------------------------
 Center     Atomic      Atomic             Coordinates (Angstroms)
 Number     Number       Type             X           Y           Z
 ---------------------------------------------------------------------
      1          6           0       -2.265136   -0.000003    0.000029
      2          6           0        1.485156   -0.000003    0.000000
      3          6           0       -1.024289    0.779716   -0.000020
      4          6           0        0.129921    0.000000   -0.000000
      5          6           0       -1.024287   -0.779712   -0.000020
      6          6           0        2.698634    0.000002    0.000010
 ---------------------------------------------------------------------

 SCF Done:  E(UHF) =  -226.448737835     A.U. after   54 cycles
 E2 =    -0.8263342000D+00 EUMP2 =    -0.22727507203501D+03
 CCSD(T)
 CCSD(T)= -0.22735659965D+03

 The electronic state is 2-A.
 Alpha  occ. eigenvalues --  -11.69803 -11.69727 -11.67152 -11.64528 -11.49452
 Alpha  occ. eigenvalues --  -11.46776  -1.62107  -1.33203  -1.24673  -1.11083
 Alpha  occ. eigenvalues --   -1.08593  -0.88562  -0.86757  -0.83508  -0.78869
 Alpha  occ. eigenvalues --   -0.64956  -0.63906  -0.63370
 Alpha virt. eigenvalues --   -0.27352  -0.23830  -0.21394  -0.08721  -0.08460
 Alpha virt. eigenvalues --   -0.07016  -0.05794  -0.05303  -0.03241  -0.01932
 Alpha virt. eigenvalues --   -0.01399  -0.01083  -0.00213   0.00455   0.01551

  Beta  occ. eigenvalues --  -11.68022 -11.67964 -11.65594 -11.64486 -11.49573
  Beta  occ. eigenvalues --  -11.46699  -1.61723  -1.33142  -1.24203  -1.07763
  Beta  occ. eigenvalues --   -1.03452  -0.88115  -0.86034  -0.69673  -0.65109
  Beta  occ. eigenvalues --   -0.64141  -0.62930
  Beta virt. eigenvalues --   -0.34144  -0.26956  -0.20600  -0.13894  -0.07817
  Beta virt. eigenvalues --   -0.07289  -0.06631  -0.05658  -0.04936  -0.03161
  Beta virt. eigenvalues --   -0.01851  -0.00820  -0.00682   0.00056   0.00757

 Mulliken charges and spin densities:
               1          2
     1  C   -0.877199   0.045858
     2  C    0.454668   0.127963
     3  C    1.122983   0.590750
     4  C   -0.554192  -0.269003
     5  C    1.122995   0.590738
     6  C   -0.269256  -0.086305
 Sum of Mulliken charges =   1.00000   1.00000

 Dipole moment (field-independent basis, Debye):
    X=             -4.8156    Y=              0.0000    Z=             -0.0001  Tot=              4.8156
 Quadrupole moment (field-independent basis, Debye-Ang):
   XX=            -28.1418   YY=            -28.1193   ZZ=            -29.6491
   XY=             -0.0000   XZ=             -0.0002   YZ=             -0.0000

 227.2801978\MP4SDQ=-227.2840615\CCSD=-227.2893975\CCSD(T)=-227.3565996
 Normal termination of Gaussian 09 at Thu Nov  3 17:35:15 2016.
