 Gaussian 09, Revision E.01,
 Gaussian 09:  EM64L-G09RevE.01 30-Nov-2015

 -----------------------------------------------------
 #p ccsd(t)/6-311+G(3df) scf(MaxCyc=300) guess(Huckel)
 -----------------------------------------------------

 -------------
 ccsd(t) iener
 -------------
 Symbolic Z-matrix:
 Charge =  2 Multiplicity = 1

                         Standard orientation:
 ---------------------------------------------------------------------
 Center     Atomic      Atomic             Coordinates (Angstroms)
 Number     Number       Type             X           Y           Z
 ---------------------------------------------------------------------
      1          6           0        2.302862   -0.027303    0.004332
      2          6           0       -1.400138    0.593479    0.296442
      3          6           0        0.889156    0.001685    0.000656
      4          6           0       -0.165962    0.957483   -0.196508
      5          6           0       -1.445206   -0.613357   -0.279106
      6          6           0       -0.180713   -0.911987    0.174184
 ---------------------------------------------------------------------

 SCF Done:  E(RHF) =  -225.848432903     A.U. after   23 cycles
 E2 =    -0.8116539330D+00 EUMP2 =    -0.22666008683636D+03
 CCSD(T)
 CCSD(T)= -0.22675027118D+03

 The electronic state is 1-A.
 Alpha  occ. eigenvalues --  -11.93385 -11.91115 -11.89961 -11.85891 -11.85601
 Alpha  occ. eigenvalues --  -11.82674  -1.82273  -1.59649  -1.44454  -1.41651
 Alpha  occ. eigenvalues --   -1.19907  -1.18516  -1.09220  -1.01213  -0.96363
 Alpha  occ. eigenvalues --   -0.90525  -0.87184
 Alpha virt. eigenvalues --   -0.52787  -0.48715  -0.42996  -0.42065  -0.39722
 Alpha virt. eigenvalues --   -0.34135  -0.24665  -0.22113  -0.19821  -0.18929
 Alpha virt. eigenvalues --   -0.17792  -0.16887  -0.15222  -0.14953  -0.14691

 Mulliken charges:
               1
     1  C    0.180892
     2  C    0.203743
     3  C    0.480261
     4  C    0.422343
     5  C    0.167899
     6  C    0.544862
 Sum of Mulliken charges =   2.00000

 Dipole moment (field-independent basis, Debye):
    X=              1.1058    Y=             -0.0848    Z=              0.1785  Tot=              1.1233
 Quadrupole moment (field-independent basis, Debye-Ang):
   XX=             -6.7645   YY=            -20.5224   ZZ=            -29.0492
   XY=             -0.0897   XZ=             -0.2242   YZ=             -0.1323

 6.6810113\CCSD(T)=-226.7502712\RMSD=5.376e-09\PG=C01 [X(C6)]\\@
 Normal termination of Gaussian 09 at Mon Jun 20 05:51:51 2016.
