 Gaussian 09, Revision E.01,
 Gaussian 09:  EM64L-G09RevE.01 30-Nov-2015

 ---------------------------------------
 #p ccsd(t)/6-311+G(3df) scf(MaxCyc=300)
 ---------------------------------------

 -------------
 ccsd(t) iener
 -------------
 Symbolic Z-matrix:
 Charge =  1 Multiplicity = 2

                         Standard orientation:
 ---------------------------------------------------------------------
 Center     Atomic      Atomic             Coordinates (Angstroms)
 Number     Number       Type             X           Y           Z
 ---------------------------------------------------------------------
      1          6           0        0.000000    0.000000    3.240976
      2          6           0        0.000000    0.000000    1.906848
      3          6           0        0.000000    0.000000    0.651727
      4          6           0        0.000000    0.000000   -0.651727
      5          6           0        0.000000    0.000000   -1.906848
      6          6           0        0.000000    0.000000   -3.240976
 ---------------------------------------------------------------------

 SCF Done:  E(UHF) =  -226.576290620     A.U. after   24 cycles
 E2 =    -0.7692710812D+00 EUMP2 =    -0.22734556170157D+03
 CCSD(T)
 CCSD(T)= -0.22744125050D+03

 Unable to determine electronic state:  an orbital has unidentified symmetry.
 Alpha  occ. eigenvalues --  -11.59373 -11.59371 -11.59369 -11.59167 -11.53194
 Alpha  occ. eigenvalues --  -11.53194  -1.40072  -1.34139  -1.27670  -1.17436
 Alpha  occ. eigenvalues --   -1.09177  -0.79756  -0.76909  -0.72801  -0.72670
 Alpha  occ. eigenvalues --   -0.71133  -0.65843  -0.61560
 Alpha virt. eigenvalues --   -0.30396  -0.22888  -0.16762  -0.08789  -0.04579
 Alpha virt. eigenvalues --   -0.04573  -0.04179  -0.03743  -0.01282  -0.00910
 Alpha virt. eigenvalues --   -0.00907  -0.00514   0.00570   0.03802   0.03819

  Beta  occ. eigenvalues --  -11.59311 -11.59131 -11.58240 -11.58240 -11.53416
  Beta  occ. eigenvalues --  -11.53415  -1.39835  -1.33513  -1.22802  -1.15071
  Beta  occ. eigenvalues --   -1.08384  -0.77774  -0.77631  -0.70419  -0.70314
  Beta  occ. eigenvalues --   -0.65992  -0.65926
  Beta virt. eigenvalues --   -0.28760  -0.26028  -0.15868  -0.13506  -0.08743
  Beta virt. eigenvalues --   -0.04585  -0.04379  -0.04368  -0.01129  -0.00735
  Beta virt. eigenvalues --   -0.00351   0.00094   0.00156   0.00598   0.04046

 Mulliken charges and spin densities:
               1          2
     1  C   -0.422226   0.496985
     2  C    1.308427   0.057487
     3  C   -0.386201  -0.054472
     4  C   -0.386201  -0.054472
     5  C    1.308427   0.057487
     6  C   -0.422226   0.496985
 Sum of Mulliken charges =   1.00000   1.00000

 Dipole moment (field-independent basis, Debye):
    X=              0.0000    Y=             -0.0000    Z=             -0.0000  Tot=              0.0000
 Quadrupole moment (field-independent basis, Debye-Ang):
   XX=            -29.4393   YY=            -31.1669   ZZ=            -14.8800
   XY=             -0.0000   XZ=              0.0000   YZ=              0.0000

 4\MP4SDQ=-227.377847\CCSD=-227.3816509\CCSD(T)=-227.4412505\S2=1.04312
 Normal termination of Gaussian 09 at Wed Nov  2 01:11:43 2016.
