 Gaussian 09, Revision E.01,
 Gaussian 09:  EM64L-G09RevE.01 30-Nov-2015

 ---------------------------------------
 #p ccsd(t)/6-311+G(3df) scf(MaxCyc=300)
 ---------------------------------------

 -------------
 ccsd(t) iener
 -------------
 Symbolic Z-matrix:
 Charge =  1 Multiplicity = 4

                         Standard orientation:
 ---------------------------------------------------------------------
 Center     Atomic      Atomic             Coordinates (Angstroms)
 Number     Number       Type             X           Y           Z
 ---------------------------------------------------------------------
      1          6           0        0.702936    1.022394   -0.000530
      2          6           0       -0.703225    1.022077   -0.000400
      3          6           0       -1.142888   -0.400659    0.000272
      4          6           0       -0.000099   -0.622485   -0.898916
      5          6           0        0.000275   -0.620866    0.899516
      6          6           0        1.143000   -0.400460    0.000058
 ---------------------------------------------------------------------

 SCF Done:  E(UHF) =  -226.419663381     A.U. after   32 cycles
 E2 =    -0.8111644777D+00 EUMP2 =    -0.22723082785823D+03
 CCSD(T)
 CCSD(T)= -0.22730502594D+03

 The electronic state is 4-A.
 Alpha  occ. eigenvalues --  -11.63246 -11.63242 -11.62637 -11.62504 -11.61760
 Alpha  occ. eigenvalues --  -11.61737  -1.64603  -1.33000  -1.29907  -1.09447
 Alpha  occ. eigenvalues --   -0.98892  -0.97350  -0.91478  -0.85851  -0.77277
 Alpha  occ. eigenvalues --   -0.75430  -0.69251  -0.69138  -0.66168
 Alpha virt. eigenvalues --   -0.21657  -0.15559  -0.15295  -0.10284  -0.07346
 Alpha virt. eigenvalues --   -0.06169  -0.06136  -0.04369  -0.02692  -0.01976
 Alpha virt. eigenvalues --   -0.01219  -0.00736  -0.00626   0.02112   0.02532

  Beta  occ. eigenvalues --  -11.62698 -11.62669 -11.59699 -11.59697 -11.59490
  Beta  occ. eigenvalues --  -11.59399  -1.61764  -1.25109  -1.22203  -1.11424
  Beta  occ. eigenvalues --   -0.91297  -0.86276  -0.83667  -0.74224  -0.66905
  Beta  occ. eigenvalues --   -0.65061
  Beta virt. eigenvalues --   -0.22022  -0.20519  -0.19446  -0.16469  -0.14952
  Beta virt. eigenvalues --   -0.13922  -0.07884  -0.06866  -0.05703  -0.04157
  Beta virt. eigenvalues --   -0.03181  -0.01879  -0.01461  -0.00771  -0.00645

 Mulliken charges and spin densities:
               1          2
     1  C    0.162191   1.002685
     2  C    0.162501   1.002525
     3  C    0.355687   0.885121
     4  C   -0.018001  -0.388209
     5  C   -0.017871  -0.387438
     6  C    0.355494   0.885317
 Sum of Mulliken charges =   1.00000   3.00000

 Dipole moment (field-independent basis, Debye):
    X=              0.0002    Y=              0.0190    Z=             -0.0007  Tot=              0.0190
 Quadrupole moment (field-independent basis, Debye-Ang):
   XX=            -26.3751   YY=            -26.7991   ZZ=            -30.4149
   XY=             -0.0002   XZ=              0.0004   YZ=              0.0008

 6\PMP3-0=-227.2332425\MP4SDQ=-227.2331767\CCSD=-227.2388628\CCSD(T)=-2
 Normal termination of Gaussian 09 at Wed Nov  2 23:06:05 2016.
