 Gaussian 09, Revision E.01,
 Gaussian 09:  EM64L-G09RevE.01 30-Nov-2015

 -----------------------------------------------------
 #p ccsd(t)/6-311+G(3df) scf(MaxCyc=300) guess(Huckel)
 -----------------------------------------------------

 -------------
 ccsd(t) iener
 -------------
 Symbolic Z-matrix:
 Charge =  2 Multiplicity = 1

                         Standard orientation:
 ---------------------------------------------------------------------
 Center     Atomic      Atomic             Coordinates (Angstroms)
 Number     Number       Type             X           Y           Z
 ---------------------------------------------------------------------
      1          6           0        0.677925    0.952882    0.000014
      2          6           0        1.551093   -0.000119   -0.000013
      3          6           0        0.677718   -0.952900    0.000015
      4          6           0       -0.677751    0.952956   -0.000015
      5          6           0       -1.551026    0.000119    0.000014
      6          6           0       -0.677958   -0.952938   -0.000016
 ---------------------------------------------------------------------

 SCF Done:  E(RHF) =  -225.908609649     A.U. after   15 cycles
 E2 =    -0.8688563942D+00 EUMP2 =    -0.22677746604282D+03
 CCSD(T)
 CCSD(T)= -0.22683454132D+03

 The electronic state is 1-A.
 Alpha  occ. eigenvalues --  -11.89608 -11.89589 -11.89470 -11.89450 -11.83922
 Alpha  occ. eigenvalues --  -11.83919  -1.80875  -1.65609  -1.52037  -1.38760
 Alpha  occ. eigenvalues --   -1.29910  -1.21969  -1.12540  -1.05053  -0.92961
 Alpha  occ. eigenvalues --   -0.91133  -0.90443
 Alpha virt. eigenvalues --   -0.49681  -0.49034  -0.47007  -0.37623  -0.36444
 Alpha virt. eigenvalues --   -0.35500  -0.24179  -0.20411  -0.19046  -0.18629
 Alpha virt. eigenvalues --   -0.18366  -0.16325  -0.15784  -0.15508  -0.14811

 Mulliken charges:
               1
     1  C    0.444795
     2  C    0.110270
     3  C    0.445085
     4  C    0.445165
     5  C    0.109809
     6  C    0.444876
 Sum of Mulliken charges =   2.00000

 Dipole moment (field-independent basis, Debye):
    X=             -0.0004    Y=              0.0000    Z=              0.0000  Tot=              0.0004
 Quadrupole moment (field-independent basis, Debye-Ang):
   XX=            -13.6347   YY=            -12.8722   ZZ=            -29.1685
   XY=              0.0010   XZ=              0.0001   YZ=             -0.0000

 7627372\CCSD(T)=-226.8345413\RMSD=4.946e-09\PG=C01 [X(C6)]\\@
 Normal termination of Gaussian 09 at Mon Jun 20 15:27:07 2016.
