 Gaussian 09, Revision E.01,
 Gaussian 09:  EM64L-G09RevE.01 30-Nov-2015

 ---------------------------------------
 #p ccsd(t)/6-311+G(3df) scf(MaxCyc=300)
 ---------------------------------------

 -------------
 ccsd(t) iener
 -------------
 Symbolic Z-matrix:
 Charge =  1 Multiplicity = 4

                         Standard orientation:
 ---------------------------------------------------------------------
 Center     Atomic      Atomic             Coordinates (Angstroms)
 Number     Number       Type             X           Y           Z
 ---------------------------------------------------------------------
      1          6           0       -0.694264    0.933848    0.241556
      2          6           0       -1.067617   -0.462737   -0.421318
      3          6           0        0.338152   -0.475323   -0.839747
      4          6           0        1.070416   -0.458210    0.422156
      5          6           0       -0.336221   -0.474443    0.840277
      6          6           0        0.689534    0.936865   -0.242924
 ---------------------------------------------------------------------

 SCF Done:  E(UHF) =  -226.404425444     A.U. after   34 cycles
 E2 =    -0.8185731449D+00 EUMP2 =    -0.22722299858903D+03
 CCSD(T)
 CCSD(T)= -0.22730250412D+03

 The electronic state is 4-A.
 Alpha  occ. eigenvalues --  -11.62456 -11.62416 -11.61513 -11.61422 -11.61261
 Alpha  occ. eigenvalues --  -11.61233  -1.66821  -1.32868  -1.24825  -1.15827
 Alpha  occ. eigenvalues --   -0.95159  -0.91438  -0.90210  -0.84372  -0.76786
 Alpha  occ. eigenvalues --   -0.74844  -0.74814  -0.68938  -0.63560
 Alpha virt. eigenvalues --   -0.22050  -0.19602  -0.08655  -0.07955  -0.07002
 Alpha virt. eigenvalues --   -0.06523  -0.05935  -0.02824  -0.02490  -0.02121
 Alpha virt. eigenvalues --   -0.01731  -0.00962   0.00486   0.00812   0.02743

  Beta  occ. eigenvalues --  -11.62257 -11.62228 -11.59148 -11.59111 -11.58596
  Beta  occ. eigenvalues --  -11.58529  -1.63473  -1.26496  -1.18320  -1.14019
  Beta  occ. eigenvalues --   -0.89137  -0.77762  -0.77209  -0.74949  -0.73714
  Beta  occ. eigenvalues --   -0.70072
  Beta virt. eigenvalues --   -0.24072  -0.21245  -0.19027  -0.15952  -0.14378
  Beta virt. eigenvalues --   -0.06921  -0.06766  -0.05852  -0.05061  -0.04118
  Beta virt. eigenvalues --   -0.02263  -0.02258  -0.01868  -0.01106  -0.00801

 Mulliken charges and spin densities:
               1          2
     1  C    0.103536   0.850331
     2  C   -0.179153   0.947039
     3  C    0.576307  -0.295207
     4  C   -0.179807   0.946533
     5  C    0.576969  -0.298843
     6  C    0.102148   0.850147
 Sum of Mulliken charges =   1.00000   3.00000

 Dipole moment (field-independent basis, Debye):
    X=              0.0032    Y=             -0.4271    Z=             -0.0007  Tot=              0.4271
 Quadrupole moment (field-independent basis, Debye-Ang):
   XX=            -27.0757   YY=            -27.2999   ZZ=            -27.4126
   XY=             -0.0075   XZ=             -0.6690   YZ=              0.0009

 =-227.2232524\MP4SDQ=-227.2265551\CCSD=-227.2354684\CCSD(T)=-227.30250
 Normal termination of Gaussian 09 at Thu Nov  3 17:00:00 2016.
