 Gaussian 09, Revision E.01,
 Gaussian 09:  EM64L-G09RevE.01 30-Nov-2015

 -----------------------------------------------------
 #p ccsd(t)/6-311+G(3df) scf(MaxCyc=300) guess(Huckel)
 -----------------------------------------------------

 -------------
 ccsd(t) iener
 -------------
 Symbolic Z-matrix:
 Charge =  2 Multiplicity = 1

                         Standard orientation:
 ---------------------------------------------------------------------
 Center     Atomic      Atomic             Coordinates (Angstroms)
 Number     Number       Type             X           Y           Z
 ---------------------------------------------------------------------
      1          6           0        0.729969   -0.717835    0.000367
      2          6           0        0.730174    0.717952    0.000309
      3          6           0       -0.730006    0.717785    0.000444
      4          6           0       -0.730107   -0.717869    0.000387
      5          6           0       -1.915707    0.000079   -0.000783
      6          6           0        1.915677   -0.000112   -0.000724
 ---------------------------------------------------------------------

 SCF Done:  E(RHF) =  -225.846184475     A.U. after   16 cycles
 E2 =    -0.8681037624D+00 EUMP2 =    -0.22671428823753D+03
 CCSD(T)
 CCSD(T)= -0.22677150913D+03

 The electronic state is 1-A.
 Alpha  occ. eigenvalues --  -11.95069 -11.94974 -11.94960 -11.94884 -11.86405
 Alpha  occ. eigenvalues --  -11.86404  -1.91977  -1.76605  -1.50009  -1.43349
 Alpha  occ. eigenvalues --   -1.18899  -1.14997  -1.12177  -1.12056  -1.03112
 Alpha  occ. eigenvalues --   -0.97625  -0.85856
 Alpha virt. eigenvalues --   -0.55740  -0.53498  -0.40327  -0.32290  -0.32169
 Alpha virt. eigenvalues --   -0.31994  -0.31529  -0.26861  -0.24932  -0.22422
 Alpha virt. eigenvalues --   -0.19653  -0.18578  -0.17190  -0.16491  -0.15722

 Mulliken charges:
               1
     1  C    0.442157
     2  C    0.440946
     3  C    0.442067
     4  C    0.441032
     5  C    0.116924
     6  C    0.116873
 Sum of Mulliken charges =   2.00000

 Dipole moment (field-independent basis, Debye):
    X=              0.0004    Y=              0.0002    Z=              0.0024  Tot=              0.0024
 Quadrupole moment (field-independent basis, Debye-Ang):
   XX=            -18.6800   YY=            -20.1819   ZZ=            -26.6165
   XY=              0.0013   XZ=              0.0001   YZ=             -0.0000

 -226.6973871\CCSD(T)=-226.7715091\RMSD=5.673e-09\PG=C01 [X(C6)]\\@
 Normal termination of Gaussian 09 at Mon Jun 20 17:55:15 2016.
