 Gaussian 09, Revision E.01,
 Gaussian 09:  EM64L-G09RevE.01 30-Nov-2015

 ---------------------------------------
 #p ccsd(t)/6-311+G(3df) scf(MaxCyc=300)
 ---------------------------------------

 -------------
 ccsd(t) iener
 -------------
 Symbolic Z-matrix:
 Charge =  1 Multiplicity = 2

                         Standard orientation:
 ---------------------------------------------------------------------
 Center     Atomic      Atomic             Coordinates (Angstroms)
 Number     Number       Type             X           Y           Z
 ---------------------------------------------------------------------
      1          6           0       -2.064255   -0.092809    0.000000
      2          6           0       -3.367394   -0.331097   -0.000002
      3          6           0        2.466028   -1.291126    0.000003
      4          6           0        1.571538    1.300818    0.000000
      5          6           0        0.467937    0.418666    0.000002
      6          6           0       -0.835602    0.136644    0.000003
      7          6           0        1.761749   -0.141096   -0.000007
 ---------------------------------------------------------------------

 SCF Done:  E(UHF) =  -264.365095948     A.U. after   52 cycles
 E2 =    -0.8761511787D+00 EUMP2 =    -0.26524124712704D+03
 CCSD(T)
 CCSD(T)= -0.26537203726D+03

 The electronic state is 2-A.
 Alpha  occ. eigenvalues --  -11.62785 -11.60246 -11.56950 -11.55415 -11.54730
 Alpha  occ. eigenvalues --  -11.53051 -11.52320  -1.46477  -1.38674  -1.26756
 Alpha  occ. eigenvalues --   -1.22284  -1.13004  -0.88472  -0.80388  -0.78739
 Alpha  occ. eigenvalues --   -0.75334  -0.73687  -0.73402  -0.69181  -0.61599
 Alpha  occ. eigenvalues --   -0.60648
 Alpha virt. eigenvalues --   -0.25998  -0.24929  -0.16333  -0.10335  -0.08730
 Alpha virt. eigenvalues --   -0.05157  -0.05106  -0.04012  -0.02295  -0.01900
 Alpha virt. eigenvalues --   -0.00334   0.00022   0.00095   0.00534   0.01979

  Beta  occ. eigenvalues --  -11.62174 -11.61883 -11.55682 -11.54252 -11.53605
  Beta  occ. eigenvalues --  -11.53468 -11.52628  -1.47027  -1.38595  -1.22719
  Beta  occ. eigenvalues --   -1.18277  -1.12039  -0.89600  -0.79414  -0.79373
  Beta  occ. eigenvalues --   -0.73328  -0.73055  -0.68197  -0.67480  -0.60057
  Beta virt. eigenvalues --   -0.25801  -0.24483  -0.18407  -0.15284  -0.08612
  Beta virt. eigenvalues --   -0.07096  -0.04785  -0.04718  -0.03662  -0.01774
  Beta virt. eigenvalues --   -0.00310  -0.00149   0.00029   0.00767   0.01417

 Mulliken charges and spin densities:
               1          2
     1  C    1.597172   0.613040
     2  C   -0.321119   0.263703
     3  C   -0.608551   0.450163
     4  C   -0.384684  -0.123636
     5  C    0.498805   0.406648
     6  C   -0.296281  -0.603955
     7  C    0.514658  -0.005963
 Sum of Mulliken charges =   1.00000   1.00000

 Dipole moment (field-independent basis, Debye):
    X=             -3.1700    Y=             -1.1247    Z=             -0.0000  Tot=              3.3636
 Quadrupole moment (field-independent basis, Debye-Ang):
   XX=            -18.6398   YY=            -39.3365   ZZ=            -35.3446
   XY=             -1.3202   XZ=             -0.0001   YZ=             -0.0000

 3\CCSD=-265.3032023\CCSD(T)=-265.3720373\S2=1.354966\S2-1=1.233729\S2A
 Normal termination of Gaussian 09 at Sun Nov  6 03:26:13 2016.
