 Gaussian 09, Revision E.01,
 Gaussian 09:  EM64L-G09RevE.01 30-Nov-2015

 -----------------------------------------------------
 #p ccsd(t)/6-311+G(3df) scf(MaxCyc=300) guess(Huckel)
 -----------------------------------------------------

 -------------
 ccsd(t) iener
 -------------
 Symbolic Z-matrix:
 Charge =  2 Multiplicity = 1

                         Standard orientation:
 ---------------------------------------------------------------------
 Center     Atomic      Atomic             Coordinates (Angstroms)
 Number     Number       Type             X           Y           Z
 ---------------------------------------------------------------------
      1          6           0       -1.680098   -0.084945   -0.398776
      2          6           0        0.857144   -0.531476   -0.757388
      3          6           0        0.349339   -0.667232    1.119147
      4          6           0        0.406468    0.687974    0.474563
      5          6           0       -1.005942    0.880039    0.077484
      6          6           0        1.554395    0.498448   -0.380504
      7          6           0       -0.481306   -0.782808   -0.134527
 ---------------------------------------------------------------------

 SCF Done:  E(RHF) =  -263.604577883     A.U. after   24 cycles
 E2 =    -0.1028423689D+01 EUMP2 =    -0.26463300157215D+03
 CCSD(T)
 CCSD(T)= -0.26471790739D+03

 The electronic state is 1-A.
 Alpha  occ. eigenvalues --  -11.94127 -11.93779 -11.87933 -11.87459 -11.85436
 Alpha  occ. eigenvalues --  -11.83008 -11.82717  -1.89435  -1.68501  -1.50665
 Alpha  occ. eigenvalues --   -1.46126  -1.29992  -1.22728  -1.16931  -1.08709
 Alpha  occ. eigenvalues --   -1.06197  -0.96479  -0.93864  -0.91236  -0.86607
 Alpha virt. eigenvalues --   -0.53691  -0.49830  -0.41217  -0.39084  -0.37261
 Alpha virt. eigenvalues --   -0.32204  -0.31149  -0.21995  -0.19563  -0.18692
 Alpha virt. eigenvalues --   -0.18384  -0.17743  -0.16560  -0.16135  -0.15933

 Mulliken charges:
               1
     1  C   -0.088105
     2  C    0.609990
     3  C    0.190956
     4  C    0.295139
     5  C    0.586686
     6  C    0.024087
     7  C    0.381247
 Sum of Mulliken charges =   2.00000

 Dipole moment (field-independent basis, Debye):
    X=             -0.8375    Y=              0.6281    Z=             -0.4951  Tot=              1.1580
 Quadrupole moment (field-independent basis, Debye-Ang):
   XX=            -22.0628   YY=            -24.3023   ZZ=            -30.1199
   XY=             -0.9222   XZ=             -2.1236   YZ=              3.4148

 68575\MP4SDQ=-264.6250355\CCSD=-264.6255632\CCSD(T)=-264.7179074\RMSD=
 Normal termination of Gaussian 09 at Sat Jun 25 03:43:11 2016.
