 Gaussian 09, Revision E.01,
 Gaussian 09:  EM64L-G09RevE.01 30-Nov-2015

 ---------------------------------------
 #p ccsd(t)/6-311+G(3df) scf(MaxCyc=300)
 ---------------------------------------

 -------------
 ccsd(t) iener
 -------------
 Symbolic Z-matrix:
 Charge =  1 Multiplicity = 4

                         Standard orientation:
 ---------------------------------------------------------------------
 Center     Atomic      Atomic             Coordinates (Angstroms)
 Number     Number       Type             X           Y           Z
 ---------------------------------------------------------------------
      1          6           0        0.000000    0.000000    3.904161
      2          6           0        0.000000    0.000000    2.556704
      3          6           0        0.000000    0.000000    1.285356
      4          6           0       -0.000000   -0.000000    0.000000
      5          6           0        0.000000    0.000000   -1.285356
      6          6           0        0.000000    0.000000   -2.556704
      7          6           0        0.000000    0.000000   -3.904161
 ---------------------------------------------------------------------

 SCF Done:  E(UHF) =  -264.421143182     A.U. after   24 cycles
 E2 =    -0.8502637071D+00 EUMP2 =    -0.26527140688944D+03
 CCSD(T)
 CCSD(T)= -0.26539593765D+03

 Unable to determine electronic state:  an orbital has unidentified symmetry.
 Alpha  occ. eigenvalues --  -11.59438 -11.55961 -11.55961 -11.55335 -11.55335
 Alpha  occ. eigenvalues --  -11.51624 -11.51619  -1.39859  -1.35690  -1.32081
 Alpha  occ. eigenvalues --   -1.21064  -1.12915  -1.05983  -0.81617  -0.79481
 Alpha  occ. eigenvalues --   -0.74649  -0.72421  -0.70935  -0.70877  -0.67226
 Alpha  occ. eigenvalues --   -0.66311  -0.51676
 Alpha virt. eigenvalues --   -0.21063  -0.18859  -0.12674  -0.08166  -0.04724
 Alpha virt. eigenvalues --   -0.03952  -0.03669  -0.02068  -0.01885  -0.01135
 Alpha virt. eigenvalues --    0.00128   0.00603   0.02392   0.02938   0.02978

  Beta  occ. eigenvalues --  -11.57076 -11.54402 -11.54402 -11.53968 -11.53967
  Beta  occ. eigenvalues --  -11.52718 -11.52711  -1.36192  -1.32046  -1.21356
  Beta  occ. eigenvalues --   -1.15589  -1.09081  -1.04084  -0.74969  -0.72639
  Beta  occ. eigenvalues --   -0.67125  -0.67097  -0.66532  -0.64830
  Beta virt. eigenvalues --   -0.26892  -0.26190  -0.18246  -0.16143  -0.08066
  Beta virt. eigenvalues --   -0.06501  -0.05609  -0.04370  -0.02729  -0.02219
  Beta virt. eigenvalues --   -0.00670  -0.00375  -0.00321   0.00686   0.03304

 Mulliken charges and spin densities:
               1          2
     1  C   -0.498141   0.659756
     2  C    1.208034   0.672960
     3  C   -0.104208  -0.013143
     4  C   -0.211370   0.360854
     5  C   -0.104208  -0.013143
     6  C    1.208034   0.672960
     7  C   -0.498141   0.659756
 Sum of Mulliken charges =   1.00000   3.00000

 Dipole moment (field-independent basis, Debye):
    X=              0.0000    Y=             -0.0000    Z=              0.0000  Tot=              0.0000
 Quadrupole moment (field-independent basis, Debye-Ang):
   XX=            -34.7608   YY=            -36.7416   ZZ=            -15.0374
   XY=             -0.0000   XZ=              0.0000   YZ=              0.0000

 -265.3215909\MP4SDQ=-265.3213986\CCSD=-265.3318347\CCSD(T)=-265.395937
 Normal termination of Gaussian 09 at Wed Nov  2 14:16:13 2016.
