 Gaussian 09, Revision E.01,
 Gaussian 09:  EM64L-G09RevE.01 30-Nov-2015

 -----------------------------------------------------
 #p ccsd(t)/6-311+G(3df) scf(MaxCyc=300) guess(Huckel)
 -----------------------------------------------------

 -------------
 ccsd(t) iener
 -------------
 Symbolic Z-matrix:
 Charge =  2 Multiplicity = 1

                         Standard orientation:
 ---------------------------------------------------------------------
 Center     Atomic      Atomic             Coordinates (Angstroms)
 Number     Number       Type             X           Y           Z
 ---------------------------------------------------------------------
      1          6           0       -0.628700    1.154823    0.000097
      2          6           0        0.628729    1.154872    0.000153
      3          6           0       -0.000111   -0.494443   -0.000521
      4          6           0        1.333857   -0.107393   -0.000727
      5          6           0        2.543130   -0.800289    0.000623
      6          6           0       -2.542974   -0.800409    0.000123
      7          6           0       -1.333931   -0.107161    0.000252
 ---------------------------------------------------------------------

 SCF Done:  E(RHF) =  -263.736051112     A.U. after   20 cycles
 E2 =    -0.9280677389D+00 EUMP2 =    -0.26466411885121D+03
 CCSD(T)
 CCSD(T)= -0.26476054437D+03

 The electronic state is 1-A.
 Alpha  occ. eigenvalues --  -11.89548 -11.86713 -11.86712 -11.80331 -11.80052
 Alpha  occ. eigenvalues --  -11.78321 -11.78317  -1.78256  -1.57732  -1.49174
 Alpha  occ. eigenvalues --   -1.35997  -1.35243  -1.15810  -1.12713  -1.07065
 Alpha  occ. eigenvalues --   -0.97278  -0.94541  -0.89274  -0.87908  -0.81763
 Alpha virt. eigenvalues --   -0.46068  -0.44598  -0.41975  -0.37563  -0.34908
 Alpha virt. eigenvalues --   -0.33994  -0.22412  -0.20710  -0.18811  -0.18272
 Alpha virt. eigenvalues --   -0.17635  -0.16931  -0.16175  -0.14432  -0.13305

 Mulliken charges:
               1
     1  C    0.192932
     2  C    0.191353
     3  C    0.647369
     4  C    0.609124
     5  C   -0.124837
     6  C   -0.125178
     7  C    0.609238
 Sum of Mulliken charges =   2.00000

 Dipole moment (field-independent basis, Debye):
    X=             -0.0004    Y=             -0.3331    Z=              0.0004  Tot=              0.3331
 Quadrupole moment (field-independent basis, Debye-Ang):
   XX=             -3.0813   YY=            -24.6038   ZZ=            -34.6412
   XY=             -0.0014   XZ=             -0.0011   YZ=              0.0026

 712512\MP4SDQ=-264.6864826\CCSD=-264.69042\CCSD(T)=-264.7605444\RMSD=3
 Normal termination of Gaussian 09 at Sat Jun 25 03:03:51 2016.
