 Gaussian 09, Revision E.01,
 Gaussian 09:  EM64L-G09RevE.01 30-Nov-2015

 -----------------------------------------------------
 #p ccsd(t)/6-311+G(3df) scf(MaxCyc=300) guess(Huckel)
 -----------------------------------------------------

 -------------
 ccsd(t) iener
 -------------
 Symbolic Z-matrix:
 Charge =  2 Multiplicity = 1

                         Standard orientation:
 ---------------------------------------------------------------------
 Center     Atomic      Atomic             Coordinates (Angstroms)
 Number     Number       Type             X           Y           Z
 ---------------------------------------------------------------------
      1          6           0        1.125250    1.367231   -0.223009
      2          6           0        0.215039   -0.707747    0.757818
      3          6           0       -0.859745   -0.001615   -0.064195
      4          6           0        1.129624   -1.364110   -0.223804
      5          6           0       -2.270066   -0.000879   -0.210541
      6          6           0        0.446101    0.000357   -0.794584
      7          6           0        0.213797    0.706764    0.758315
 ---------------------------------------------------------------------

 SCF Done:  E(RHF) =  -263.630528578     A.U. after   21 cycles
 E2 =    -0.9325308296D+00 EUMP2 =    -0.26456305940734D+03
 CCSD(T)
 CCSD(T)= -0.26466416299D+03

 The electronic state is 1-A.
 Alpha  occ. eigenvalues --  -11.96574 -11.85926 -11.85810 -11.85686 -11.85236
 Alpha  occ. eigenvalues --  -11.85233 -11.83684  -1.88355  -1.55355  -1.51268
 Alpha  occ. eigenvalues --   -1.42996  -1.32179  -1.10862  -1.07449  -1.05424
 Alpha  occ. eigenvalues --   -1.01078  -1.00956  -0.96198  -0.88671  -0.87062
 Alpha virt. eigenvalues --   -0.49903  -0.48484  -0.42090  -0.41242  -0.37775
 Alpha virt. eigenvalues --   -0.34449  -0.23341  -0.20713  -0.20693  -0.19089
 Alpha virt. eigenvalues --   -0.18324  -0.17737  -0.16396  -0.15680  -0.15599

 Mulliken charges:
               1
     1  C   -0.032354
     2  C    0.354272
     3  C    0.723647
     4  C   -0.032775
     5  C    0.880211
     6  C   -0.251298
     7  C    0.358297
 Sum of Mulliken charges =   2.00000

 Dipole moment (field-independent basis, Debye):
    X=             -3.7388    Y=             -0.0044    Z=              0.4634  Tot=              3.7674
 Quadrupole moment (field-independent basis, Debye-Ang):
   XX=            -17.8744   YY=            -28.9228   ZZ=            -29.6564
   XY=              0.0088   XZ=              1.9361   YZ=              0.0049

 719326\MP4SDQ=-264.5877535\CCSD=-264.5922858\CCSD(T)=-264.664163\RMSD=
 Normal termination of Gaussian 09 at Thu Jun 23 12:32:43 2016.
