 Gaussian 09, Revision E.01,
 Gaussian 09:  EM64L-G09RevE.01 30-Nov-2015

 ---------------------------------------
 #p ccsd(t)/6-311+G(3df) scf(MaxCyc=300)
 ---------------------------------------

 -------------
 ccsd(t) iener
 -------------
 Symbolic Z-matrix:
 Charge =  1 Multiplicity = 4

                         Standard orientation:
 ---------------------------------------------------------------------
 Center     Atomic      Atomic             Coordinates (Angstroms)
 Number     Number       Type             X           Y           Z
 ---------------------------------------------------------------------
      1          6           0        0.000201    1.665842    0.000293
      2          6           0       -1.817679   -0.290817   -0.001041
      3          6           0       -0.719427    0.510149   -0.000311
      4          6           0        0.719106    0.509683    0.000158
      5          6           0        1.816862   -0.291964    0.000308
      6          6           0       -2.760188   -1.051989    0.000802
      7          6           0        2.761126   -1.050904   -0.000209
 ---------------------------------------------------------------------

 SCF Done:  E(UHF) =  -264.421016031     A.U. after   25 cycles
 E2 =    -0.8375290576D+00 EUMP2 =    -0.26525854508862D+03
 CCSD(T)
 CCSD(T)= -0.26537997791D+03

 The electronic state is 4-A.
 Alpha  occ. eigenvalues --  -11.59162 -11.59048 -11.57636 -11.53832 -11.53832
 Alpha  occ. eigenvalues --  -11.46303 -11.46302  -1.50694  -1.30212  -1.29546
 Alpha  occ. eigenvalues --   -1.14812  -1.12000  -0.93025  -0.85751  -0.83380
 Alpha  occ. eigenvalues --   -0.82002  -0.77860  -0.73641  -0.68130  -0.67735
 Alpha  occ. eigenvalues --   -0.65022  -0.64393
 Alpha virt. eigenvalues --   -0.19352  -0.13439  -0.08347  -0.06890  -0.04824
 Alpha virt. eigenvalues --   -0.04249  -0.03826  -0.02075  -0.01686  -0.01185
 Alpha virt. eigenvalues --   -0.00559  -0.00373  -0.00081   0.01717   0.02121

  Beta  occ. eigenvalues --  -11.58685 -11.58591 -11.55543 -11.48149 -11.48148
  Beta  occ. eigenvalues --  -11.47577 -11.47577  -1.50023  -1.29813  -1.27508
  Beta  occ. eigenvalues --   -1.09253  -1.06992  -0.86242  -0.83797  -0.81643
  Beta  occ. eigenvalues --   -0.68199  -0.64571  -0.61883  -0.59038
  Beta virt. eigenvalues --   -0.20675  -0.16170  -0.16024  -0.13619  -0.09516
  Beta virt. eigenvalues --   -0.05860  -0.03743  -0.03146  -0.02925  -0.02918
  Beta virt. eigenvalues --   -0.01549  -0.00877  -0.00686   0.00103   0.00187

 Mulliken charges and spin densities:
               1          2
     1  C    0.087333   0.561377
     2  C    0.125627  -1.039502
     3  C   -0.033526   0.068978
     4  C   -0.032906   0.065699
     5  C    0.126113  -1.039349
     6  C    0.363238   2.191474
     7  C    0.364120   2.191323
 Sum of Mulliken charges =   1.00000   3.00000

 Dipole moment (field-independent basis, Debye):
    X=              0.0011    Y=             -0.2139    Z=              0.0010  Tot=              0.2139
 Quadrupole moment (field-independent basis, Debye-Ang):
   XX=            -13.6442   YY=            -28.8329   ZZ=            -35.6373
   XY=              0.0029   XZ=             -0.0059   YZ=             -0.0016

 CSD=-265.3201026\CCSD(T)=-265.3799779\S2=4.720689\S2-1=4.524035\S2A=4.
 Normal termination of Gaussian 09 at Fri Nov  4 13:07:33 2016.
