 Gaussian 09, Revision E.01,
 Gaussian 09:  EM64L-G09RevE.01 30-Nov-2015

 ---------------------------------------
 #p ccsd(t)/6-311+G(3df) scf(MaxCyc=300)
 ---------------------------------------

 -------------
 ccsd(t) iener
 -------------
 Symbolic Z-matrix:
 Charge =  1 Multiplicity = 2

                         Standard orientation:
 ---------------------------------------------------------------------
 Center     Atomic      Atomic             Coordinates (Angstroms)
 Number     Number       Type             X           Y           Z
 ---------------------------------------------------------------------
      1          6           0        2.008304   -0.000024    0.000020
      2          6           0       -0.484723    0.755533   -0.000056
      3          6           0        0.951888    0.814777    0.000075
      4          6           0        0.951857   -0.814779   -0.000071
      5          6           0       -0.484743   -0.755519   -0.000024
      6          6           0       -1.471281    1.653059   -0.000001
      7          6           0       -1.471302   -1.653046    0.000057
 ---------------------------------------------------------------------

 SCF Done:  E(UHF) =  -264.312449779     A.U. after   44 cycles
 E2 =    -0.9334978842D+00 EUMP2 =    -0.26524594766310D+03
 CCSD(T)
 CCSD(T)= -0.26534259278D+03

 The electronic state is 2-A.
 Alpha  occ. eigenvalues --  -11.62557 -11.62496 -11.59114 -11.59042 -11.59041
 Alpha  occ. eigenvalues --  -11.53881 -11.53816  -1.55641  -1.36873  -1.28674
 Alpha  occ. eigenvalues --   -1.15377  -1.08958  -0.92063  -0.91264  -0.84978
 Alpha  occ. eigenvalues --   -0.83921  -0.72045  -0.71170  -0.67103  -0.62733
 Alpha  occ. eigenvalues --   -0.62604
 Alpha virt. eigenvalues --   -0.21077  -0.20507  -0.18257  -0.16527  -0.14336
 Alpha virt. eigenvalues --   -0.07112  -0.04674  -0.04296  -0.03835  -0.02966
 Alpha virt. eigenvalues --   -0.02261  -0.01984  -0.00958  -0.00803   0.01624

  Beta  occ. eigenvalues --  -11.61537 -11.61485 -11.59285 -11.59285 -11.56711
  Beta  occ. eigenvalues --  -11.53667 -11.53605  -1.55107  -1.36135  -1.28300
  Beta  occ. eigenvalues --   -1.14691  -1.05856  -0.90204  -0.89645  -0.83097
  Beta  occ. eigenvalues --   -0.74177  -0.71521  -0.66379  -0.66155  -0.63172
  Beta virt. eigenvalues --   -0.22648  -0.20344  -0.20295  -0.16646  -0.16546
  Beta virt. eigenvalues --   -0.09376  -0.06846  -0.04275  -0.04090  -0.02229
  Beta virt. eigenvalues --   -0.02228  -0.01864  -0.01704  -0.00387  -0.00162

 Mulliken charges and spin densities:
               1          2
     1  C   -0.194872   0.411601
     2  C    0.561760   0.050362
     3  C    0.382707   0.303526
     4  C    0.382745   0.303355
     5  C    0.561731   0.050435
     6  C   -0.347033  -0.059613
     7  C   -0.347038  -0.059666
 Sum of Mulliken charges =   1.00000   1.00000

 Dipole moment (field-independent basis, Debye):
    X=              1.0724    Y=             -0.0001    Z=             -0.0000  Tot=              1.0724
 Quadrupole moment (field-independent basis, Debye-Ang):
   XX=            -31.8890   YY=            -30.9090   ZZ=            -37.2661
   XY=             -0.0001   XZ=              0.0001   YZ=              0.0003

 .271459\CCSD=-265.2747381\CCSD(T)=-265.3425928\S2=0.821172\S2-1=0.7913
 Normal termination of Gaussian 09 at Fri Nov  4 07:06:29 2016.
