 Gaussian 09, Revision E.01,
 Gaussian 09:  EM64L-G09RevE.01 30-Nov-2015

 -----------------------------------------------------
 #p ccsd(t)/6-311+G(3df) scf(MaxCyc=300) guess(Huckel)
 -----------------------------------------------------

 -------------
 ccsd(t) iener
 -------------
 Symbolic Z-matrix:
 Charge =  2 Multiplicity = 1

                         Standard orientation:
 ---------------------------------------------------------------------
 Center     Atomic      Atomic             Coordinates (Angstroms)
 Number     Number       Type             X           Y           Z
 ---------------------------------------------------------------------
      1          6           0       -1.432513    0.401801    0.000650
      2          6           0       -0.073064   -1.485138    0.000395
      3          6           0        1.464406    0.259222    0.000568
      4          6           0        1.116744   -0.984073   -0.000169
      5          6           0        0.710778    1.307415   -0.000825
      6          6           0       -0.578628    1.370129    0.000246
      7          6           0       -1.207723   -0.869355   -0.000866
 ---------------------------------------------------------------------

 SCF Done:  E(RHF) =  -263.897988199     A.U. after   15 cycles
 E2 =    -0.1063629946D+01 EUMP2 =    -0.26496161814449D+03
 CCSD(T)
 CCSD(T)= -0.26499615259D+03

 The electronic state is 1-A.
 Alpha  occ. eigenvalues --  -11.82391 -11.82313 -11.82312 -11.82130 -11.82115
 Alpha  occ. eigenvalues --  -11.81982 -11.81981  -1.71910  -1.59020  -1.59014
 Alpha  occ. eigenvalues --   -1.38813  -1.38787  -1.24405  -1.24403  -1.05492
 Alpha  occ. eigenvalues --   -1.04846  -0.90421  -0.90417  -0.87784  -0.87779
 Alpha virt. eigenvalues --   -0.42819  -0.42760  -0.42527  -0.42524  -0.38604
 Alpha virt. eigenvalues --   -0.38602  -0.23444  -0.19293  -0.18415  -0.18415
 Alpha virt. eigenvalues --   -0.16841  -0.14718  -0.14718  -0.13677  -0.13677

 Mulliken charges:
               1
     1  C    0.285293
     2  C    0.282076
     3  C    0.280676
     4  C    0.290328
     5  C    0.289493
     6  C    0.284049
     7  C    0.288086
 Sum of Mulliken charges =   2.00000

 Dipole moment (field-independent basis, Debye):
    X=              0.0001    Y=             -0.0000    Z=              0.0000  Tot=              0.0001
 Quadrupole moment (field-independent basis, Debye-Ang):
   XX=            -15.6060   YY=            -15.6138   ZZ=            -33.2469
   XY=             -0.0002   XZ=              0.0000   YZ=             -0.0000

 3941\MP4SDQ=-264.9061977\CCSD=-264.9090642\CCSD(T)=-264.9961526\RMSD=8
 Normal termination of Gaussian 09 at Thu Jun 23 05:23:47 2016.
