 Gaussian 09, Revision E.01,
 Gaussian 09:  EM64L-G09RevE.01 30-Nov-2015

 -----------------------------------------------------
 #p ccsd(t)/6-311+G(3df) scf(MaxCyc=300) guess(Huckel)
 -----------------------------------------------------

 -------------
 ccsd(t) iener
 -------------
 Symbolic Z-matrix:
 Charge =  2 Multiplicity = 1

                         Standard orientation:
 ---------------------------------------------------------------------
 Center     Atomic      Atomic             Coordinates (Angstroms)
 Number     Number       Type             X           Y           Z
 ---------------------------------------------------------------------
      1          6           0        2.572658   -1.264822    0.000027
      2          6           0        1.761774   -0.114851   -0.000188
      3          6           0       -0.859816    0.075680    0.000389
      4          6           0        0.483276    0.376312    0.000254
      5          6           0       -2.078830   -0.115912   -0.000495
      6          6           0       -3.442171   -0.293149    0.000115
      7          6           0        1.563109    1.336742   -0.000102
 ---------------------------------------------------------------------

 SCF Done:  E(RHF) =  -263.810310839     A.U. after   37 cycles
 E2 =    -0.8971282543D+00 EUMP2 =    -0.26470743909300D+03
 CCSD(T)
 CCSD(T)= -0.26481271361D+03

 The electronic state is 1-A.
 Alpha  occ. eigenvalues --  -11.89597 -11.86449 -11.80251 -11.79670 -11.74935
 Alpha  occ. eigenvalues --  -11.74819 -11.71615  -1.68133  -1.55547  -1.45311
 Alpha  occ. eigenvalues --   -1.41905  -1.31399  -1.11729  -1.00232  -0.97547
 Alpha  occ. eigenvalues --   -0.94214  -0.93763  -0.88965  -0.87319  -0.80771
 Alpha virt. eigenvalues --   -0.49588  -0.44628  -0.41955  -0.40250  -0.27431
 Alpha virt. eigenvalues --   -0.23631  -0.21858  -0.19736  -0.18840  -0.17594
 Alpha virt. eigenvalues --   -0.16233  -0.14052  -0.13734  -0.13480  -0.11885

 Mulliken charges:
               1
     1  C   -0.137388
     2  C    0.468763
     3  C   -0.310206
     4  C    0.526551
     5  C    1.733093
     6  C   -0.070884
     7  C   -0.209929
 Sum of Mulliken charges =   2.00000

 Dipole moment (field-independent basis, Debye):
    X=             -1.2730    Y=             -3.0419    Z=             -0.0003  Tot=              3.2976
 Quadrupole moment (field-independent basis, Debye-Ang):
   XX=             17.1427   YY=            -31.4008   ZZ=            -31.7393
   XY=             -5.1035   XZ=              0.0026   YZ=              0.0014

 4SDQ=-264.7398179\CCSD=-264.7427864\CCSD(T)=-264.8127136\RMSD=6.906e-0
 Normal termination of Gaussian 09 at Sat Jun 25 03:27:21 2016.
