 Gaussian 09, Revision E.01,
 Gaussian 09:  EM64L-G09RevE.01 30-Nov-2015

 ---------------------------------------
 #p ccsd(t)/6-311+G(3df) scf(MaxCyc=300)
 ---------------------------------------

 -------------
 ccsd(t) iener
 -------------
 Symbolic Z-matrix:
 Charge =  2 Multiplicity = 3

                         Standard orientation:
 ---------------------------------------------------------------------
 Center     Atomic      Atomic             Coordinates (Angstroms)
 Number     Number       Type             X           Y           Z
 ---------------------------------------------------------------------
      1          6           0        1.668581    0.000188    0.000019
      2          6           0        3.077093   -0.000220    0.000773
      3          6           0        0.526589    0.813359   -0.000352
      4          6           0        0.526716   -0.813197   -0.000352
      5          6           0       -0.626761    0.000009   -0.000567
      6          6           0       -1.968539   -0.000045   -0.000695
      7          6           0       -3.203680   -0.000094    0.001174
 ---------------------------------------------------------------------

 SCF Done:  E(UHF) =  -263.838639598     A.U. after   34 cycles
 E2 =    -0.8590734594D+00 EUMP2 =    -0.26469771305742D+03
 CCSD(T)
 CCSD(T)= -0.26480619307D+03

 The electronic state is 3-A.
 Alpha  occ. eigenvalues --  -11.84241 -11.83536 -11.83472 -11.82081 -11.80295
 Alpha  occ. eigenvalues --  -11.79205 -11.74334  -1.78741  -1.56733  -1.51557
 Alpha  occ. eigenvalues --   -1.39645  -1.24999  -1.24920  -1.07062  -1.06689
 Alpha  occ. eigenvalues --   -1.04054  -0.94159  -0.93926  -0.90823  -0.87433
 Alpha  occ. eigenvalues --   -0.83585
 Alpha virt. eigenvalues --   -0.43772  -0.43028  -0.37382  -0.33382  -0.25681
 Alpha virt. eigenvalues --   -0.24953  -0.22036  -0.19239  -0.18951  -0.15648
 Alpha virt. eigenvalues --   -0.15478  -0.14307  -0.13823  -0.13405  -0.12065

  Beta  occ. eigenvalues --  -11.83592 -11.83530 -11.83312 -11.82187 -11.79306
  Beta  occ. eigenvalues --  -11.75257 -11.73557  -1.78714  -1.55441  -1.45540
  Beta  occ. eigenvalues --   -1.34715  -1.25380  -1.23857  -1.08461  -1.03681
  Beta  occ. eigenvalues --   -0.92307  -0.87844  -0.87171  -0.85646
  Beta virt. eigenvalues --   -0.47195  -0.41536  -0.36800  -0.36081  -0.32711
  Beta virt. eigenvalues --   -0.32459  -0.21897  -0.20422  -0.19943  -0.18825
  Beta virt. eigenvalues --   -0.16262  -0.16120  -0.15585  -0.13495  -0.12976

 Mulliken charges and spin densities:
               1          2
     1  C   -0.199102   0.012001
     2  C   -0.149553   0.248124
     3  C    1.344829  -0.029693
     4  C    1.344347  -0.029977
     5  C   -1.028976   0.019697
     6  C    0.016908  -0.281365
     7  C    0.671547   2.061213
 Sum of Mulliken charges =   2.00000   2.00000

 Dipole moment (field-independent basis, Debye):
    X=             -1.2862    Y=              0.0004    Z=              0.0012  Tot=              1.2862
 Quadrupole moment (field-independent basis, Debye-Ang):
   XX=             17.6195   YY=            -31.6550   ZZ=            -32.5980
   XY=              0.0025   XZ=             -0.0065   YZ=              0.0000

 08051\CCSD=-264.7432078\CCSD(T)=-264.8061931\S2=2.585143\S2-1=2.465998
 Normal termination of Gaussian 09 at Mon Jun 20 07:36:49 2016.
