 Gaussian 09, Revision E.01,
 Gaussian 09:  EM64L-G09RevE.01 30-Nov-2015

 ---------------------------------------
 #p ccsd(t)/6-311+G(3df) scf(MaxCyc=300)
 ---------------------------------------

 -------------
 ccsd(t) iener
 -------------
 Symbolic Z-matrix:
 Charge =  2 Multiplicity = 1

                         Standard orientation:
 ---------------------------------------------------------------------
 Center     Atomic      Atomic             Coordinates (Angstroms)
 Number     Number       Type             X           Y           Z
 ---------------------------------------------------------------------
      1          6           0        1.627099    0.797393   -0.134838
      2          6           0        0.488610   -0.000520   -0.078411
      3          6           0       -0.894673   -0.000996   -0.010667
      4          6           0        1.627926   -0.797252   -0.134475
      5          6           0       -2.125016   -0.000205    0.024013
      6          6           0       -3.504904    0.000801    0.065510
      7          6           0        2.780959    0.000779    0.268869
 ---------------------------------------------------------------------

 SCF Done:  E(RHF) =  -263.815432475     A.U. after   25 cycles
 E2 =    -0.9379480516D+00 EUMP2 =    -0.26475338052640D+03
 CCSD(T)
 CCSD(T)= -0.26484394246D+03

 The electronic state is 1-A.
 Alpha  occ. eigenvalues --  -11.89679 -11.85056 -11.82436 -11.80355 -11.80289
 Alpha  occ. eigenvalues --  -11.79363 -11.74443  -1.77536  -1.58716  -1.48663
 Alpha  occ. eigenvalues --   -1.39035  -1.28777  -1.23057  -1.03162  -1.01719
 Alpha  occ. eigenvalues --   -0.96476  -0.91532  -0.91226  -0.89550  -0.82302
 Alpha virt. eigenvalues --   -0.50642  -0.46764  -0.38280  -0.37960  -0.29301
 Alpha virt. eigenvalues --   -0.24332  -0.23031  -0.21032  -0.19222  -0.17622
 Alpha virt. eigenvalues --   -0.15784  -0.15205  -0.14096  -0.13977  -0.13589

 Mulliken charges:
               1
     1  C    0.139131
     2  C    0.553711
     3  C   -0.428123
     4  C    0.140306
     5  C    1.734680
     6  C    0.048582
     7  C   -0.188288
 Sum of Mulliken charges =   2.00000

 Dipole moment (field-independent basis, Debye):
    X=             -4.6942    Y=             -0.0010    Z=             -0.6564  Tot=              4.7398
 Quadrupole moment (field-independent basis, Debye-Ang):
   XX=             13.9504   YY=            -32.6654   ZZ=            -31.8006
   XY=             -0.0025   XZ=             -2.7014   YZ=             -0.0001

 4SDQ=-264.767521\CCSD=-264.7705216\CCSD(T)=-264.8439425\RMSD=4.037e-09
 Normal termination of Gaussian 09 at Fri Jul  8 18:39:42 2016.
