 Gaussian 09, Revision E.01,
 Gaussian 09:  EM64L-G09RevE.01 30-Nov-2015

 ---------------------------------------
 #p ccsd(t)/6-311+G(3df) scf(MaxCyc=300)
 ---------------------------------------

 -------------
 ccsd(t) iener
 -------------
 Symbolic Z-matrix:
 Charge =  2 Multiplicity = 1

                         Standard orientation:
 ---------------------------------------------------------------------
 Center     Atomic      Atomic             Coordinates (Angstroms)
 Number     Number       Type             X           Y           Z
 ---------------------------------------------------------------------
      1          6           0       -1.917304   -0.002835    0.000839
      2          6           0        0.471897   -0.777958   -0.000725
      3          6           0       -0.935147   -0.840133    0.000167
      4          6           0       -0.937341    0.837043   -0.000443
      5          6           0        0.470020    0.778259   -0.001533
      6          6           0        1.427653   -1.770819    0.000527
      7          6           0        1.420222    1.776443    0.001168
 ---------------------------------------------------------------------

 SCF Done:  E(RHF) =  -263.744215834     A.U. after   18 cycles
 E2 =    -0.9285547618D+00 EUMP2 =    -0.26467277059571D+03
 CCSD(T)
 CCSD(T)= -0.26476955878D+03

 The electronic state is 1-A.
 Alpha  occ. eigenvalues --  -11.89453 -11.89414 -11.84228 -11.84224 -11.82026
 Alpha  occ. eigenvalues --  -11.76665 -11.76613  -1.79894  -1.58202  -1.51146
 Alpha  occ. eigenvalues --   -1.36438  -1.32105  -1.17837  -1.12433  -1.08352
 Alpha  occ. eigenvalues --   -0.98626  -0.92747  -0.91032  -0.87416  -0.84841
 Alpha virt. eigenvalues --   -0.49566  -0.44933  -0.42186  -0.37923  -0.36948
 Alpha virt. eigenvalues --   -0.34103  -0.23034  -0.21321  -0.19138  -0.18775
 Alpha virt. eigenvalues --   -0.18762  -0.17943  -0.16618  -0.14163  -0.13961

 Mulliken charges:
               1
     1  C   -0.339923
     2  C    0.624103
     3  C    0.701369
     4  C    0.695991
     5  C    0.618142
     6  C   -0.150464
     7  C   -0.149217
 Sum of Mulliken charges =   2.00000

 Dipole moment (field-independent basis, Debye):
    X=             -1.3780    Y=             -0.0058    Z=              0.0011  Tot=              1.3780
 Quadrupole moment (field-independent basis, Debye-Ang):
   XX=            -16.0459   YY=            -17.6471   ZZ=            -34.7265
   XY=              0.0016   XZ=             -0.0044   YZ=             -0.0023

 264.6946852\CCSD=-264.6985225\CCSD(T)=-264.7695588\RMSD=3.329e-09\PG=C
 Normal termination of Gaussian 09 at Fri Jul  8 14:36:19 2016.
