 Gaussian 09, Revision E.01,
 Gaussian 09:  EM64L-G09RevE.01 30-Nov-2015

 ---------------------------------------
 #p ccsd(t)/6-311+G(3df) scf(MaxCyc=300)
 ---------------------------------------

 -------------
 ccsd(t) iener
 -------------
 Symbolic Z-matrix:
 Charge =  1 Multiplicity = 2

                         Standard orientation:
 ---------------------------------------------------------------------
 Center     Atomic      Atomic             Coordinates (Angstroms)
 Number     Number       Type             X           Y           Z
 ---------------------------------------------------------------------
      1          6           0        3.828549    0.194929    0.001279
      2          6           0       -3.828595    0.194810   -0.001301
      3          6           0       -2.551222   -0.086364    0.000659
      4          6           0        2.551248   -0.086493   -0.000974
      5          6           0        1.275106   -0.074792   -0.002185
      6          6           0       -1.275099   -0.074703    0.002293
      7          6           0        0.000013   -0.067387    0.000229
 ---------------------------------------------------------------------

 SCF Done:  E(UHF) =  -264.457422231     A.U. after   40 cycles
 E2 =    -0.8733884052D+00 EUMP2 =    -0.26533081063620D+03
 CCSD(T)
 CCSD(T)= -0.26545671606D+03

 The electronic state is 2-A.
 Alpha  occ. eigenvalues --  -11.57192 -11.57191 -11.56148 -11.56142 -11.51751
 Alpha  occ. eigenvalues --  -11.49831 -11.49831  -1.37644  -1.34167  -1.29649
 Alpha  occ. eigenvalues --   -1.18507  -1.11416  -1.04755  -0.77981  -0.76384
 Alpha  occ. eigenvalues --   -0.74683  -0.72726  -0.69192  -0.69134  -0.62511
 Alpha  occ. eigenvalues --   -0.59928
 Alpha virt. eigenvalues --   -0.23188  -0.21337  -0.11218  -0.10452  -0.07541
 Alpha virt. eigenvalues --   -0.04903  -0.03430  -0.03133  -0.01662  -0.01350
 Alpha virt. eigenvalues --   -0.01100   0.00281   0.02286   0.03080   0.03218

  Beta  occ. eigenvalues --  -11.57922 -11.57920 -11.56718 -11.56717 -11.49960
  Beta  occ. eigenvalues --  -11.48405 -11.48405  -1.37569  -1.33062  -1.23553
  Beta  occ. eigenvalues --   -1.18238  -1.10298  -1.04324  -0.77073  -0.77033
  Beta  occ. eigenvalues --   -0.71414  -0.70304  -0.68764  -0.67299  -0.54860
  Beta virt. eigenvalues --   -0.26022  -0.23851  -0.18475  -0.09454  -0.07775
  Beta virt. eigenvalues --   -0.05726  -0.04209  -0.02990  -0.02612  -0.00840
  Beta virt. eigenvalues --   -0.00561  -0.00317   0.00490   0.02461   0.03026

 Mulliken charges and spin densities:
               1          2
     1  C   -0.291370   0.215023
     2  C   -0.291627   0.214815
     3  C    0.973074   0.631718
     4  C    0.972647   0.631752
     5  C   -0.139322  -0.540950
     6  C   -0.139582  -0.540806
     7  C   -0.083820   0.388447
 Sum of Mulliken charges =   1.00000   1.00000

 Dipole moment (field-independent basis, Debye):
    X=             -0.0001    Y=             -0.6266    Z=             -0.0008  Tot=              0.6266
 Quadrupole moment (field-independent basis, Debye-Ang):
   XX=             -6.0722   YY=            -35.3783   ZZ=            -36.6746
   XY=             -0.0007   XZ=             -0.0127   YZ=              0.0019

 185\CCSD=-265.386219\CCSD(T)=-265.4567161\S2=1.657516\S2-1=1.497217\S2
 Normal termination of Gaussian 09 at Sun Nov  6 08:31:34 2016.
