 Gaussian 09, Revision E.01,
 Gaussian 09:  EM64L-G09RevE.01 30-Nov-2015

 ---------------------------------------
 #p ccsd(t)/6-311+G(3df) scf(MaxCyc=300)
 ---------------------------------------

 -------------
 ccsd(t) iener
 -------------
 Symbolic Z-matrix:
 Charge =  1 Multiplicity = 2

                         Standard orientation:
 ---------------------------------------------------------------------
 Center     Atomic      Atomic             Coordinates (Angstroms)
 Number     Number       Type             X           Y           Z
 ---------------------------------------------------------------------
      1          6           0       -3.840105    0.137014    0.000047
      2          6           0       -2.550330   -0.083795    0.000159
      3          6           0       -1.275141   -0.042214   -0.000090
      4          6           0        0.000010   -0.021979   -0.000230
      5          6           0        1.275139   -0.042232   -0.000092
      6          6           0        2.550342   -0.083852    0.000154
      7          6           0        3.840084    0.137059    0.000052
 ---------------------------------------------------------------------

 SCF Done:  E(UHF) =  -264.457269828     A.U. after   40 cycles
 E2 =    -0.8737923941D+00 EUMP2 =    -0.26533106222168D+03
 CCSD(T)
 CCSD(T)= -0.26545678757D+03

 The electronic state is 2-A.
 Alpha  occ. eigenvalues --  -11.57208 -11.57206 -11.56164 -11.56157 -11.51777
 Alpha  occ. eigenvalues --  -11.49846 -11.49846  -1.37643  -1.34148  -1.29648
 Alpha  occ. eigenvalues --   -1.18548  -1.11470  -1.04777  -0.77977  -0.76390
 Alpha  occ. eigenvalues --   -0.74651  -0.72684  -0.69137  -0.69135  -0.62480
 Alpha  occ. eigenvalues --   -0.59927
 Alpha virt. eigenvalues --   -0.23212  -0.21430  -0.11246  -0.10474  -0.07563
 Alpha virt. eigenvalues --   -0.04858  -0.03442  -0.03140  -0.01645  -0.01322
 Alpha virt. eigenvalues --   -0.01112   0.00276   0.02467   0.03081   0.03145

  Beta  occ. eigenvalues --  -11.57938 -11.57936 -11.56735 -11.56734 -11.49986
  Beta  occ. eigenvalues --  -11.48432 -11.48432  -1.37579  -1.33063  -1.23538
  Beta  occ. eigenvalues --   -1.18244  -1.10353  -1.04361  -0.77098  -0.77043
  Beta  occ. eigenvalues --   -0.71385  -0.70272  -0.68785  -0.67323  -0.54849
  Beta virt. eigenvalues --   -0.26027  -0.23889  -0.18526  -0.09480  -0.07759
  Beta virt. eigenvalues --   -0.05755  -0.04205  -0.02998  -0.02592  -0.00855
  Beta virt. eigenvalues --   -0.00606  -0.00264   0.00424   0.02657   0.03029

 Mulliken charges and spin densities:
               1          2
     1  C   -0.305488   0.204988
     2  C    1.007702   0.628438
     3  C   -0.161813  -0.527982
     4  C   -0.080887   0.389026
     5  C   -0.161598  -0.528061
     6  C    1.007444   0.628437
     7  C   -0.305360   0.205154
 Sum of Mulliken charges =   1.00000   1.00000

 Dipole moment (field-independent basis, Debye):
    X=             -0.0003    Y=             -0.5793    Z=              0.0007  Tot=              0.5793
 Quadrupole moment (field-independent basis, Debye-Ang):
   XX=             -6.4185   YY=            -35.2645   ZZ=            -36.6790
   XY=             -0.0004   XZ=             -0.0000   YZ=             -0.0023

 13\CCSD=-265.3863078\CCSD(T)=-265.4567876\S2=1.647662\S2-1=1.488456\S2
 Normal termination of Gaussian 09 at Sun Nov  6 08:22:05 2016.
