 Gaussian 09, Revision E.01,
 Gaussian 09:  EM64L-G09RevE.01 30-Nov-2015

 -----------------------------------------------------
 #p ccsd(t)/6-311+G(3df) scf(MaxCyc=300) guess(Huckel)
 -----------------------------------------------------

 -------------
 ccsd(t) iener
 -------------
 Symbolic Z-matrix:
 Charge =  2 Multiplicity = 3

                         Standard orientation:
 ---------------------------------------------------------------------
 Center     Atomic      Atomic             Coordinates (Angstroms)
 Number     Number       Type             X           Y           Z
 ---------------------------------------------------------------------
      1          6           0       -0.584260   -1.145894    0.178889
      2          6           0       -0.858734   -0.220099   -0.839894
      3          6           0        1.515288    0.057225   -0.000417
      4          6           0        0.781857   -1.148385   -0.037377
      5          6           0       -0.869938    0.155310    0.841704
      6          6           0       -0.673618    1.099861   -0.178924
      7          6           0        0.689404    1.201982    0.036019
 ---------------------------------------------------------------------

 SCF Done:  E(UHF) =  -263.702833468     A.U. after   50 cycles
 E2 =    -0.8845257514D+00 EUMP2 =    -0.26458735921914D+03
 CCSD(T)
 CCSD(T)= -0.26471603108D+03

 The electronic state is 3-A.
 Alpha  occ. eigenvalues --  -11.88361 -11.88316 -11.86434 -11.86433 -11.83499
 Alpha  occ. eigenvalues --  -11.83473 -11.83267  -1.86809  -1.61159  -1.60898
 Alpha  occ. eigenvalues --   -1.33843  -1.32783  -1.32249  -1.14969  -1.14365
 Alpha  occ. eigenvalues --   -1.08402  -0.98408  -0.96711  -0.93404  -0.90689
 Alpha  occ. eigenvalues --   -0.88473
 Alpha virt. eigenvalues --   -0.47730  -0.47080  -0.41237  -0.37716  -0.37213
 Alpha virt. eigenvalues --   -0.27937  -0.21663  -0.20026  -0.19289  -0.18750
 Alpha virt. eigenvalues --   -0.16498  -0.16181  -0.15459  -0.15355  -0.14548

  Beta  occ. eigenvalues --  -11.87469 -11.87424 -11.86248 -11.86199 -11.82457
  Beta  occ. eigenvalues --  -11.82453 -11.81057  -1.85479  -1.59870  -1.54117
  Beta  occ. eigenvalues --   -1.30861  -1.30097  -1.26672  -1.12798  -1.10868
  Beta  occ. eigenvalues --   -1.09275  -0.95957  -0.90533  -0.90220
  Beta virt. eigenvalues --   -0.47925  -0.44672  -0.41956  -0.39064  -0.36507
  Beta virt. eigenvalues --   -0.33156  -0.30891  -0.24675  -0.21301  -0.19240
  Beta virt. eigenvalues --   -0.17897  -0.16915  -0.15925  -0.15572  -0.15005

 Mulliken charges and spin densities:
               1          2
     1  C    0.621658  -1.175061
     2  C    0.229374   0.453027
     3  C    0.042319   0.380697
     4  C    0.125512   1.534390
     5  C    0.229051   0.451301
     6  C    0.621813  -1.180175
     7  C    0.130272   1.535820
 Sum of Mulliken charges =   2.00000   2.00000

 Dipole moment (field-independent basis, Debye):
    X=              0.0160    Y=              0.0023    Z=             -0.0058  Tot=              0.0172
 Quadrupole moment (field-independent basis, Debye-Ang):
   XX=            -21.0322   YY=            -21.6292   ZZ=            -31.2168
   XY=             -0.0074   XZ=              0.0294   YZ=             -0.7835

 =-264.6097705\CCSD=-264.6358651\CCSD(T)=-264.7160311\S2=3.299196\S2-1=
 Normal termination of Gaussian 09 at Fri Jul  1 06:37:31 2016.
