 Gaussian 09, Revision E.01,
 Gaussian 09:  EM64L-G09RevE.01 30-Nov-2015

 ---------------------------------------
 #p ccsd(t)/6-311+G(3df) scf(MaxCyc=300)
 ---------------------------------------

 -------------
 ccsd(t) iener
 -------------
 Symbolic Z-matrix:
 Charge =  1 Multiplicity = 2

                         Standard orientation:
 ---------------------------------------------------------------------
 Center     Atomic      Atomic             Coordinates (Angstroms)
 Number     Number       Type             X           Y           Z
 ---------------------------------------------------------------------
      1          6           0       -1.452608   -0.002496   -0.000049
      2          6           0       -1.088191    1.347536    0.000143
      3          6           0        2.243423   -0.368898    0.000008
      4          6           0        1.196932   -0.059244    0.769256
      5          6           0       -0.016500    0.313667   -0.000079
      6          6           0       -2.080062   -1.171604   -0.000046
      7          6           0        1.197006   -0.058962   -0.769233
 ---------------------------------------------------------------------

 SCF Done:  E(UHF) =  -264.290578474     A.U. after   50 cycles
 E2 =    -0.9410482551D+00 EUMP2 =    -0.26523162672957D+03
 CCSD(T)
 CCSD(T)= -0.26532716636D+03

 The electronic state is 2-A.
 Alpha  occ. eigenvalues --  -11.62375 -11.61791 -11.61434 -11.61384 -11.60463
 Alpha  occ. eigenvalues --  -11.54823 -11.49399  -1.59693  -1.45145  -1.23154
 Alpha  occ. eigenvalues --   -1.18882  -1.04239  -0.90874  -0.88233  -0.86626
 Alpha  occ. eigenvalues --   -0.81014  -0.76858  -0.70542  -0.68529  -0.65989
 Alpha  occ. eigenvalues --   -0.60994
 Alpha virt. eigenvalues --   -0.23175  -0.19867  -0.16006  -0.12740  -0.11143
 Alpha virt. eigenvalues --   -0.06834  -0.05235  -0.04379  -0.04379  -0.02711
 Alpha virt. eigenvalues --   -0.02141  -0.01617  -0.00565   0.00996   0.01231

  Beta  occ. eigenvalues --  -11.61419 -11.61050 -11.60975 -11.60862 -11.58316
  Beta  occ. eigenvalues --  -11.54667 -11.49445  -1.58859  -1.44173  -1.24073
  Beta  occ. eigenvalues --   -1.15635  -1.01741  -0.89225  -0.85334  -0.83051
  Beta  occ. eigenvalues --   -0.75760  -0.70733  -0.68556  -0.66604  -0.59901
  Beta virt. eigenvalues --   -0.23508  -0.23147  -0.19811  -0.16789  -0.10501
  Beta virt. eigenvalues --   -0.07063  -0.06508  -0.04853  -0.03757  -0.03172
  Beta virt. eigenvalues --   -0.02634  -0.02151  -0.01442  -0.00331   0.01092

 Mulliken charges and spin densities:
               1          2
     1  C    0.825666  -0.055947
     2  C   -0.476025   0.066971
     3  C   -0.137556   1.151864
     4  C    0.133150   0.050325
     5  C    0.742096  -0.087097
     6  C   -0.220767  -0.176449
     7  C    0.133436   0.050333
 Sum of Mulliken charges =   1.00000   1.00000

 Dipole moment (field-independent basis, Debye):
    X=              2.3262    Y=             -1.6570    Z=             -0.0005  Tot=              2.8560
 Quadrupole moment (field-independent basis, Debye-Ang):
   XX=            -20.5554   YY=            -38.7214   ZZ=            -35.4150
   XY=              0.5910   XZ=              0.0000   YZ=             -0.0004

 510411\CCSD=-265.2547003\CCSD(T)=-265.3271664\S2=0.866796\S2-1=0.83501
 Normal termination of Gaussian 09 at Sun Nov  6 06:28:53 2016.
