 Gaussian 09, Revision E.01,
 Gaussian 09:  EM64L-G09RevE.01 30-Nov-2015

 ---------------------------------------
 #p ccsd(t)/6-311+G(3df) scf(MaxCyc=300)
 ---------------------------------------

 -------------
 ccsd(t) iener
 -------------
 Symbolic Z-matrix:
 Charge =  1 Multiplicity = 4

                         Standard orientation:
 ---------------------------------------------------------------------
 Center     Atomic      Atomic             Coordinates (Angstroms)
 Number     Number       Type             X           Y           Z
 ---------------------------------------------------------------------
      1          6           0       -1.568239    0.031630   -0.000002
      2          6           0       -1.089135    1.286000    0.000066
      3          6           0        2.199767   -0.372044   -0.000013
      4          6           0        1.170282   -0.045990    0.785927
      5          6           0       -0.015100    0.421859   -0.000068
      6          6           0       -1.867824   -1.275566   -0.000016
      7          6           0        1.170250   -0.045888   -0.785893
 ---------------------------------------------------------------------

 SCF Done:  E(UHF) =  -264.301147145     A.U. after   38 cycles
 E2 =    -0.9007174295D+00 EUMP2 =    -0.26520186457429D+03
 CCSD(T)
 CCSD(T)= -0.26529989455D+03

 The electronic state is 4-A.
 Alpha  occ. eigenvalues --  -11.63683 -11.62148 -11.61481 -11.61442 -11.56968
 Alpha  occ. eigenvalues --  -11.53312 -11.51312  -1.59157  -1.46786  -1.23438
 Alpha  occ. eigenvalues --   -1.20415  -1.04881  -0.92400  -0.91721  -0.88514
 Alpha  occ. eigenvalues --   -0.84439  -0.80731  -0.72076  -0.68981  -0.68322
 Alpha  occ. eigenvalues --   -0.64147  -0.60271
 Alpha virt. eigenvalues --   -0.19621  -0.16817  -0.15065  -0.09103  -0.07052
 Alpha virt. eigenvalues --   -0.05195  -0.04808  -0.04369  -0.02715  -0.02407
 Alpha virt. eigenvalues --   -0.01844  -0.01055  -0.00528   0.00977   0.01176

  Beta  occ. eigenvalues --  -11.63253 -11.61160 -11.61088 -11.58010 -11.52441
  Beta  occ. eigenvalues --  -11.52245 -11.51625  -1.58116  -1.43851  -1.18738
  Beta  occ. eigenvalues --   -1.13502  -1.02436  -0.88043  -0.85826  -0.83026
  Beta  occ. eigenvalues --   -0.70208  -0.68562  -0.66194  -0.65028
  Beta virt. eigenvalues --   -0.22725  -0.19617  -0.19004  -0.15685  -0.13759
  Beta virt. eigenvalues --   -0.09715  -0.06077  -0.05373  -0.04827  -0.03495
  Beta virt. eigenvalues --   -0.02932  -0.02241  -0.01766  -0.01132   0.00452

 Mulliken charges and spin densities:
               1          2
     1  C    0.494195  -0.407973
     2  C    0.157713   1.528974
     3  C   -0.134789   1.149961
     4  C    0.126748   0.067483
     5  C    0.532735  -0.173993
     6  C   -0.303536   0.767939
     7  C    0.126934   0.067608
 Sum of Mulliken charges =   1.00000   3.00000

 Dipole moment (field-independent basis, Debye):
    X=              2.5075    Y=              1.4013    Z=             -0.0002  Tot=              2.8725
 Quadrupole moment (field-independent basis, Debye-Ang):
   XX=            -21.0589   YY=            -35.7785   ZZ=            -36.5663
   XY=             -3.9403   XZ=             -0.0004   YZ=              0.0000

 7\CCSD=-265.2342337\CCSD(T)=-265.2998945\S2=3.968906\S2-1=3.885702\S2A
 Normal termination of Gaussian 09 at Fri Nov  4 13:45:53 2016.
