 Gaussian 09, Revision E.01,
 Gaussian 09:  EM64L-G09RevE.01 30-Nov-2015

 -----------------------------------------------------
 #p ccsd(t)/6-311+G(3df) scf(MaxCyc=300) guess(Huckel)
 -----------------------------------------------------

 -------------
 ccsd(t) iener
 -------------
 Symbolic Z-matrix:
 Charge =  2 Multiplicity = 1

                         Standard orientation:
 ---------------------------------------------------------------------
 Center     Atomic      Atomic             Coordinates (Angstroms)
 Number     Number       Type             X           Y           Z
 ---------------------------------------------------------------------
      1          6           0       -2.436836   -0.000718    0.000138
      2          6           0        1.468354    0.000207    0.000164
      3          6           0       -1.038590    0.000219   -0.000037
      4          6           0       -0.122175   -1.094788   -0.000076
      5          6           0        1.125707    1.276465    0.000066
      6          6           0       -0.123047    1.094850   -0.000208
      7          6           0        1.126588   -1.276233   -0.000047
 ---------------------------------------------------------------------

 SCF Done:  E(RHF) =  -263.804312394     A.U. after   17 cycles
 E2 =    -0.9777052177D+00 EUMP2 =    -0.26478201761145D+03
 CCSD(T)
 CCSD(T)= -0.26486080956D+03

 The electronic state is 1-A.
 Alpha  occ. eigenvalues --  -11.89833 -11.88531 -11.85467 -11.85456 -11.79815
 Alpha  occ. eigenvalues --  -11.76821 -11.76815  -1.76008  -1.59337  -1.58781
 Alpha  occ. eigenvalues --   -1.38202  -1.27703  -1.27039  -1.16089  -1.07388
 Alpha  occ. eigenvalues --   -1.01574  -0.95637  -0.89140  -0.88606  -0.85905
 Alpha virt. eigenvalues --   -0.48124  -0.47217  -0.43172  -0.36192  -0.34556
 Alpha virt. eigenvalues --   -0.30311  -0.29300  -0.23315  -0.19183  -0.18236
 Alpha virt. eigenvalues --   -0.18043  -0.17170  -0.15563  -0.14716  -0.14544

 Mulliken charges:
               1
     1  C    0.065173
     2  C    0.798418
     3  C    0.752193
     4  C    0.285613
     5  C   -0.094509
     6  C    0.287906
     7  C   -0.094795
 Sum of Mulliken charges =   2.00000

 Dipole moment (field-independent basis, Debye):
    X=             -1.8611    Y=              0.0002    Z=             -0.0000  Tot=              1.8611
 Quadrupole moment (field-independent basis, Debye-Ang):
   XX=            -11.2587   YY=            -22.3163   ZZ=            -34.0168
   XY=              0.0001   XZ=              0.0010   YZ=             -0.0003

 481\MP4SDQ=-264.780823\CCSD=-264.7826564\CCSD(T)=-264.8608096\RMSD=8.1
 Normal termination of Gaussian 09 at Sat Jun 25 00:49:25 2016.
