 Gaussian 09, Revision E.01,
 Gaussian 09:  EM64L-G09RevE.01 30-Nov-2015

 --------------------------------------
 #p ccsd(t,maxcyc=200)/6-311++G(3df,2p)
 --------------------------------------

 -------------
 ccsd(t) iener
 -------------
 Symbolic Z-matrix:
 Charge =  0 Multiplicity = 3

                         Standard orientation:
 ---------------------------------------------------------------------
 Center     Atomic      Atomic             Coordinates (Angstroms)
 Number     Number       Type             X           Y           Z
 ---------------------------------------------------------------------
      1          6           0        0.000000   -0.000000    0.303225
      2          1           0        0.000000    0.458879   -0.909676
      3          1           0       -0.000000   -0.458879   -0.909676
 ---------------------------------------------------------------------

 SCF Done:  E(UHF) =  -38.8041785225     A.U. after   13 cycles
 E2 =    -0.1246058943D+00 EUMP2 =    -0.38928784416795D+02
 CCSD(T)
 CCSD(T)= -0.38957154354D+02

 The electronic state is 3-A2.
 Alpha  occ. eigenvalues --  -11.30423  -0.99315  -0.52639  -0.44772  -0.41771
 Alpha virt. eigenvalues --    0.03430   0.07391   0.12484   0.12773   0.14720
 Alpha virt. eigenvalues --    0.16711   0.19382   0.22897   0.42020   0.43044
 Alpha virt. eigenvalues --    0.44504   0.44639   0.48807   0.67194   0.69305

  Beta  occ. eigenvalues --  -11.26634  -0.83207  -0.44096
  Beta virt. eigenvalues --    0.02328   0.03928   0.07034   0.10254   0.13347
  Beta virt. eigenvalues --    0.16138   0.17706   0.21482   0.21795   0.31135
  Beta virt. eigenvalues --    0.45623   0.45633   0.50029   0.50056   0.52206

 Mulliken charges and spin densities:
               1          2
     1  C   -0.298159   1.786676
     2  H    0.149079   0.106662
     3  H    0.149079   0.106662
 Sum of Mulliken charges =  -0.00000   2.00000

 Dipole moment (field-independent basis, Debye):
    X=             -0.0000    Y=             -0.0000    Z=             -2.5538  Tot=              2.5538
 Quadrupole moment (field-independent basis, Debye-Ang):
   XX=             -8.9332   YY=             -7.8544   ZZ=             -7.3096
   XY=              0.0000   XZ=              0.0000   YZ=              0.0000

 8784\CCSD(T)=-38.9571544\S2=2.024125\S2-1=2.011774\S2A=2.000031\RMSD=5
 Normal termination of Gaussian 09 at Mon Mar  6 23:02:45 2017.
