 Gaussian 09, Revision E.01,
 Gaussian 09:  EM64L-G09RevE.01 30-Nov-2015

 ---------------------------------------------------------
 #p ccsd(t)/6-311++G(3df,2p) scf(MaxCyc=300) guess(Huckel)
 ---------------------------------------------------------

 -------------
 ccsd(t) iener
 -------------
 Symbolic Z-matrix:
 Charge =  0 Multiplicity = 1

                         Standard orientation:
 ---------------------------------------------------------------------
 Center     Atomic      Atomic             Coordinates (Angstroms)
 Number     Number       Type             X           Y           Z
 ---------------------------------------------------------------------
      1          6           0        0.000000    0.000000   -1.119000
      2          6           0        0.000000   -0.000000    0.201000
      3          6           0        0.000000   -0.000000    1.481000
      4          1           0        0.000000    0.924000   -1.689000
      5          1           0       -0.000000   -0.924000   -1.689000
 ---------------------------------------------------------------------

 SCF Done:  E(RHF) =  -114.630763470     A.U. after   16 cycles
 E2 =    -0.4287242038D+00 EUMP2 =    -0.11505948767387D+03
 CCSD(T)
 CCSD(T)= -0.11511115692D+03

 The electronic state is 1-A1.
 Alpha  occ. eigenvalues --  -11.32530 -11.28323 -11.24419  -1.09831  -0.95629
 Alpha  occ. eigenvalues --   -0.72346  -0.66429  -0.45447  -0.44448  -0.39269
 Alpha virt. eigenvalues --   -0.00112   0.03411   0.05406   0.09270   0.10114
 Alpha virt. eigenvalues --    0.12213   0.13487   0.15127   0.16258   0.16669
 Alpha virt. eigenvalues --    0.16793   0.18985   0.19587   0.22594   0.23410

 Mulliken charges:
               1
     1  C   -0.448250
     2  C    0.498863
     3  C   -0.397182
     4  H    0.173285
     5  H    0.173285
 Sum of Mulliken charges =  -0.00000

 Dipole moment (field-independent basis, Debye):
    X=             -0.0000    Y=             -0.0000    Z=             -4.3526  Tot=              4.3526
 Quadrupole moment (field-independent basis, Debye-Ang):
   XX=            -18.4446   YY=            -18.3365   ZZ=            -20.1099
   XY=              0.0000   XZ=              0.0000   YZ=              0.0000

 \MP4DQ=-115.079032\MP4SDQ=-115.0853168\CCSD=-115.0851734\CCSD(T)=-115.
 Normal termination of Gaussian 09 at Tue Nov 22 18:25:35 2016.
