 Gaussian 09, Revision E.01,
 Gaussian 09:  EM64L-G09RevE.01 30-Nov-2015

 ---------------------------------------------------------
 #p ccsd(t)/6-311++G(3df,2p) scf(MaxCyc=300) guess(Huckel)
 ---------------------------------------------------------

 -------------
 ccsd(t) iener
 -------------
 Symbolic Z-matrix:
 Charge =  0 Multiplicity = 1

                         Standard orientation:
 ---------------------------------------------------------------------
 Center     Atomic      Atomic             Coordinates (Angstroms)
 Number     Number       Type             X           Y           Z
 ---------------------------------------------------------------------
      1          6           0        0.000000    0.000000    0.000000
      2          6           0        0.000000    1.283862    0.000000
      3          6           0       -0.000000   -1.283862    0.000000
      4          1           0        0.835465    1.968544    0.000000
      5          1           0       -0.835465   -1.968544    0.000000
 ---------------------------------------------------------------------

 SCF Done:  E(RHF) =  -114.607700559     A.U. after   13 cycles
 E2 =    -0.4306280658D+00 EUMP2 =    -0.11503832862489D+03
 CCSD(T)
 CCSD(T)= -0.11509032742D+03

 The electronic state is 1-AG.
 Alpha  occ. eigenvalues --  -11.28271 -11.28243 -11.27359  -1.09441  -0.95417
 Alpha  occ. eigenvalues --   -0.71697  -0.66943  -0.48284  -0.45170  -0.34906
 Alpha virt. eigenvalues --    0.00911   0.04491   0.05263   0.09425   0.10232
 Alpha virt. eigenvalues --    0.11469   0.13804   0.14088   0.16180   0.16594
 Alpha virt. eigenvalues --    0.17446   0.18922   0.18934   0.21343   0.25045

 Mulliken charges:
               1
     1  C    0.502461
     2  C   -0.469877
     3  C   -0.469877
     4  H    0.218646
     5  H    0.218646
 Sum of Mulliken charges =   0.00000

 Dipole moment (field-independent basis, Debye):
    X=             -0.0000    Y=             -0.0000    Z=              0.0000  Tot=              0.0000
 Quadrupole moment (field-independent basis, Debye-Ang):
   XX=            -19.3160   YY=            -16.6830   ZZ=            -18.2408
   XY=              6.0987   XZ=              0.0000   YZ=              0.0000

 2\CCSD(T)=-115.0903274\RMSD=3.887e-09\PG=C02H [O(C1),SGH(C2H2)]\\@
 Normal termination of Gaussian 09 at Tue Nov 22 18:25:36 2016.
