 Gaussian 09, Revision E.01,
 Gaussian 09:  EM64L-G09RevE.01 30-Nov-2015

 ---------------------------------------------------------
 #p ccsd(t)/6-311++G(3df,2p) scf(MaxCyc=300) guess(Huckel)
 ---------------------------------------------------------

 -------------
 ccsd(t) iener
 -------------
 Symbolic Z-matrix:
 Charge =  0 Multiplicity = 1

                         Standard orientation:
 ---------------------------------------------------------------------
 Center     Atomic      Atomic             Coordinates (Angstroms)
 Number     Number       Type             X           Y           Z
 ---------------------------------------------------------------------
      1          6           0        0.000000   -0.000000    0.045715
      2          6           0        0.000000    1.274625   -0.126620
      3          6           0       -0.000000   -1.274625   -0.126620
      4          1           0        0.000000   -2.052876    0.622571
      5          1           0        0.000000    2.052876    0.622571
 ---------------------------------------------------------------------

 SCF Done:  E(RHF) =  -114.606946303     A.U. after   13 cycles
 E2 =    -0.4316262943D+00 EUMP2 =    -0.11503857259774D+03
 CCSD(T)
 CCSD(T)= -0.11509062160D+03

 The electronic state is 1-A1.
 Alpha  occ. eigenvalues --  -11.28237 -11.28212 -11.27266  -1.09393  -0.95331
 Alpha  occ. eigenvalues --   -0.72229  -0.65509  -0.48888  -0.45049  -0.34662
 Alpha virt. eigenvalues --    0.01002   0.04039   0.05359   0.09450   0.10483
 Alpha virt. eigenvalues --    0.10816   0.12188   0.15122   0.16226   0.16818
 Alpha virt. eigenvalues --    0.18035   0.18935   0.19841   0.20278   0.25011

 Mulliken charges:
               1
     1  C    0.725327
     2  C   -0.573406
     3  C   -0.573406
     4  H    0.210742
     5  H    0.210742
 Sum of Mulliken charges =  -0.00000

 Dipole moment (field-independent basis, Debye):
    X=              0.0000    Y=             -0.0000    Z=              2.6304  Tot=              2.6304
 Quadrupole moment (field-independent basis, Debye-Ang):
   XX=            -18.2282   YY=            -15.2850   ZZ=            -20.4871
   XY=             -0.0000   XZ=             -0.0000   YZ=              0.0000

 CCSD=-115.0628511\CCSD(T)=-115.0906216\RMSD=3.242e-09\PG=C02V [C2(C1),
 Normal termination of Gaussian 09 at Tue Nov 22 18:25:47 2016.
