 Gaussian 09, Revision E.01,
 Gaussian 09:  EM64L-G09RevE.01 30-Nov-2015

 ---------------------------------------------------------
 #p ccsd(t)/6-311++G(3df,2p) scf(MaxCyc=300) guess(Huckel)
 ---------------------------------------------------------

 -------------
 ccsd(t) iener
 -------------
 Symbolic Z-matrix:
 Charge =  0 Multiplicity = 3

                         Standard orientation:
 ---------------------------------------------------------------------
 Center     Atomic      Atomic             Coordinates (Angstroms)
 Number     Number       Type             X           Y           Z
 ---------------------------------------------------------------------
      1          6           0        1.250460   -0.040323    0.000000
      2          6           0        0.000000    0.467595    0.000000
      3          6           0       -1.029962   -0.434960    0.000000
      4          1           0       -1.169593   -1.501827    0.000000
      5          1           0       -0.153395    1.547957    0.000000
 ---------------------------------------------------------------------

 SCF Done:  E(UHF) =  -114.591149357     A.U. after   22 cycles
 E2 =    -0.3554972354D+00 EUMP2 =    -0.11494664659277D+03
 CCSD(T)
 CCSD(T)= -0.11501729425D+03

 The electronic state is 3-A".
 Alpha  occ. eigenvalues --  -11.30099 -11.28410 -11.25005  -1.11825  -0.92372
 Alpha  occ. eigenvalues --   -0.74978  -0.63864  -0.50944  -0.50445  -0.43369
 Alpha  occ. eigenvalues --   -0.36408
 Alpha virt. eigenvalues --    0.04064   0.04869   0.06149   0.10793   0.11333
 Alpha virt. eigenvalues --    0.12462   0.13395   0.15168   0.15284   0.16367
 Alpha virt. eigenvalues --    0.17932   0.18381   0.18668   0.19875   0.22318

  Beta  occ. eigenvalues --  -11.28232 -11.26478 -11.24071  -1.08862  -0.80306
  Beta  occ. eigenvalues --   -0.71510  -0.61839  -0.45942  -0.44364
  Beta virt. eigenvalues --    0.03971   0.04645   0.05567   0.08442   0.08679
  Beta virt. eigenvalues --    0.10828   0.12062   0.14160   0.14987   0.16531
  Beta virt. eigenvalues --    0.17649   0.18241   0.18676   0.19731   0.19983

 Mulliken charges and spin densities:
               1          2
     1  C   -0.537039   0.858163
     2  C    0.597401  -0.982788
     3  C   -0.378995   2.081286
     4  H    0.194091  -0.054167
     5  H    0.124542   0.097507
 Sum of Mulliken charges =  -0.00000   2.00000

 Dipole moment (field-independent basis, Debye):
    X=             -1.4681    Y=              0.4695    Z=              0.0000  Tot=              1.5414
 Quadrupole moment (field-independent basis, Debye-Ang):
   XX=            -22.1553   YY=            -14.4902   ZZ=            -20.2015
   XY=              1.7294   XZ=              0.0000   YZ=              0.0000

 .9973488\CCSD(T)=-115.0172942\S2=2.463018\S2-1=2.380379\S2A=2.097828\R
 Normal termination of Gaussian 09 at Tue Nov 22 18:35:27 2016.
