 Gaussian 09, Revision D.01,
 Gaussian 09:  EM64L-G09RevD.01 24-Apr-2013

 --------------------------------------
 #p ccsd(t,maxcyc=200)/6-311++G(3df,2p)
 --------------------------------------

 -------------
 ccsd(t) iener
 -------------
 Symbolic Z-matrix:
 Charge =  1 Multiplicity = 3

                         Standard orientation:
 ---------------------------------------------------------------------
 Center     Atomic      Atomic             Coordinates (Angstroms)
 Number     Number       Type             X           Y           Z
 ---------------------------------------------------------------------
      1          6           0        0.636112   -0.000039    0.084560
      2          6           0       -0.766471    0.000062   -0.040856
      3          1           0       -1.384545    0.911887    0.024665
      4          1           0        1.134884   -0.002204    1.055393
      5          1           0        1.206398    0.677985   -0.680765
      6          1           0       -1.383242   -0.913105    0.020602
      7          1           0        1.208660   -0.674700   -0.682123
 ---------------------------------------------------------------------

 SCF Done:  E(UHF) =  -78.2085170563     A.U. after   16 cycles
 E2 =    -0.2937478074D+00 EUMP2 =    -0.78502264863730D+02
 CCSD(T)
 CCSD(T)= -0.78549190437D+02

 The electronic state is 3-A.
 Alpha  occ. eigenvalues --  -11.59052 -11.48443  -1.37719  -1.15382  -0.94440
 Alpha  occ. eigenvalues --   -0.89827  -0.87844  -0.76273  -0.62128
 Alpha virt. eigenvalues --   -0.12344  -0.08601  -0.08250  -0.07533  -0.05166
 Alpha virt. eigenvalues --   -0.03361  -0.02410  -0.00994  -0.00485   0.00947
 Alpha virt. eigenvalues --    0.02004   0.03805   0.04507   0.04683   0.06533

  Beta  occ. eigenvalues --  -11.58329 -11.46108  -1.28364  -1.04939  -0.89309
  Beta  occ. eigenvalues --   -0.84670  -0.78802
  Beta virt. eigenvalues --   -0.32568  -0.12377  -0.11764  -0.07835  -0.07255
  Beta virt. eigenvalues --   -0.07194  -0.03839  -0.03047  -0.01301  -0.00618
  Beta virt. eigenvalues --    0.01670   0.02595   0.04297   0.04706   0.05168

 Mulliken charges and spin densities:
               1          2
     1  C    0.055007   0.274448
     2  C   -0.168097   1.135136
     3  H    0.200438   0.008403
     4  H    0.210824   0.029846
     5  H    0.250770   0.271619
     6  H    0.200361   0.008827
     7  H    0.250696   0.271722
 Sum of Mulliken charges =   1.00000   2.00000

 Dipole moment (field-independent basis, Debye):
    X=              2.4802    Y=              0.0013    Z=             -0.7142  Tot=              2.5810
 Quadrupole moment (field-independent basis, Debye-Ang):
   XX=             -5.0056   YY=             -9.9367   ZZ=            -11.0607
   XY=              0.0015   XZ=             -1.4905   YZ=              0.0003

 78.5373376\CCSD(T)=-78.5491904\S2=2.015384\S2-1=2.001917\S2A=2.000118\
 Normal termination of Gaussian 09 at Fri Aug  9 03:00:23 2019.
