 Gaussian 09, Revision D.01,
 Gaussian 09:  EM64L-G09RevD.01 24-Apr-2013

 --------------------------------------
 #p ccsd(t,maxcyc=200)/6-311++G(3df,2p)
 --------------------------------------

 -------------
 ccsd(t) iener
 -------------
 Symbolic Z-matrix:
 Charge =  0 Multiplicity = 2

                         Standard orientation:
 ---------------------------------------------------------------------
 Center     Atomic      Atomic             Coordinates (Angstroms)
 Number     Number       Type             X           Y           Z
 ---------------------------------------------------------------------
      1          6           0        0.009346   -0.691687    0.000000
      2          6           0        0.009346    0.792089    0.000000
      3          1           0       -0.052861    1.348760    0.923972
      4          1           0       -1.011756   -1.101521    0.000000
      5          1           0        0.502662   -1.099205    0.884445
      6          1           0       -0.052861    1.348760   -0.923972
      7          1           0        0.502662   -1.099205   -0.884445
 ---------------------------------------------------------------------

 SCF Done:  E(UHF) =  -78.6259527370     A.U. after   15 cycles
 E2 =    -0.3249946530D+00 EUMP2 =    -0.78950947389976D+02
 CCSD(T)
 CCSD(T)= -0.78995811149D+02

 The electronic state is 2-A'.
 Alpha  occ. eigenvalues --  -11.22711 -11.21601  -1.03076  -0.84030  -0.61851
 Alpha  occ. eigenvalues --   -0.57591  -0.54427  -0.50442  -0.34852
 Alpha virt. eigenvalues --    0.04464   0.06050   0.06566   0.07534   0.09410
 Alpha virt. eigenvalues --    0.13856   0.14693   0.15248   0.15644   0.17987
 Alpha virt. eigenvalues --    0.19747   0.20457   0.20606   0.26867   0.28415

  Beta  occ. eigenvalues --  -11.21921 -11.20334  -0.99459  -0.78723  -0.60835
  Beta  occ. eigenvalues --   -0.54385  -0.53218  -0.49881
  Beta virt. eigenvalues --    0.04540   0.06156   0.06598   0.07380   0.09430
  Beta virt. eigenvalues --    0.09751   0.13897   0.15314   0.15734   0.17793
  Beta virt. eigenvalues --    0.19919   0.20735   0.20827   0.22341   0.28100

 Mulliken charges and spin densities:
               1          2
     1  C   -0.195011  -0.229498
     2  C   -0.340267   1.270639
     3  H    0.106303  -0.074704
     4  H    0.105740   0.072867
     5  H    0.108466   0.017700
     6  H    0.106303  -0.074704
     7  H    0.108466   0.017700
 Sum of Mulliken charges =   0.00000   1.00000

 Dipole moment (field-independent basis, Debye):
    X=             -0.1000    Y=             -0.1841    Z=              0.0000  Tot=              0.2095
 Quadrupole moment (field-independent basis, Debye-Ang):
   XX=            -15.3501   YY=            -14.4733   ZZ=            -13.6918
   XY=             -0.1694   XZ=              0.0000   YZ=              0.0000

 9831\CCSD(T)=-78.9958111\S2=0.76336\S2-1=0.75354\S2A=0.750119\RMSD=6.6
 Normal termination of Gaussian 09 at Fri Aug  9 02:59:27 2019.
