 Gaussian 09, Revision D.01,
 Gaussian 09:  EM64L-G09RevD.01 24-Apr-2013

 --------------------------------------
 #p ccsd(t,maxcyc=200)/6-311++G(3df,2p)
 --------------------------------------

 -------------
 ccsd(t) iener
 -------------
 Symbolic Z-matrix:
 Charge =  0 Multiplicity = 4

                         Standard orientation:
 ---------------------------------------------------------------------
 Center     Atomic      Atomic             Coordinates (Angstroms)
 Number     Number       Type             X           Y           Z
 ---------------------------------------------------------------------
      1          6           0        0.044656   -0.551659    0.000317
      2          6           0       -1.242795    0.153628   -0.000079
      3          6           0        1.404344    0.059843    0.000015
      4          1           0        1.783076    0.501754   -0.919784
      5          1           0        1.782835    0.503346    0.919146
      6          1           0       -1.363680    0.793959   -0.886373
      7          1           0       -1.367194    0.789374    0.889001
      8          1           0       -2.072266   -0.559302   -0.003509
 ---------------------------------------------------------------------

 SCF Done:  E(UHF) =  -116.399180852     A.U. after   15 cycles
 E2 =    -0.4175427019D+00 EUMP2 =    -0.11681672355352D+03
 CCSD(T)
 CCSD(T)= -0.11687704990D+03

 The electronic state is 4-A.
 Alpha  occ. eigenvalues --  -11.25736 -11.24816 -11.22434  -1.08240  -0.95295
 Alpha  occ. eigenvalues --   -0.77305  -0.62607  -0.59912  -0.57058  -0.56599
 Alpha  occ. eigenvalues --   -0.46208  -0.35093  -0.34159
 Alpha virt. eigenvalues --    0.04393   0.05796   0.06400   0.07524   0.09246
 Alpha virt. eigenvalues --    0.11051   0.13409   0.13948   0.15730   0.16702
 Alpha virt. eigenvalues --    0.18182   0.18183   0.18858   0.20106   0.20558

  Beta  occ. eigenvalues --  -11.22591 -11.22531 -11.21000  -0.99477  -0.88020
  Beta  occ. eigenvalues --   -0.66120  -0.57281  -0.56141  -0.54476  -0.52177
  Beta virt. eigenvalues --    0.03875   0.04879   0.06361   0.06484   0.08024
  Beta virt. eigenvalues --    0.09289   0.10846   0.12004   0.13712   0.15270
  Beta virt. eigenvalues --    0.16652   0.17823   0.18585   0.19289   0.19742

 Mulliken charges and spin densities:
               1          2
     1  C   -0.107285   2.109012
     2  C   -0.245457  -0.295547
     3  C   -0.280477   1.057345
     4  H    0.133367  -0.020123
     5  H    0.133363  -0.020090
     6  H    0.128297   0.070795
     7  H    0.128307   0.070814
     8  H    0.109885   0.027795
 Sum of Mulliken charges =   0.00000   3.00000

 Dipole moment (field-independent basis, Debye):
    X=             -0.3664    Y=              0.8912    Z=             -0.0008  Tot=              0.9636
 Quadrupole moment (field-independent basis, Debye-Ang):
   XX=            -19.5079   YY=            -21.1977   ZZ=            -19.6593
   XY=              0.9830   XZ=             -0.0004   YZ=              0.0013

 MP3-0=-116.8566844\MP4SDQ=-116.8596074\CCSD=-116.8605676\CCSD(T)=-116.
 Normal termination of Gaussian 09 at Fri Aug  9 03:39:39 2019.
