 Gaussian 09, Revision D.01,
 Gaussian 09:  EM64L-G09RevD.01 24-Apr-2013

 --------------------------------------
 #p ccsd(t,maxcyc=200)/6-311++G(3df,2p)
 --------------------------------------

 -------------
 ccsd(t) iener
 -------------
 Symbolic Z-matrix:
 Charge =  0 Multiplicity = 4

                         Standard orientation:
 ---------------------------------------------------------------------
 Center     Atomic      Atomic             Coordinates (Angstroms)
 Number     Number       Type             X           Y           Z
 ---------------------------------------------------------------------
      1          6           0        0.000000    1.295105   -0.206424
      2          6           0        0.000000    0.000000    0.454138
      3          6           0        0.000000   -1.295105   -0.206424
      4          1           0       -0.924344   -1.810017   -0.449099
      5          1           0       -0.924344    1.810017   -0.449099
      6          1           0        0.924344   -1.810017   -0.449099
      7          1           0        0.924344    1.810017   -0.449099
      8          1           0        0.000000    0.000000    1.548653
 ---------------------------------------------------------------------

 SCF Done:  E(UHF) =  -116.409056701     A.U. after   15 cycles
 E2 =    -0.4239599443D+00 EUMP2 =    -0.11683301664523D+03
 CCSD(T)
 CCSD(T)= -0.11689433785D+03

 The electronic state is 4-A2.
 Alpha  occ. eigenvalues --  -11.23754 -11.23502 -11.23486  -1.08530  -0.94838
 Alpha  occ. eigenvalues --   -0.79210  -0.62936  -0.61210  -0.58170  -0.57891
 Alpha  occ. eigenvalues --   -0.36690  -0.35885  -0.33907
 Alpha virt. eigenvalues --    0.04486   0.06037   0.06176   0.06303   0.08567
 Alpha virt. eigenvalues --    0.12451   0.13747   0.14185   0.15457   0.16931
 Alpha virt. eigenvalues --    0.17985   0.18661   0.19881   0.20001   0.21477

  Beta  occ. eigenvalues --  -11.21919 -11.21290 -11.21284  -0.97724  -0.84988
  Beta  occ. eigenvalues --   -0.71341  -0.57343  -0.55134  -0.55079  -0.54244
  Beta virt. eigenvalues --    0.04568   0.05919   0.06013   0.06274   0.08534
  Beta virt. eigenvalues --    0.08641   0.10341   0.10386   0.13293   0.16513
  Beta virt. eigenvalues --    0.17349   0.18266   0.18892   0.19096   0.20689

 Mulliken charges and spin densities:
               1          2
     1  C   -0.242594   1.095290
     2  C   -0.127965   0.896968
     3  C   -0.242594   1.095290
     4  H    0.121747  -0.024987
     5  H    0.121747  -0.024987
     6  H    0.121747  -0.024987
     7  H    0.121747  -0.024987
     8  H    0.126164   0.012401
 Sum of Mulliken charges =   0.00000   3.00000

 Dipole moment (field-independent basis, Debye):
    X=              0.0000    Y=              0.0000    Z=              0.0715  Tot=              0.0715
 Quadrupole moment (field-independent basis, Debye-Ang):
   XX=            -19.1936   YY=            -19.6423   ZZ=            -20.7117
   XY=              0.0000   XZ=              0.0000   YZ=              0.0000

 3\PMP3-0=-116.8737979\MP4SDQ=-116.8764925\CCSD=-116.8775575\CCSD(T)=-1
 Normal termination of Gaussian 09 at Fri Aug  9 03:16:19 2019.
