 Gaussian 09, Revision D.01,
 Gaussian 09:  EM64L-G09RevD.01 24-Apr-2013

 --------------------------------------
 #p ccsd(t,maxcyc=200)/6-311++G(3df,2p)
 --------------------------------------

 -------------
 ccsd(t) iener
 -------------
 Symbolic Z-matrix:
 Charge =  1 Multiplicity = 3

                         Standard orientation:
 ---------------------------------------------------------------------
 Center     Atomic      Atomic             Coordinates (Angstroms)
 Number     Number       Type             X           Y           Z
 ---------------------------------------------------------------------
      1          6           0       -0.072893   -0.367613   -0.001097
      2          6           0        1.265022    0.096963   -0.000713
      3          6           0       -1.381771    0.093034    0.000176
      4          1           0       -1.607863    1.160845    0.000185
      5          1           0       -2.214461   -0.604975    0.000693
      6          1           0        1.789678   -0.325285    0.875425
      7          1           0        1.364331    1.187870   -0.014799
      8          1           0        1.806162   -0.352757   -0.851701
 ---------------------------------------------------------------------

 SCF Done:  E(UHF) =  -116.167315703     A.U. after   15 cycles
 E2 =    -0.4087239380D+00 EUMP2 =    -0.11657603964125D+03
 CCSD(T)
 CCSD(T)= -0.11663487093D+03

 The electronic state is 3-A.
 Alpha  occ. eigenvalues --  -11.59148 -11.56297 -11.45846  -1.38733  -1.23161
 Alpha  occ. eigenvalues --   -1.01906  -0.91885  -0.87452  -0.82236  -0.80817
 Alpha  occ. eigenvalues --   -0.68802  -0.66493
 Alpha virt. eigenvalues --   -0.15586  -0.10079  -0.07182  -0.07047  -0.05624
 Alpha virt. eigenvalues --   -0.03666  -0.03483  -0.02168  -0.01089  -0.00442
 Alpha virt. eigenvalues --    0.01977   0.02847   0.03718   0.04520   0.04581

  Beta  occ. eigenvalues --  -11.55770 -11.55171 -11.46031  -1.29109  -1.19565
  Beta  occ. eigenvalues --   -0.95699  -0.86815  -0.83924  -0.78512  -0.78120
  Beta virt. eigenvalues --   -0.24636  -0.14473  -0.09119  -0.07023  -0.06870
  Beta virt. eigenvalues --   -0.06189  -0.04113  -0.03498  -0.02995  -0.00403
  Beta virt. eigenvalues --   -0.00227   0.00632   0.02102   0.03915   0.04306

 Mulliken charges and spin densities:
               1          2
     1  C    0.379404   1.496295
     2  C   -0.234675  -0.150418
     3  C   -0.171902   0.496536
     4  H    0.195052   0.020139
     5  H    0.230259  -0.010642
     6  H    0.207755   0.038556
     7  H    0.187553   0.071150
     8  H    0.206555   0.038383
 Sum of Mulliken charges =   1.00000   2.00000

 Dipole moment (field-independent basis, Debye):
    X=             -1.4743    Y=              0.2849    Z=              0.0079  Tot=              1.5016
 Quadrupole moment (field-independent basis, Debye-Ang):
   XX=             -5.4771   YY=            -15.4093   ZZ=            -16.5512
   XY=             -0.4665   XZ=              0.0110   YZ=             -0.0005

 PMP3-0=-116.6139293\MP4SDQ=-116.6172078\CCSD=-116.6179791\CCSD(T)=-116
 Normal termination of Gaussian 09 at Fri Aug  9 04:11:18 2019.
