 Gaussian 09, Revision D.01,
 Gaussian 09:  EM64L-G09RevD.01 24-Apr-2013

 --------------------------------------
 #p ccsd(t,maxcyc=200)/6-311++G(3df,2p)
 --------------------------------------

 -------------
 ccsd(t) iener
 -------------
 Symbolic Z-matrix:
 Charge =  0 Multiplicity = 2

                         Standard orientation:
 ---------------------------------------------------------------------
 Center     Atomic      Atomic             Coordinates (Angstroms)
 Number     Number       Type             X           Y           Z
 ---------------------------------------------------------------------
      1          6           0        0.000000    0.395211    0.000000
      2          6           0       -1.180430   -0.471709    0.000000
      3          6           0        1.303114    0.332049    0.000000
      4          1           0        1.827432   -0.626866    0.000000
      5          1           0        1.931085    1.216124    0.000000
      6          1           0       -1.802387   -0.295550    0.879975
      7          1           0       -0.889846   -1.531469    0.000000
      8          1           0       -1.802387   -0.295550   -0.879975
 ---------------------------------------------------------------------

 SCF Done:  E(UHF) =  -116.473915198     A.U. after   21 cycles
 E2 =    -0.4563093757D+00 EUMP2 =    -0.11693022457396D+03
 CCSD(T)
 CCSD(T)= -0.11699412173D+03

 The electronic state is 2-A'.
 Alpha  occ. eigenvalues --  -11.25048 -11.23384 -11.21268  -1.08280  -0.94850
 Alpha  occ. eigenvalues --   -0.73570  -0.63172  -0.60011  -0.58840  -0.54998
 Alpha  occ. eigenvalues --   -0.37878  -0.37123
 Alpha virt. eigenvalues --    0.04245   0.05910   0.06230   0.07279   0.08933
 Alpha virt. eigenvalues --    0.11123   0.11420   0.15023   0.15110   0.16695
 Alpha virt. eigenvalues --    0.17920   0.18003   0.18748   0.19815   0.21350

  Beta  occ. eigenvalues --  -11.23572 -11.22416 -11.21683  -1.03772  -0.95567
  Beta  occ. eigenvalues --   -0.69064  -0.59110  -0.57803  -0.57340  -0.54043
  Beta  occ. eigenvalues --   -0.37840
  Beta virt. eigenvalues --    0.03955   0.05895   0.06300   0.07401   0.08928
  Beta virt. eigenvalues --    0.09568   0.12890   0.13312   0.15247   0.15582
  Beta virt. eigenvalues --    0.16777   0.16827   0.18744   0.19746   0.20953

 Mulliken charges and spin densities:
               1          2
     1  C    0.091079   1.692586
     2  C   -0.304784  -0.198269
     3  C   -0.396539  -0.787014
     4  H    0.091164   0.114477
     5  H    0.137417   0.065818
     6  H    0.131957   0.020177
     7  H    0.117749   0.072048
     8  H    0.131957   0.020177
 Sum of Mulliken charges =   0.00000   1.00000

 Dipole moment (field-independent basis, Debye):
    X=             -0.4066    Y=             -0.6986    Z=              0.0000  Tot=              0.8084
 Quadrupole moment (field-independent basis, Debye-Ang):
   XX=            -17.7092   YY=            -19.5937   ZZ=            -21.2321
   XY=              0.4257   XZ=              0.0000   YZ=              0.0000

 P3-0=-116.9706393\MP4SDQ=-116.968518\CCSD=-116.9730465\CCSD(T)=-116.99
 Normal termination of Gaussian 09 at Fri Aug  9 03:10:29 2019.
