 Gaussian 09, Revision D.01,
 Gaussian 09:  EM64L-G09RevD.01 24-Apr-2013

 --------------------------------------
 #p ccsd(t,maxcyc=200)/6-311++G(3df,2p)
 --------------------------------------

 -------------
 ccsd(t) iener
 -------------
 Symbolic Z-matrix:
 Charge =  1 Multiplicity = 3

                         Standard orientation:
 ---------------------------------------------------------------------
 Center     Atomic      Atomic             Coordinates (Angstroms)
 Number     Number       Type             X           Y           Z
 ---------------------------------------------------------------------
      1          6           0        0.013668   -0.188268    1.290291
      2          6           0        0.013668   -0.188268   -1.290291
      3          6           0        0.013668    0.389710    0.000000
      4          1           0       -0.115066    1.482086    0.000000
      5          1           0        0.444287    0.341761    2.131594
      6          1           0        0.444287    0.341761   -2.131594
      7          1           0       -0.509770   -1.122328   -1.478978
      8          1           0       -0.509770   -1.122328    1.478978
 ---------------------------------------------------------------------

 SCF Done:  E(UHF) =  -116.172016013     A.U. after   16 cycles
 E2 =    -0.4065032674D+00 EUMP2 =    -0.11657851928038D+03
 CCSD(T)
 CCSD(T)= -0.11663923665D+03

 The electronic state is 3-A".
 Alpha  occ. eigenvalues --  -11.58382 -11.50976 -11.50971  -1.37977  -1.22368
 Alpha  occ. eigenvalues --   -1.03826  -0.92044  -0.87479  -0.82071  -0.81607
 Alpha  occ. eigenvalues --   -0.71357  -0.59456
 Alpha virt. eigenvalues --   -0.15568  -0.09916  -0.07707  -0.07019  -0.05886
 Alpha virt. eigenvalues --   -0.03686  -0.03151  -0.00894  -0.00466  -0.00158
 Alpha virt. eigenvalues --    0.01997   0.02146   0.03728   0.05068   0.05071

  Beta  occ. eigenvalues --  -11.57986 -11.49115 -11.49113  -1.30355  -1.14195
  Beta  occ. eigenvalues --   -0.99647  -0.89400  -0.85251  -0.80092  -0.78929
  Beta virt. eigenvalues --   -0.25276  -0.12345  -0.09669  -0.07511  -0.06694
  Beta virt. eigenvalues --   -0.06580  -0.04749  -0.03597  -0.02014   0.00158
  Beta virt. eigenvalues --    0.01718   0.01745   0.02874   0.04005   0.04150

 Mulliken charges and spin densities:
               1          2
     1  C   -0.222956   0.945484
     2  C   -0.222956   0.945484
     3  C    0.433015   0.271781
     4  H    0.217854   0.001177
     5  H    0.203175  -0.048907
     6  H    0.203175  -0.048907
     7  H    0.194347  -0.033056
     8  H    0.194347  -0.033056
 Sum of Mulliken charges =   1.00000   2.00000

 Dipole moment (field-independent basis, Debye):
    X=             -0.1054    Y=              0.5022    Z=              0.0000  Tot=              0.5131
 Quadrupole moment (field-independent basis, Debye-Ang):
   XX=            -17.3077   YY=            -13.4118   ZZ=             -7.6343
   XY=              1.3818   XZ=              0.0000   YZ=              0.0000

 PMP3-0=-116.6187793\MP4SDQ=-116.6212838\CCSD=-116.6226135\CCSD(T)=-116
 Normal termination of Gaussian 09 at Fri Aug  9 03:56:07 2019.
