 Gaussian 09, Revision D.01,
 Gaussian 09:  EM64L-G09RevD.01 24-Apr-2013

 --------------------------------------
 #p ccsd(t,maxcyc=200)/6-311++G(3df,2p)
 --------------------------------------

 -------------
 ccsd(t) iener
 -------------
 Symbolic Z-matrix:
 Charge =  1 Multiplicity = 1

                         Standard orientation:
 ---------------------------------------------------------------------
 Center     Atomic      Atomic             Coordinates (Angstroms)
 Number     Number       Type             X           Y           Z
 ---------------------------------------------------------------------
      1          6           0       -0.108115   -0.027640   -0.000046
      2          6           0        1.294164   -0.017447    0.000257
      3          6           0       -1.371860    0.004215    0.000059
      4          1           0       -1.923577    0.946328    0.000225
      5          1           0       -1.949339   -0.923813   -0.000241
      6          1           0        1.729139   -0.420931    0.917888
      7          1           0        1.529796    1.070928   -0.004624
      8          1           0        1.728843   -0.427278   -0.914866
 ---------------------------------------------------------------------

 SCF Done:  E(RHF) =  -116.206395568     A.U. after   14 cycles
 E2 =    -0.4525438921D+00 EUMP2 =    -0.11665893945966D+03
 CCSD(T)
 CCSD(T)= -0.11671524816D+03

 The electronic state is 1-A.
 Alpha  occ. eigenvalues --  -11.59588 -11.50329 -11.48315  -1.36187  -1.24782
 Alpha  occ. eigenvalues --   -0.97197  -0.88019  -0.87125  -0.84569  -0.79972
 Alpha  occ. eigenvalues --   -0.66371
 Alpha virt. eigenvalues --   -0.18396  -0.10477  -0.09363  -0.07135  -0.06968
 Alpha virt. eigenvalues --   -0.05059  -0.03957  -0.03484  -0.00964  -0.00956
 Alpha virt. eigenvalues --    0.00907   0.01399   0.02766   0.04001   0.04890

 Mulliken charges:
               1
     1  C    0.313241
     2  C   -0.293744
     3  C   -0.126371
     4  H    0.247067
     5  H    0.239926
     6  H    0.206256
     7  H    0.207192
     8  H    0.206433
 Sum of Mulliken charges =   1.00000

 Dipole moment (field-independent basis, Debye):
    X=             -0.5050    Y=              0.2072    Z=             -0.0021  Tot=              0.5458
 Quadrupole moment (field-independent basis, Debye-Ang):
   XX=             -4.8098   YY=            -13.9299   ZZ=            -17.6915
   XY=              0.3289   XZ=             -0.0040   YZ=             -0.0002

 CCSD(T)=-116.7152482\RMSD=3.069e-09\PG=C01 [X(C3H5)]\\@
 Normal termination of Gaussian 09 at Fri Aug  9 03:45:14 2019.
