 Gaussian 09, Revision D.01,
 Gaussian 09:  EM64L-G09RevD.01 24-Apr-2013

 --------------------------------------
 #p ccsd(t,maxcyc=200)/6-311++G(3df,2p)
 --------------------------------------

 -------------
 ccsd(t) iener
 -------------
 Symbolic Z-matrix:
 Charge =  0 Multiplicity = 4

                         Standard orientation:
 ---------------------------------------------------------------------
 Center     Atomic      Atomic             Coordinates (Angstroms)
 Number     Number       Type             X           Y           Z
 ---------------------------------------------------------------------
      1          6           0        0.131329    0.535939   -0.080761
      2          6           0       -1.148466   -0.217880    0.008562
      3          6           0        1.414576   -0.227890   -0.131062
      4          1           0        1.908420   -0.767085    0.680623
      5          1           0        0.167234    1.509919    0.405715
      6          1           0       -1.238907   -0.946871   -0.800281
      7          1           0       -1.214775   -0.792254    0.947138
      8          1           0       -2.006603    0.455272   -0.013627
 ---------------------------------------------------------------------

 SCF Done:  E(UHF) =  -116.395989707     A.U. after   16 cycles
 E2 =    -0.4174864214D+00 EUMP2 =    -0.11681347612876D+03
 CCSD(T)
 CCSD(T)= -0.11687348992D+03

 The electronic state is 4-A.
 Alpha  occ. eigenvalues --  -11.26387 -11.24940 -11.22194  -1.08165  -0.94004
 Alpha  occ. eigenvalues --   -0.79246  -0.63140  -0.59190  -0.57270  -0.52825
 Alpha  occ. eigenvalues --   -0.47230  -0.38129  -0.33071
 Alpha virt. eigenvalues --    0.04321   0.05913   0.06058   0.07698   0.08637
 Alpha virt. eigenvalues --    0.12797   0.13057   0.14237   0.14654   0.17282
 Alpha virt. eigenvalues --    0.17793   0.18018   0.19027   0.19440   0.20712

  Beta  occ. eigenvalues --  -11.22631 -11.22294 -11.21695  -1.01011  -0.84238
  Beta  occ. eigenvalues --   -0.69346  -0.59872  -0.54938  -0.53234  -0.50262
  Beta virt. eigenvalues --    0.04083   0.05011   0.05917   0.06172   0.08283
  Beta virt. eigenvalues --    0.08697   0.10283   0.11897   0.14327   0.15826
  Beta virt. eigenvalues --    0.17491   0.17823   0.18028   0.18898   0.19068

 Mulliken charges and spin densities:
               1          2
     1  C   -0.023544   0.999778
     2  C   -0.246360  -0.173329
     3  C   -0.318491   2.097547
     4  H    0.126344  -0.010555
     5  H    0.107389  -0.019699
     6  H    0.130179   0.022166
     7  H    0.121609   0.071842
     8  H    0.102874   0.012250
 Sum of Mulliken charges =   0.00000   3.00000

 Dipole moment (field-independent basis, Debye):
    X=             -0.6271    Y=             -0.0421    Z=              0.8347  Tot=              1.0448
 Quadrupole moment (field-independent basis, Debye-Ang):
   XX=            -20.6121   YY=            -19.9085   ZZ=            -20.4186
   XY=             -0.4438   XZ=              1.1020   YZ=              0.1066

 16.8530899\MP4SDQ=-116.8561217\CCSD=-116.8570318\CCSD(T)=-116.8734899\
 Normal termination of Gaussian 09 at Fri Aug  9 03:39:45 2019.
