 Gaussian 09, Revision D.01,
 Gaussian 09:  EM64L-G09RevD.01 24-Apr-2013

 --------------------------------------
 #p ccsd(t,maxcyc=200)/6-311++G(3df,2p)
 --------------------------------------

 -------------
 ccsd(t) iener
 -------------
 Symbolic Z-matrix:
 Charge =  1 Multiplicity = 3

                         Standard orientation:
 ---------------------------------------------------------------------
 Center     Atomic      Atomic             Coordinates (Angstroms)
 Number     Number       Type             X           Y           Z
 ---------------------------------------------------------------------
      1          6           0        0.000000    1.236751   -0.208226
      2          6           0        0.000000   -1.236751   -0.208226
      3          6           0        0.000000    0.000000    0.487907
      4          1           0        0.000000    0.000000    1.578946
      5          1           0        0.641618    2.045557    0.135154
      6          1           0       -0.641618   -2.045557    0.135154
      7          1           0        0.541002   -1.370425   -1.138994
      8          1           0       -0.541002    1.370425   -1.138994
 ---------------------------------------------------------------------

 SCF Done:  E(UHF) =  -116.173671755     A.U. after   16 cycles
 E2 =    -0.4075610615D+00 EUMP2 =    -0.11658123281605D+03
 CCSD(T)
 CCSD(T)= -0.11664179013D+03

 The electronic state is 3-B.
 Alpha  occ. eigenvalues --  -11.58340 -11.51129 -11.51126  -1.38222  -1.21375
 Alpha  occ. eigenvalues --   -1.04490  -0.91705  -0.87767  -0.84008  -0.80278
 Alpha  occ. eigenvalues --   -0.70266  -0.59838
 Alpha virt. eigenvalues --   -0.16167  -0.09801  -0.07691  -0.07050  -0.06106
 Alpha virt. eigenvalues --   -0.04104  -0.01911  -0.01522  -0.01049  -0.00554
 Alpha virt. eigenvalues --    0.02102   0.02616   0.03770   0.04368   0.04651

  Beta  occ. eigenvalues --  -11.57967 -11.49273 -11.49273  -1.30588  -1.13138
  Beta  occ. eigenvalues --   -1.00591  -0.88787  -0.85568  -0.80579  -0.78730
  Beta virt. eigenvalues --   -0.24472  -0.13808  -0.09440  -0.07505  -0.07291
  Beta virt. eigenvalues --   -0.06561  -0.04331  -0.03931  -0.00734  -0.00729
  Beta virt. eigenvalues --    0.01467   0.01546   0.02577   0.03378   0.04148

 Mulliken charges and spin densities:
               1          2
     1  C   -0.190843   0.915010
     2  C   -0.190843   0.915010
     3  C    0.378069   0.278078
     4  H    0.216063   0.018124
     5  H    0.186052  -0.022546
     6  H    0.186052  -0.022546
     7  H    0.207725  -0.040565
     8  H    0.207725  -0.040565
 Sum of Mulliken charges =   1.00000   2.00000

 Dipole moment (field-independent basis, Debye):
    X=              0.0000    Y=              0.0000    Z=              0.3968  Tot=              0.3968
 Quadrupole moment (field-independent basis, Debye-Ang):
   XX=            -16.7745   YY=             -8.6169   ZZ=            -13.3103
   XY=              1.1421   XZ=              0.0000   YZ=              0.0000

 3\PMP3-0=-116.6208976\MP4SDQ=-116.6238862\CCSD=-116.6250526\CCSD(T)=-1
 Normal termination of Gaussian 09 at Fri Aug  9 03:55:57 2019.
