 Gaussian 09, Revision D.01,
 Gaussian 09:  EM64L-G09RevD.01 24-Apr-2013

 --------------------------------------
 #p ccsd(t,maxcyc=200)/6-311++G(3df,2p)
 --------------------------------------

 -------------
 ccsd(t) iener
 -------------
 Symbolic Z-matrix:
 Charge =  0 Multiplicity = 2

                         Standard orientation:
 ---------------------------------------------------------------------
 Center     Atomic      Atomic             Coordinates (Angstroms)
 Number     Number       Type             X           Y           Z
 ---------------------------------------------------------------------
      1          6           0        0.000000    1.224358   -0.195487
      2          6           0        0.000000   -1.224358   -0.195487
      3          6           0        0.000000    0.000000    0.441388
      4          1           0        0.000000    0.000000    1.527297
      5          1           0        0.000000    2.150214    0.360720
      6          1           0        0.000000   -2.150214    0.360720
      7          1           0        0.000000   -1.292673   -1.275612
      8          1           0        0.000000    1.292673   -1.275612
 ---------------------------------------------------------------------

 SCF Done:  E(UHF) =  -116.508915145     A.U. after   16 cycles
 E2 =    -0.4522796188D+00 EUMP2 =    -0.11696119476359D+03
 CCSD(T)
 CCSD(T)= -0.11702580346D+03

 The electronic state is 2-A2.
 Alpha  occ. eigenvalues --  -11.23171 -11.23165 -11.22170  -1.07677  -0.94498
 Alpha  occ. eigenvalues --   -0.75934  -0.65408  -0.60369  -0.54317  -0.50925
 Alpha  occ. eigenvalues --   -0.46184  -0.33550
 Alpha virt. eigenvalues --    0.04284   0.05642   0.05813   0.07949   0.08370
 Alpha virt. eigenvalues --    0.11618   0.13974   0.15181   0.15198   0.16789
 Alpha virt. eigenvalues --    0.16951   0.18990   0.19777   0.20439   0.20624

  Beta  occ. eigenvalues --  -11.23541 -11.21322 -11.21318  -1.06229  -0.87700
  Beta  occ. eigenvalues --   -0.74983  -0.64718  -0.59488  -0.53369  -0.50614
  Beta  occ. eigenvalues --   -0.40386
  Beta virt. eigenvalues --    0.04347   0.05725   0.05833   0.07871   0.07974
  Beta virt. eigenvalues --    0.08403   0.10791   0.15224   0.15490   0.16969
  Beta virt. eigenvalues --    0.17027   0.19168   0.19696   0.20161   0.20470

 Mulliken charges and spin densities:
               1          2
     1  C   -0.467606   1.045826
     2  C   -0.467606   1.045826
     3  C    0.325584  -0.887078
     4  H    0.128597   0.041139
     5  H    0.125302  -0.067338
     6  H    0.125302  -0.067338
     7  H    0.115213  -0.055518
     8  H    0.115213  -0.055518
 Sum of Mulliken charges =   0.00000   1.00000

 Dipole moment (field-independent basis, Debye):
    X=              0.0000    Y=              0.0000    Z=              0.0260  Tot=              0.0260
 Quadrupole moment (field-independent basis, Debye-Ang):
   XX=            -22.5610   YY=            -18.0455   ZZ=            -17.7940
   XY=              0.0000   XZ=              0.0000   YZ=              0.0000

 P3-0=-117.0055689\MP4SDQ=-117.0003968\CCSD=-117.0048821\CCSD(T)=-117.0
 Normal termination of Gaussian 09 at Fri Aug  9 03:06:53 2019.
