 Gaussian 09, Revision D.01,
 Gaussian 09:  EM64L-G09RevD.01 24-Apr-2013

 --------------------------------------
 #p ccsd(t,maxcyc=200)/6-311++G(3df,2p)
 --------------------------------------

 -------------
 ccsd(t) iener
 -------------
 Symbolic Z-matrix:
 Charge =  1 Multiplicity = 3

                         Standard orientation:
 ---------------------------------------------------------------------
 Center     Atomic      Atomic             Coordinates (Angstroms)
 Number     Number       Type             X           Y           Z
 ---------------------------------------------------------------------
      1          6           0        0.000000    0.435298    0.000000
      2          6           0       -1.017002   -0.592145    0.000000
      3          6           0        1.364766    0.187061    0.000000
      4          1           0        2.282030    0.765169    0.000000
      5          1           0       -0.320321    1.481928    0.000000
      6          1           0       -0.645913   -1.610716    0.000000
      7          1           0       -1.701189   -0.408832    0.850569
      8          1           0       -1.701189   -0.408832   -0.850569
 ---------------------------------------------------------------------

 SCF Done:  E(UHF) =  -116.163222779     A.U. after   17 cycles
 E2 =    -0.4067892555D+00 EUMP2 =    -0.11657001203498D+03
 CCSD(T)
 CCSD(T)= -0.11662893393D+03

 The electronic state is 3-A".
 Alpha  occ. eigenvalues --  -11.58687 -11.57208 -11.45578  -1.38916  -1.21605
 Alpha  occ. eigenvalues --   -1.03749  -0.94224  -0.84593  -0.81498  -0.77777
 Alpha  occ. eigenvalues --   -0.69789  -0.69354
 Alpha virt. eigenvalues --   -0.15614  -0.10077  -0.07304  -0.07163  -0.06093
 Alpha virt. eigenvalues --   -0.03955  -0.02307  -0.01833  -0.01740  -0.00765
 Alpha virt. eigenvalues --    0.01460   0.02544   0.03535   0.04429   0.04549

  Beta  occ. eigenvalues --  -11.58260 -11.53133 -11.45542  -1.31937  -1.14983
  Beta  occ. eigenvalues --   -0.97871  -0.91336  -0.82004  -0.77391  -0.76705
  Beta virt. eigenvalues --   -0.24998  -0.14650  -0.09536  -0.07027  -0.06510
  Beta virt. eigenvalues --   -0.06434  -0.05015  -0.03642  -0.01799  -0.00243
  Beta virt. eigenvalues --   -0.00028   0.01400   0.01871   0.02817   0.03916

 Mulliken charges and spin densities:
               1          2
     1  C    0.387198   0.215936
     2  C   -0.260981   0.006661
     3  C   -0.174242   1.714204
     4  H    0.244384  -0.036970
     5  H    0.223305   0.030247
     6  H    0.183802   0.000167
     7  H    0.198267   0.034877
     8  H    0.198267   0.034877
 Sum of Mulliken charges =   1.00000   2.00000

 Dipole moment (field-independent basis, Debye):
    X=              0.8448    Y=              1.4751    Z=              0.0000  Tot=              1.6999
 Quadrupole moment (field-independent basis, Debye-Ang):
   XX=             -7.6370   YY=            -13.8385   ZZ=            -16.7190
   XY=              2.8087   XZ=              0.0000   YZ=              0.0000

 \PMP3-0=-116.6074807\MP4SDQ=-116.6110422\CCSD=-116.6121419\CCSD(T)=-11
 Normal termination of Gaussian 09 at Fri Aug  9 04:07:57 2019.
