 Gaussian 09, Revision D.01,
 Gaussian 09:  EM64L-G09RevD.01 24-Apr-2013

 --------------------------------------
 #p ccsd(t,maxcyc=200)/6-311++G(3df,2p)
 --------------------------------------

 -------------
 ccsd(t) iener
 -------------
 Symbolic Z-matrix:
 Charge =  1 Multiplicity = 1

                         Standard orientation:
 ---------------------------------------------------------------------
 Center     Atomic      Atomic             Coordinates (Angstroms)
 Number     Number       Type             X           Y           Z
 ---------------------------------------------------------------------
      1          6           0        1.184194   -0.210332    0.000000
      2          6           0        0.000000    0.492650    0.000000
      3          6           0       -1.184118   -0.210530    0.000000
      4          1           0       -2.145191    0.292250    0.000000
      5          1           0        2.145211    0.292520    0.000000
      6          1           0       -1.192983   -1.295421    0.000000
      7          1           0        1.192763   -1.295182    0.000000
      8          1           0       -0.000256    1.575107    0.000000
 ---------------------------------------------------------------------

 SCF Done:  E(RHF) =  -116.231254652     A.U. after   12 cycles
 E2 =    -0.4463933552D+00 EUMP2 =    -0.11667764800685D+03
 CCSD(T)
 CCSD(T)= -0.11673242186D+03

 The electronic state is 1-A'.
 Alpha  occ. eigenvalues --  -11.54942 -11.54939 -11.47646  -1.34839  -1.18104
 Alpha  occ. eigenvalues --   -1.02287  -0.92565  -0.87614  -0.80667  -0.77731
 Alpha  occ. eigenvalues --   -0.65657
 Alpha virt. eigenvalues --   -0.22223  -0.09603  -0.07624  -0.07342  -0.06875
 Alpha virt. eigenvalues --   -0.04241  -0.03848  -0.02253  -0.00740   0.00352
 Alpha virt. eigenvalues --    0.00827   0.01786   0.04160   0.04933   0.05115

 Mulliken charges:
               1
     1  C   -0.142339
     2  C    0.279706
     3  C   -0.142397
     4  H    0.205741
     5  H    0.205799
     6  H    0.197379
     7  H    0.197349
     8  H    0.198762
 Sum of Mulliken charges =   1.00000

 Dipole moment (field-independent basis, Debye):
    X=             -0.0003    Y=             -0.8149    Z=              0.0000  Tot=              0.8149
 Quadrupole moment (field-independent basis, Debye-Ang):
   XX=             -5.2303   YY=            -12.9840   ZZ=            -18.3971
   XY=              0.0013   XZ=              0.0000   YZ=              0.0000

 Normal termination of Gaussian 09 at Fri Aug  9 03:44:03 2019.
