 Gaussian 09, Revision D.01,
 Gaussian 09:  EM64L-G09RevD.01 24-Apr-2013

 --------------------------------------
 #p ccsd(t,maxcyc=200)/6-311++G(3df,2p)
 --------------------------------------

 -------------
 ccsd(t) iener
 -------------
 Symbolic Z-matrix:
 Charge =  0 Multiplicity = 2

                         Standard orientation:
 ---------------------------------------------------------------------
 Center     Atomic      Atomic             Coordinates (Angstroms)
 Number     Number       Type             X           Y           Z
 ---------------------------------------------------------------------
      1          6           0        0.000000    0.442252    0.000000
      2          6           0       -0.970674   -0.706955    0.000000
      3          6           0        1.301269    0.353719    0.000000
      4          1           0        2.153401    1.013045    0.000000
      5          1           0       -0.448356    1.441432    0.000000
      6          1           0       -0.451772   -1.663393    0.000000
      7          1           0       -1.618423   -0.662590    0.878364
      8          1           0       -1.618423   -0.662590   -0.878364
 ---------------------------------------------------------------------

 SCF Done:  E(UHF) =  -116.469055011     A.U. after   21 cycles
 E2 =    -0.4550007541D+00 EUMP2 =    -0.11692405576552D+03
 CCSD(T)
 CCSD(T)= -0.11698866253D+03

 The electronic state is 2-A'.
 Alpha  occ. eigenvalues --  -11.24513 -11.22695 -11.22435  -1.07214  -0.94621
 Alpha  occ. eigenvalues --   -0.74913  -0.65351  -0.56534  -0.56313  -0.53154
 Alpha  occ. eigenvalues --   -0.39419  -0.39145
 Alpha virt. eigenvalues --    0.04264   0.05643   0.06267   0.07406   0.08608
 Alpha virt. eigenvalues --    0.12232   0.12731   0.14041   0.14546   0.16465
 Alpha virt. eigenvalues --    0.17035   0.17963   0.18959   0.20077   0.20924

  Beta  occ. eigenvalues --  -11.23905 -11.22168 -11.21125  -1.05933  -0.90927
  Beta  occ. eigenvalues --   -0.70947  -0.63729  -0.57606  -0.54328  -0.52092
  Beta  occ. eigenvalues --   -0.37111
  Beta virt. eigenvalues --    0.04017   0.05622   0.06227   0.07347   0.08255
  Beta virt. eigenvalues --    0.09637   0.11797   0.13933   0.14853   0.15800
  Beta virt. eigenvalues --    0.16829   0.18180   0.18543   0.19607   0.20300

 Mulliken charges and spin densities:
               1          2
     1  C    0.116890  -0.885707
     2  C   -0.340204   0.122041
     3  C   -0.408974   1.717456
     4  H    0.165842  -0.023625
     5  H    0.114400   0.112221
     6  H    0.122762  -0.003174
     7  H    0.114642  -0.019606
     8  H    0.114642  -0.019606
 Sum of Mulliken charges =   0.00000   1.00000

 Dipole moment (field-independent basis, Debye):
    X=             -0.5004    Y=              0.4066    Z=              0.0000  Tot=              0.6447
 Quadrupole moment (field-independent basis, Debye-Ang):
   XX=            -18.3689   YY=            -18.8316   ZZ=            -21.3188
   XY=              1.0614   XZ=              0.0000   YZ=              0.0000

 3-0=-116.9649682\MP4SDQ=-116.962563\CCSD=-116.9676201\CCSD(T)=-116.988
 Normal termination of Gaussian 09 at Fri Aug  9 03:20:10 2019.
