 Gaussian 09, Revision D.01,
 Gaussian 09:  EM64L-G09RevD.01 24-Apr-2013

 --------------------------------------
 #p ccsd(t,maxcyc=200)/6-311++G(3df,2p)
 --------------------------------------

 -------------
 ccsd(t) iener
 -------------
 Symbolic Z-matrix:
 Charge =  1 Multiplicity = 2

                         Standard orientation:
 ---------------------------------------------------------------------
 Center     Atomic      Atomic             Coordinates (Angstroms)
 Number     Number       Type             X           Y           Z
 ---------------------------------------------------------------------
      1          6           0        0.000000    0.789951    0.000000
      2          6           0        0.000000   -0.789951    0.000000
      3          1           0       -0.339216   -1.259131    0.916339
      4          1           0        1.136957   -0.678646    0.000000
      5          1           0        0.339216    1.259131   -0.916339
      6          1           0       -0.339216   -1.259131   -0.916339
      7          1           0       -1.136957    0.678646    0.000000
      8          1           0        0.339216    1.259131    0.916339
 ---------------------------------------------------------------------

 SCF Done:  E(UHF) =  -78.8651124833     A.U. after   15 cycles
 E2 =    -0.3270481155D+00 EUMP2 =    -0.79192160598758D+02
 CCSD(T)
 CCSD(T)= -0.79239894830D+02

 The electronic state is 2-AG.
 Alpha  occ. eigenvalues --  -11.54631 -11.54578  -1.35725  -1.14251  -0.92919
 Alpha  occ. eigenvalues --   -0.90542  -0.84503  -0.80296  -0.74020
 Alpha virt. eigenvalues --   -0.11493  -0.08231  -0.07694  -0.07422  -0.05625
 Alpha virt. eigenvalues --   -0.04036  -0.02831  -0.02163  -0.01090   0.00864
 Alpha virt. eigenvalues --    0.02181   0.03129   0.03727   0.04652   0.06979

  Beta  occ. eigenvalues --  -11.53669 -11.53631  -1.28904  -1.08680  -0.89533
  Beta  occ. eigenvalues --   -0.84695  -0.82383  -0.79846
  Beta virt. eigenvalues --   -0.28397  -0.10930  -0.07989  -0.07400  -0.07335
  Beta virt. eigenvalues --   -0.05264  -0.03990  -0.02523  -0.01694  -0.00918
  Beta virt. eigenvalues --    0.02167   0.02826   0.03128   0.03821   0.05022

 Mulliken charges and spin densities:
               1          2
     1  C   -0.179726   0.371260
     2  C   -0.179726   0.371260
     3  H    0.210212  -0.023725
     4  H    0.259302   0.176190
     5  H    0.210212  -0.023725
     6  H    0.210212  -0.023725
     7  H    0.259302   0.176190
     8  H    0.210212  -0.023725
 Sum of Mulliken charges =   1.00000   1.00000

 Dipole moment (field-independent basis, Debye):
    X=              0.0000    Y=              0.0000    Z=              0.0000  Tot=              0.0000
 Quadrupole moment (field-independent basis, Debye-Ang):
   XX=            -10.1229   YY=             -7.8252   ZZ=            -10.9291
   XY=             -0.3136   XZ=              0.0000   YZ=              0.0000

 -79.2244135\MP4SDQ=-79.2270821\CCSD=-79.2274775\CCSD(T)=-79.2398948\S2
 Normal termination of Gaussian 09 at Fri Aug  9 04:12:39 2019.
