 Gaussian 09, Revision D.01,
 Gaussian 09:  EM64L-G09RevD.01 24-Apr-2013

 --------------------------------------
 #p ccsd(t,maxcyc=200)/6-311++G(3df,2p)
 --------------------------------------

 -------------
 ccsd(t) iener
 -------------
 Symbolic Z-matrix:
 Charge =  0 Multiplicity = 1

                         Standard orientation:
 ---------------------------------------------------------------------
 Center     Atomic      Atomic             Coordinates (Angstroms)
 Number     Number       Type             X           Y           Z
 ---------------------------------------------------------------------
      1          6           0        0.000000    0.000000    0.763829
      2          6           0        0.000000    0.000000   -0.763829
      3          1           0        0.000000   -1.015974   -1.161507
      4          1           0        0.879859    0.507987   -1.161507
      5          1           0        0.000000    1.015974    1.161507
      6          1           0       -0.879859    0.507987   -1.161507
      7          1           0       -0.879859   -0.507987    1.161507
      8          1           0        0.879859   -0.507987    1.161507
 ---------------------------------------------------------------------

 SCF Done:  E(RHF) =  -79.2576898536     A.U. after   10 cycles
 E2 =    -0.3626739804D+00 EUMP2 =    -0.79620363834020D+02
 CCSD(T)
 CCSD(T)= -0.79666124494D+02

 The electronic state is 1-A1G.
 Alpha  occ. eigenvalues --  -11.21021 -11.20961  -1.01716  -0.84202  -0.59597
 Alpha  occ. eigenvalues --   -0.59597  -0.51030  -0.48666  -0.48666
 Alpha virt. eigenvalues --    0.04388   0.05893   0.06727   0.06727   0.09771
 Alpha virt. eigenvalues --    0.09771   0.13978   0.14496   0.14496   0.17403
 Alpha virt. eigenvalues --    0.19524   0.19792   0.19792   0.20511   0.29112

 Mulliken charges:
               1
     1  C   -0.304102
     2  C   -0.304102
     3  H    0.101367
     4  H    0.101367
     5  H    0.101367
     6  H    0.101367
     7  H    0.101367
     8  H    0.101367
 Sum of Mulliken charges =   0.00000

 Dipole moment (field-independent basis, Debye):
    X=              0.0000    Y=              0.0000    Z=              0.0000  Tot=              0.0000
 Quadrupole moment (field-independent basis, Debye-Ang):
   XX=            -14.9591   YY=            -14.9591   ZZ=            -15.6120
   XY=              0.0000   XZ=              0.0000   YZ=              0.0000

 7567\MP4DQ=-79.6510018\MP4SDQ=-79.6531384\CCSD=-79.6529855\CCSD(T)=-79
 Normal termination of Gaussian 09 at Fri Aug  9 04:12:06 2019.
