 Gaussian 09, Revision D.01,
 Gaussian 09:  EM64L-G09RevD.01 24-Apr-2013

 --------------------------------------
 #p ccsd(t,maxcyc=200)/6-311++G(3df,2p)
 --------------------------------------

 -------------
 ccsd(t) iener
 -------------
 Symbolic Z-matrix:
 Charge =  1 Multiplicity = 4

                         Standard orientation:
 ---------------------------------------------------------------------
 Center     Atomic      Atomic             Coordinates (Angstroms)
 Number     Number       Type             X           Y           Z
 ---------------------------------------------------------------------
      1          6           0       -1.201328   -0.254847    0.007370
      2          6           0        1.425730   -0.191465    0.012138
      3          6           0       -0.032512    0.560410   -0.083173
      4          1           0       -2.017651    0.533476   -0.039164
      5          1           0       -1.418381   -0.881102   -0.866489
      6          1           0        0.260125    1.508611    0.399883
      7          1           0       -1.338562   -0.804311    0.944966
      8          1           0        1.741257   -0.363325   -1.016173
      9          1           0        1.621875   -0.677932    0.958967
 ---------------------------------------------------------------------

 SCF Done:  E(UHF) =  -116.646066026     A.U. after   17 cycles
 E2 =    -0.4197816146D+00 EUMP2 =    -0.11706584764092D+03
 CCSD(T)
 CCSD(T)= -0.11713162224D+03

 The electronic state is 4-A.
 Alpha  occ. eigenvalues --  -11.56345 -11.55622 -11.45998  -1.37309  -1.22172
 Alpha  occ. eigenvalues --   -1.07073  -0.91439  -0.87751  -0.84986  -0.82155
 Alpha  occ. eigenvalues --   -0.73385  -0.67156  -0.64585
 Alpha virt. eigenvalues --   -0.09907  -0.07563  -0.07042  -0.06971  -0.04110
 Alpha virt. eigenvalues --   -0.03160  -0.02439  -0.02293  -0.00945   0.01622
 Alpha virt. eigenvalues --    0.02232   0.02548   0.03389   0.04321   0.04877

  Beta  occ. eigenvalues --  -11.52999 -11.51956 -11.46063  -1.25818  -1.09788
  Beta  occ. eigenvalues --   -0.95375  -0.85872  -0.81946  -0.78319  -0.75695
  Beta virt. eigenvalues --   -0.29745  -0.12954  -0.12699  -0.09187  -0.06987
  Beta virt. eigenvalues --   -0.06646  -0.05948  -0.03704  -0.03006  -0.01859
  Beta virt. eigenvalues --   -0.00219   0.01438   0.02881   0.03099   0.03421

 Mulliken charges and spin densities:
               1          2
     1  C   -0.143294  -0.195447
     2  C   -0.113152   1.575978
     3  C   -0.042836   1.396639
     4  H    0.188876   0.106183
     5  H    0.199218   0.043807
     6  H    0.238401   0.052629
     7  H    0.193922   0.065939
     8  H    0.237745  -0.007899
     9  H    0.241121  -0.037829
 Sum of Mulliken charges =   1.00000   3.00000

 Dipole moment (field-independent basis, Debye):
    X=              1.0159    Y=              0.2252    Z=              0.2853  Tot=              1.0789
 Quadrupole moment (field-independent basis, Debye-Ang):
   XX=             -8.6509   YY=            -15.0430   ZZ=            -15.8386
   XY=             -1.2184   XZ=             -0.1208   YZ=              0.5184

 CCSD=-117.1139218\CCSD(T)=-117.1316222\S2=3.775794\S2-1=3.756361\S2A=3
 Normal termination of Gaussian 09 at Fri Aug  9 05:22:43 2019.
