 Gaussian 09, Revision D.01,
 Gaussian 09:  EM64L-G09RevD.01 24-Apr-2013

 --------------------------------------
 #p ccsd(t,maxcyc=200)/6-311++G(3df,2p)
 --------------------------------------

 -------------
 ccsd(t) iener
 -------------
 Symbolic Z-matrix:
 Charge =  0 Multiplicity = 3

                         Standard orientation:
 ---------------------------------------------------------------------
 Center     Atomic      Atomic             Coordinates (Angstroms)
 Number     Number       Type             X           Y           Z
 ---------------------------------------------------------------------
      1          6           0       -1.238924   -0.216342   -0.000621
      2          6           0        1.338689   -0.189664    0.000200
      3          6           0        0.069635    0.507650   -0.001855
      4          1           0       -1.348233   -0.849853    0.888298
      5          1           0       -2.080527    0.475305   -0.025236
      6          1           0        0.058724    1.594018    0.009726
      7          1           0       -1.327273   -0.890027   -0.861088
      8          1           0        1.836446   -0.474528    0.922901
      9          1           0        1.844457   -0.464783   -0.920945
 ---------------------------------------------------------------------

 SCF Done:  E(UHF) =  -117.042612935     A.U. after   15 cycles
 E2 =    -0.4607078443D+00 EUMP2 =    -0.11750332077949D+03
 CCSD(T)
 CCSD(T)= -0.11756577572D+03

 The electronic state is 3-A.
 Alpha  occ. eigenvalues --  -11.23099 -11.22979 -11.21688  -1.07468  -0.94132
 Alpha  occ. eigenvalues --   -0.79147  -0.61914  -0.61736  -0.55888  -0.55449
 Alpha  occ. eigenvalues --   -0.51235  -0.35570  -0.33055
 Alpha virt. eigenvalues --    0.04393   0.05862   0.06092   0.06318   0.08764
 Alpha virt. eigenvalues --    0.09379   0.13103   0.13805   0.15239   0.16535
 Alpha virt. eigenvalues --    0.17159   0.18105   0.18360   0.19431   0.20882

  Beta  occ. eigenvalues --  -11.21835 -11.21069 -11.20867  -1.00818  -0.88823
  Beta  occ. eigenvalues --   -0.72566  -0.59754  -0.56768  -0.53552  -0.52638
  Beta  occ. eigenvalues --   -0.49770
  Beta virt. eigenvalues --    0.04395   0.05686   0.06184   0.06394   0.08802
  Beta virt. eigenvalues --    0.09402   0.09462   0.10612   0.13684   0.16152
  Beta virt. eigenvalues --    0.16861   0.17507   0.18538   0.18731   0.20033

 Mulliken charges and spin densities:
               1          2
     1  C   -0.273899  -0.181620
     2  C   -0.252718   1.090523
     3  C   -0.191503   1.083761
     4  H    0.123457   0.051404
     5  H    0.100191   0.006898
     6  H    0.130169  -0.046039
     7  H    0.123778   0.047269
     8  H    0.119939  -0.025651
     9  H    0.120586  -0.026546
 Sum of Mulliken charges =   0.00000   2.00000

 Dipole moment (field-independent basis, Debye):
    X=             -0.1630    Y=             -0.0212    Z=              0.0094  Tot=              0.1646
 Quadrupole moment (field-independent basis, Debye-Ang):
   XX=            -20.4131   YY=            -20.6735   ZZ=            -20.4919
   XY=             -0.5729   XZ=             -0.0035   YZ=              0.0103

 D=-117.5477073\CCSD(T)=-117.5657757\S2=2.016088\S2-1=2.002822\S2A=2.00
 Normal termination of Gaussian 09 at Fri Aug  9 04:38:19 2019.
