 Gaussian 09, Revision D.01,
 Gaussian 09:  EM64L-G09RevD.01 24-Apr-2013

 --------------------------------------
 #p ccsd(t,maxcyc=200)/6-311++G(3df,2p)
 --------------------------------------

 -------------
 ccsd(t) iener
 -------------
 Symbolic Z-matrix:
 Charge =  1 Multiplicity = 4

                         Standard orientation:
 ---------------------------------------------------------------------
 Center     Atomic      Atomic             Coordinates (Angstroms)
 Number     Number       Type             X           Y           Z
 ---------------------------------------------------------------------
      1          6           0        0.000000    1.286974   -0.254249
      2          6           0        0.000000    0.000000    0.392636
      3          6           0        0.000000   -1.286974   -0.254249
      4          1           0        0.695534    0.000000    1.341433
      5          1           0       -0.927025   -1.812863   -0.496924
      6          1           0       -0.927025    1.812863   -0.496924
      7          1           0        0.927025    1.812863   -0.496924
      8          1           0       -0.695534    0.000000    1.341433
      9          1           0        0.927025   -1.812863   -0.496924
 ---------------------------------------------------------------------

 SCF Done:  E(UHF) =  -116.638092281     A.U. after   14 cycles
 E2 =    -0.4283460741D+00 EUMP2 =    -0.11706643835476D+03
 CCSD(T)
 CCSD(T)= -0.11713083243D+03

 The electronic state is 4-A2.
 Alpha  occ. eigenvalues --  -11.58046 -11.46949 -11.46946  -1.39061  -1.20096
 Alpha  occ. eigenvalues --   -1.09955  -0.91407  -0.89801  -0.84957  -0.80709
 Alpha  occ. eigenvalues --   -0.73308  -0.62153  -0.59706
 Alpha virt. eigenvalues --   -0.11248  -0.08752  -0.07736  -0.06624  -0.04126
 Alpha virt. eigenvalues --   -0.03176  -0.02102  -0.01646  -0.01403   0.00516
 Alpha virt. eigenvalues --    0.01236   0.03012   0.03118   0.03228   0.04001

  Beta  occ. eigenvalues --  -11.57723 -11.44404 -11.44403  -1.29524  -1.09678
  Beta  occ. eigenvalues --   -0.98719  -0.84266  -0.81237  -0.81148  -0.76210
  Beta virt. eigenvalues --   -0.31102  -0.12778  -0.10475  -0.10104  -0.07528
  Beta virt. eigenvalues --   -0.06845  -0.05199  -0.03290  -0.03037  -0.01631
  Beta virt. eigenvalues --    0.00880   0.01932   0.02141   0.03427   0.03876

 Mulliken charges and spin densities:
               1          2
     1  C   -0.170460   1.213830
     2  C    0.063897   0.009822
     3  C   -0.170460   1.213830
     4  H    0.229669   0.318076
     5  H    0.204421  -0.018408
     6  H    0.204421  -0.018408
     7  H    0.204421  -0.018408
     8  H    0.229669   0.318076
     9  H    0.204421  -0.018408
 Sum of Mulliken charges =   1.00000   3.00000

 Dipole moment (field-independent basis, Debye):
    X=              0.0000    Y=              0.0000    Z=              2.1762  Tot=              2.1762
 Quadrupole moment (field-independent basis, Debye-Ang):
   XX=            -14.4873   YY=            -11.6059   ZZ=            -14.3881
   XY=              0.0000   XZ=              0.0000   YZ=              0.0000

 4SDQ=-117.1105478\CCSD=-117.1126144\CCSD(T)=-117.1308324\S2=3.777316\S
 Normal termination of Gaussian 09 at Fri Aug  9 05:12:26 2019.
