 Gaussian 09, Revision D.01,
 Gaussian 09:  EM64L-G09RevD.01 24-Apr-2013

 --------------------------------------
 #p ccsd(t,maxcyc=200)/6-311++G(3df,2p)
 --------------------------------------

 -------------
 ccsd(t) iener
 -------------
 Symbolic Z-matrix:
 Charge =  0 Multiplicity = 1

                         Standard orientation:
 ---------------------------------------------------------------------
 Center     Atomic      Atomic             Coordinates (Angstroms)
 Number     Number       Type             X           Y           Z
 ---------------------------------------------------------------------
      1          6           0        0.000000    0.868624    0.000000
      2          6           0       -0.752250   -0.434312    0.000000
      3          6           0        0.752250   -0.434312    0.000000
      4          1           0       -1.261314   -0.728220    0.907245
      5          1           0        1.261314   -0.728220   -0.907245
      6          1           0        0.000000    1.456440   -0.907245
      7          1           0        0.000000    1.456440    0.907245
      8          1           0       -1.261314   -0.728220   -0.907245
      9          1           0        1.261314   -0.728220    0.907245
 ---------------------------------------------------------------------

 SCF Done:  E(RHF) =  -117.098684224     A.U. after   10 cycles
 E2 =    -0.5104558517D+00 EUMP2 =    -0.11760914007597D+03
 CCSD(T)
 CCSD(T)= -0.11766261471D+03

 The electronic state is 1-A1'.
 Alpha  occ. eigenvalues --  -11.22152 -11.22050 -11.22050  -1.13078  -0.81820
 Alpha  occ. eigenvalues --   -0.81820  -0.66689  -0.62795  -0.51174  -0.51174
 Alpha  occ. eigenvalues --   -0.41957  -0.41957
 Alpha virt. eigenvalues --    0.04786   0.05943   0.05943   0.06033   0.09085
 Alpha virt. eigenvalues --    0.09085   0.13074   0.13275   0.13275   0.17342
 Alpha virt. eigenvalues --    0.17670   0.17670   0.20499   0.20499   0.20682

 Mulliken charges:
               1
     1  C   -0.202495
     2  C   -0.202495
     3  C   -0.202495
     4  H    0.101247
     5  H    0.101247
     6  H    0.101247
     7  H    0.101247
     8  H    0.101247
     9  H    0.101247
 Sum of Mulliken charges =   0.00000

 Dipole moment (field-independent basis, Debye):
    X=              0.0000    Y=              0.0000    Z=              0.0000  Tot=              0.0000
 Quadrupole moment (field-independent basis, Debye-Ang):
   XX=            -20.8177   YY=            -20.8177   ZZ=            -18.5738
   XY=              0.0000   XZ=              0.0000   YZ=              0.0000

 2\MP4SDQ=-117.6412334\CCSD=-117.6408143\CCSD(T)=-117.6626147\RMSD=4.67
 Normal termination of Gaussian 09 at Fri Aug  9 04:15:29 2019.
