 Gaussian 09, Revision D.01,
 Gaussian 09:  EM64L-G09RevD.01 24-Apr-2013

 --------------------------------------
 #p ccsd(t,maxcyc=200)/6-311++G(3df,2p)
 --------------------------------------

 -------------
 ccsd(t) iener
 -------------
 Symbolic Z-matrix:
 Charge =  1 Multiplicity = 4

                         Standard orientation:
 ---------------------------------------------------------------------
 Center     Atomic      Atomic             Coordinates (Angstroms)
 Number     Number       Type             X           Y           Z
 ---------------------------------------------------------------------
      1          6           0        1.293106    0.218550   -0.118034
      2          6           0        0.047277   -0.413395    0.213532
      3          6           0       -1.307341    0.256475   -0.141110
      4          1           0       -0.286649   -1.156045   -0.615299
      5          1           0       -1.395846    1.056981    0.627105
      6          1           0        1.568203    1.201644    0.269372
      7          1           0        2.097812   -0.340504   -0.600028
      8          1           0        0.004649   -0.943560    1.177101
      9          1           0       -2.186421   -0.188299   -0.584586
 ---------------------------------------------------------------------

 SCF Done:  E(UHF) =  -116.639561680     A.U. after   18 cycles
 E2 =    -0.4251270281D+00 EUMP2 =    -0.11706468870779D+03
 CCSD(T)
 CCSD(T)= -0.11712933170D+03

 The electronic state is 4-A.
 Alpha  occ. eigenvalues --  -11.56360 -11.54035 -11.45840  -1.38660  -1.21166
 Alpha  occ. eigenvalues --   -1.07307  -0.94163  -0.89179  -0.84062  -0.82140
 Alpha  occ. eigenvalues --   -0.73480  -0.66208  -0.59500
 Alpha virt. eigenvalues --   -0.10727  -0.07922  -0.07333  -0.06807  -0.04639
 Alpha virt. eigenvalues --   -0.03517  -0.02560  -0.01490  -0.00789   0.01280
 Alpha virt. eigenvalues --    0.01553   0.02758   0.03217   0.03764   0.04734

  Beta  occ. eigenvalues --  -11.55894 -11.50586 -11.43400  -1.28241  -1.09301
  Beta  occ. eigenvalues --   -0.96964  -0.85705  -0.83565  -0.80094  -0.76317
  Beta virt. eigenvalues --   -0.30277  -0.13441  -0.10101  -0.09411  -0.07552
  Beta virt. eigenvalues --   -0.06545  -0.05909  -0.04220  -0.03261  -0.01533
  Beta virt. eigenvalues --    0.01169   0.01543   0.01925   0.03311   0.03891

 Mulliken charges and spin densities:
               1          2
     1  C   -0.251896   1.212475
     2  C    0.169490  -0.014697
     3  C   -0.214923   1.471655
     4  H    0.248990   0.281545
     5  H    0.250005   0.101234
     6  H    0.194278  -0.019222
     7  H    0.189761  -0.031937
     8  H    0.196633   0.073470
     9  H    0.217662  -0.074524
 Sum of Mulliken charges =   1.00000   3.00000

 Dipole moment (field-independent basis, Debye):
    X=             -1.4725    Y=             -0.9546    Z=              0.3218  Tot=              1.7841
 Quadrupole moment (field-independent basis, Debye-Ang):
   XX=             -9.1666   YY=            -14.2515   ZZ=            -16.8448
   XY=             -0.1516   XZ=             -0.0835   YZ=              2.0009

 CSD=-117.1114558\CCSD(T)=-117.1293317\S2=3.779604\S2-1=3.756419\S2A=3.
 Normal termination of Gaussian 09 at Fri Aug  9 05:04:51 2019.
