 Gaussian 09, Revision D.01,
 Gaussian 09:  EM64L-G09RevD.01 24-Apr-2013

 --------------------------------------
 #p ccsd(t,maxcyc=200)/6-311++G(3df,2p)
 --------------------------------------

 -------------
 ccsd(t) iener
 -------------
 Symbolic Z-matrix:
 Charge =  1 Multiplicity = 2

                         Standard orientation:
 ---------------------------------------------------------------------
 Center     Atomic      Atomic             Coordinates (Angstroms)
 Number     Number       Type             X           Y           Z
 ---------------------------------------------------------------------
      1          6           0        0.940459   -0.356702    0.000000
      2          6           0        0.000000    0.780789    0.000000
      3          6           0       -0.940962   -0.356248    0.000000
      4          1           0        0.000247    1.355474    0.922644
      5          1           0       -1.302145   -0.779958   -0.928197
      6          1           0        1.303409   -0.779032   -0.928147
      7          1           0        1.303409   -0.779032    0.928147
      8          1           0        0.000247    1.355474   -0.922644
      9          1           0       -1.302145   -0.779958    0.928197
 ---------------------------------------------------------------------

 SCF Done:  E(UHF) =  -116.788580518     A.U. after   15 cycles
 E2 =    -0.4529590843D+00 EUMP2 =    -0.11724153960203D+03
 CCSD(T)
 CCSD(T)= -0.11730151347D+03

 The electronic state is 2-A'.
 Alpha  occ. eigenvalues --  -11.54767 -11.54741 -11.48659  -1.39503  -1.14600
 Alpha  occ. eigenvalues --   -1.07583  -0.93886  -0.86637  -0.82552  -0.78204
 Alpha  occ. eigenvalues --   -0.76408  -0.65305
 Alpha virt. eigenvalues --   -0.11798  -0.09848  -0.07811  -0.07515  -0.05930
 Alpha virt. eigenvalues --   -0.03385  -0.03288  -0.03262  -0.01357  -0.01035
 Alpha virt. eigenvalues --    0.02767   0.02953   0.03704   0.03975   0.04179

  Beta  occ. eigenvalues --  -11.53581 -11.53568 -11.49043  -1.36171  -1.09562
  Beta  occ. eigenvalues --   -1.04766  -0.93110  -0.85184  -0.81816  -0.76043
  Beta  occ. eigenvalues --   -0.75866
  Beta virt. eigenvalues --   -0.22117  -0.09659  -0.08420  -0.07755  -0.07318
  Beta virt. eigenvalues --   -0.03376  -0.03219  -0.03091  -0.02967   0.00208
  Beta virt. eigenvalues --    0.01400   0.02922   0.02981   0.04233   0.04245

 Mulliken charges and spin densities:
               1          2
     1  C   -0.171564   0.700902
     2  C    0.136457  -0.348823
     3  C   -0.171906   0.700159
     4  H    0.176707   0.033769
     5  H    0.213530  -0.029942
     6  H    0.213269  -0.029945
     7  H    0.213269  -0.029945
     8  H    0.176707   0.033769
     9  H    0.213530  -0.029942
 Sum of Mulliken charges =   1.00000   1.00000

 Dipole moment (field-independent basis, Debye):
    X=             -0.0002    Y=             -0.8163    Z=              0.0000  Tot=              0.8163
 Quadrupole moment (field-independent basis, Debye-Ang):
   XX=            -12.1890   YY=            -14.7203   ZZ=            -14.2139
   XY=              0.0017   XZ=              0.0000   YZ=              0.0000

 Q=-117.2819366\CCSD=-117.2825111\CCSD(T)=-117.3015135\S2=0.781765\S2-1
 Normal termination of Gaussian 09 at Fri Aug  9 04:32:43 2019.
