 Gaussian 09, Revision D.01,
 Gaussian 09:  EM64L-G09RevD.01 24-Apr-2013

 --------------------------------------
 #p ccsd(t,maxcyc=200)/6-311++G(3df,2p)
 --------------------------------------

 -------------
 ccsd(t) iener
 -------------
 Symbolic Z-matrix:
 Charge =  1 Multiplicity = 2

                         Standard orientation:
 ---------------------------------------------------------------------
 Center     Atomic      Atomic             Coordinates (Angstroms)
 Number     Number       Type             X           Y           Z
 ---------------------------------------------------------------------
      1          6           0        1.208363    0.198544   -0.002729
      2          6           0       -1.315743    0.209541   -0.000322
      3          6           0       -0.074137   -0.461452    0.002260
      4          1           0        1.799821   -0.170157    0.857031
      5          1           0        1.812101   -0.192634   -0.842446
      6          1           0       -0.091326   -1.548367    0.009116
      7          1           0        1.175938    1.283157   -0.015727
      8          1           0       -1.360937    1.292538    0.016276
      9          1           0       -2.246486   -0.344332   -0.019505
 ---------------------------------------------------------------------

 SCF Done:  E(UHF) =  -116.812214857     A.U. after   17 cycles
 E2 =    -0.4442719748D+00 EUMP2 =    -0.11725648683209D+03
 CCSD(T)
 CCSD(T)= -0.11731696990D+03

 The electronic state is 2-A.
 Alpha  occ. eigenvalues --  -11.56793 -11.54195 -11.44598  -1.36776  -1.20534
 Alpha  occ. eigenvalues --   -1.03827  -0.91896  -0.86017  -0.80364  -0.78483
 Alpha  occ. eigenvalues --   -0.76167  -0.66972
 Alpha virt. eigenvalues --   -0.14987  -0.09931  -0.07635  -0.07104  -0.05789
 Alpha virt. eigenvalues --   -0.04173  -0.03180  -0.02020  -0.01744  -0.00653
 Alpha virt. eigenvalues --    0.01029   0.01742   0.03677   0.04295   0.04706

  Beta  occ. eigenvalues --  -11.56205 -11.52912 -11.44665  -1.31922  -1.17402
  Beta  occ. eigenvalues --   -1.01952  -0.90741  -0.85196  -0.77975  -0.76642
  Beta  occ. eigenvalues --   -0.75736
  Beta virt. eigenvalues --   -0.24590  -0.09748  -0.07544  -0.07032  -0.06779
  Beta virt. eigenvalues --   -0.05096  -0.04107  -0.03156  -0.01554  -0.00100
  Beta virt. eigenvalues --    0.00972   0.01157   0.01881   0.03843   0.04743

 Mulliken charges and spin densities:
               1          2
     1  C   -0.227105  -0.041717
     2  C   -0.260949   0.661866
     3  C    0.296071   0.402464
     4  H    0.189279   0.038377
     5  H    0.188472   0.035751
     6  H    0.226048  -0.019969
     7  H    0.178145   0.000202
     8  H    0.207062  -0.037122
     9  H    0.202977  -0.039852
 Sum of Mulliken charges =   1.00000   1.00000

 Dipole moment (field-independent basis, Debye):
    X=             -1.2498    Y=             -0.5123    Z=              0.0092  Tot=              1.3508
 Quadrupole moment (field-independent basis, Debye-Ang):
   XX=             -8.2432   YY=            -13.9144   ZZ=            -17.5707
   XY=             -0.5782   XZ=              0.0242   YZ=              0.0105

 D=-117.2992751\CCSD(T)=-117.3169699\S2=0.755958\S2-1=0.750635\S2A=0.75
 Normal termination of Gaussian 09 at Fri Aug  9 05:03:45 2019.
