 Gaussian 09, Revision D.01,
 Gaussian 09:  EM64L-G09RevD.01 24-Apr-2013

 --------------------------------------
 #p ccsd(t,maxcyc=200)/6-311++G(3df,2p)
 --------------------------------------

 -------------
 ccsd(t) iener
 -------------
 Symbolic Z-matrix:
 Charge =  0 Multiplicity = 1

                         Standard orientation:
 ---------------------------------------------------------------------
 Center     Atomic      Atomic             Coordinates (Angstroms)
 Number     Number       Type             X           Y           Z
 ---------------------------------------------------------------------
      1          6           0       -1.230968    0.162224   -0.000063
      2          6           0        1.278061    0.219897   -0.000070
      3          6           0        0.133936   -0.452670    0.000006
      4          1           0       -1.180523    1.251083   -0.005449
      5          1           0       -1.805535   -0.157563   -0.873262
      6          1           0        0.166570   -1.538749    0.000137
      7          1           0       -1.801419   -0.148951    0.879007
      8          1           0        1.300456    1.303474    0.000394
      9          1           0        2.234277   -0.285999   -0.000067
 ---------------------------------------------------------------------

 SCF Done:  E(RHF) =  -117.114019480     A.U. after   12 cycles
 E2 =    -0.5028954964D+00 EUMP2 =    -0.11761691497668D+03
 CCSD(T)
 CCSD(T)= -0.11767433585D+03

 The electronic state is 1-A.
 Alpha  occ. eigenvalues --  -11.23234 -11.22017 -11.21566  -1.06570  -0.93408
 Alpha  occ. eigenvalues --   -0.75795  -0.63995  -0.58466  -0.56724  -0.52457
 Alpha  occ. eigenvalues --   -0.49071  -0.36032
 Alpha virt. eigenvalues --    0.04187   0.05872   0.05990   0.07424   0.07947
 Alpha virt. eigenvalues --    0.09338   0.11521   0.13849   0.14958   0.16170
 Alpha virt. eigenvalues --    0.17086   0.17526   0.18589   0.19898   0.20697

 Mulliken charges:
               1
     1  C   -0.307299
     2  C   -0.442308
     3  C    0.054283
     4  H    0.116002
     5  H    0.108867
     6  H    0.127797
     7  H    0.109068
     8  H    0.114127
     9  H    0.119463
 Sum of Mulliken charges =   0.00000

 Dipole moment (field-independent basis, Debye):
    X=             -0.4076    Y=             -0.0698    Z=              0.0009  Tot=              0.4136
 Quadrupole moment (field-independent basis, Debye-Ang):
   XX=            -19.3353   YY=            -19.0175   ZZ=            -22.3659
   XY=              0.2487   XZ=              0.0006   YZ=              0.0003

 522115\CCSD=-117.652067\CCSD(T)=-117.6743359\RMSD=7.761e-09\PG=C01 [X(
 Normal termination of Gaussian 09 at Fri Aug  9 04:18:40 2019.
