 Gaussian 09, Revision E.01,
 Gaussian 09:  EM64L-G09RevE.01 30-Nov-2015

 ---------------------------------------------
 #p b3lyp/6-311++G(3df,2p) freq symmetry=Loose
 ---------------------------------------------

 ---------
 b3lyp opt
 ---------
 Symbolic Z-matrix:
 Charge =  2 Multiplicity = 3

                         Standard orientation:
 ---------------------------------------------------------------------
 Center     Atomic      Atomic             Coordinates (Angstroms)
 Number     Number       Type             X           Y           Z
 ---------------------------------------------------------------------
      1          6           0        0.000000   -0.000000    0.233301
      2          1           0        0.000000    1.087259   -0.699902
      3          1           0       -0.000000   -1.087259   -0.699902
 ---------------------------------------------------------------------

 SCF Done:  E(UB3LYP) =  -37.8753868484     A.U. after    9 cycles

 The electronic state is 3-B2.
 Alpha  occ. eigenvalues --  -11.16551  -1.40268  -1.14057  -1.07787
 Alpha virt. eigenvalues --   -0.87963  -0.67069  -0.65334  -0.35482  -0.33941
 Alpha virt. eigenvalues --   -0.33227  -0.31738  -0.26389  -0.25704  -0.22853
 Alpha virt. eigenvalues --   -0.22077  -0.21760  -0.08755  -0.07213  -0.05296

  Beta  occ. eigenvalues --  -11.13775  -1.30587
  Beta virt. eigenvalues --   -0.95118  -0.85131  -0.84355  -0.58199  -0.56059
  Beta virt. eigenvalues --   -0.33395  -0.32192  -0.31143  -0.30193  -0.24155
  Beta virt. eigenvalues --   -0.23668  -0.21347  -0.21168  -0.20427  -0.06944

 Mulliken charges and spin densities:
               1          2
     1  C    0.904463   1.428587
     2  H    0.547769   0.285706
     3  H    0.547769   0.285706
 Sum of Mulliken charges =   2.00000   2.00000

 Dipole moment (field-independent basis, Debye):
    X=             -0.0000    Y=              0.0000    Z=             -2.3498  Tot=              2.3498
 Quadrupole moment (field-independent basis, Debye-Ang):
   XX=             -3.6141   YY=              2.8611   ZZ=             -1.1174
   XY=              0.0000   XZ=              0.0000   YZ=             -0.0000

  Exact polarizability:   6.216  -0.000  12.658  -0.000  -0.000   8.608
 Approx polarizability:   8.113   0.000  15.760   0.000  -0.000  10.837

 ******    1 imaginary frequencies (negative Signs) ******

                      1                      2                      3
                     B2                     A1                     A1
 Frequencies --   -165.1933               745.6863              1316.1882
 Red. masses --      1.0964                 1.0479                 1.1118
 Frc consts  --      0.0176                 0.3433                 1.1347
 IR Inten    --   1275.4576                22.1749               457.2385

 - Thermochemistry -
 -------------------
 Temperature   298.150 Kelvin.  Pressure   1.00000 Atm.
 Atom     1 has atomic number  6 and mass  12.00000

 Molecular mass:    14.01565 amu.
 Principal axes and moments of inertia in atomic units:
                           1         2         3
     Eigenvalues --     5.36702   8.50901  13.87603
           X            0.00000   0.00000   1.00000
           Y            1.00000   0.00000  -0.00000
           Z            0.00000   1.00000   0.00000
 This molecule is an asymmetric top.
 Rotational symmetry number  2.
 Rotational temperatures (Kelvin)     16.13816    10.17907     6.24198
 Rotational constants (GHZ):         336.26511   212.09774   130.06182
    1 imaginary frequencies ignored.
 Zero-point vibrational energy      12332.7 (Joules/Mol)
                                    2.94760 (Kcal/Mol)
 Vibrational temperatures:   1072.87  1893.70
          (Kelvin)

 Zero-point correction=                           0.004697 (Hartree/Particle)
 Thermal correction to Energy=                    0.007636
 Thermal correction to Enthalpy=                  0.008580
 Thermal correction to Gibbs Free Energy=        -0.014778
 Sum of electronic and zero-point Energies=            -37.870690
 Sum of electronic and thermal Energies=               -37.867751
 Sum of electronic and thermal Enthalpies=             -37.866807
 Sum of electronic and thermal Free Energies=          -37.890165

                     E (Thermal)             CV                S
                      KCal/Mol        Cal/Mol-Kelvin    Cal/Mol-Kelvin
 Total                    4.792              6.846             49.162
 Electronic               0.000              0.000              2.183
 Translational            0.889              2.981             33.861
 Rotational               0.889              2.981             12.836
 Vibrational              3.014              0.885              0.282

 Optimization completed.
    -- Stationary point found.
 Normal termination of Gaussian 09 at Mon Jun 20 10:42:23 2016.
