 Gaussian 09, Revision E.01,
 Gaussian 09:  EM64L-G09RevE.01 30-Nov-2015

 ---------------------------------------------
 #p b3lyp/6-311++G(3df,2p) freq symmetry=Loose
 ---------------------------------------------

 ---------
 b3lyp opt
 ---------
 Symbolic Z-matrix:
 Charge =  1 Multiplicity = 4

                         Standard orientation:
 ---------------------------------------------------------------------
 Center     Atomic      Atomic             Coordinates (Angstroms)
 Number     Number       Type             X           Y           Z
 ---------------------------------------------------------------------
      1          1           0        0.000000    0.000000    1.793476
      2          6           0        0.000000    0.000000    0.711846
      3          6           0        0.000000    0.000000   -0.711846
      4          1           0        0.000000    0.000000   -1.793476
 ---------------------------------------------------------------------

 SCF Done:  E(UB3LYP) =  -76.7879644961     A.U. after    9 cycles

 Unable to determine electronic state:  partially filled degenerate orbitals.
 Alpha  occ. eigenvalues --  -10.59118 -10.59079  -1.11114  -0.91094  -0.81272
 Alpha  occ. eigenvalues --   -0.67068  -0.64664  -0.46688
 Alpha virt. eigenvalues --   -0.37728  -0.24565  -0.16548  -0.14374  -0.11348
 Alpha virt. eigenvalues --   -0.11174  -0.11148  -0.06098  -0.05652  -0.02287
 Alpha virt. eigenvalues --   -0.01168   0.03003   0.03191   0.03239   0.06490

  Beta  occ. eigenvalues --  -10.56646 -10.56611  -1.01958  -0.86100  -0.79480
  Beta virt. eigenvalues --   -0.48949  -0.46217  -0.29086  -0.26358  -0.19767
  Beta virt. eigenvalues --   -0.15893  -0.13429  -0.10484  -0.10162  -0.09640
  Beta virt. eigenvalues --   -0.04789  -0.04340  -0.01804  -0.00935   0.04059

 Mulliken charges and spin densities:
               1          2
     1  H    0.421069  -0.044228
     2  C    0.078931   1.544228
     3  C    0.078931   1.544228
     4  H    0.421069  -0.044228
 Sum of Mulliken charges =   1.00000   3.00000

 Dipole moment (field-independent basis, Debye):
    X=              0.0000    Y=              0.0000    Z=             -0.0000  Tot=              0.0000
 Quadrupole moment (field-independent basis, Debye-Ang):
   XX=             -9.8727   YY=            -11.4103   ZZ=             -0.8274
   XY=              0.0000   XZ=             -0.0000   YZ=              0.0000

  Exact polarizability:  12.568  -0.000  13.927   0.000  -0.000  26.744
 Approx polarizability:  16.618  -0.000  17.599  -0.000  -0.000  33.845

 ******    2 imaginary frequencies (negative Signs) ******

                      1                      2                      3
                     PIU                    PIG                    PIG
 Frequencies --  -1152.3195              -996.2715               520.5023
 Red. masses --      1.0848                 1.4789                 1.4789
 Frc consts  --      0.8487                 0.8649                 0.2361
 IR Inten    --    192.5926                 0.0000                 0.0000

                      4                      5                      6
                     PIU                    SGG                    SGU
 Frequencies --    671.7111              1365.5624              3224.8162
 Red. masses --      1.0848                 4.9993                 1.0848
 Frc consts  --      0.2884                 5.4926                 6.6469
 IR Inten    --     30.6907                 0.0000               481.6375

                      7
                     SGG
 Frequencies --   3280.6200
 Red. masses --      1.1422
 Frc consts  --      7.2425
 IR Inten    --      0.0000

 - Thermochemistry -
 -------------------
 Temperature   298.150 Kelvin.  Pressure   1.00000 Atm.
 Atom     1 has atomic number  1 and mass   1.00783

 Molecular mass:    26.01565 amu.
 Principal axes and moments of inertia in atomic units:
                           1         2         3
     Eigenvalues --     0.00000  66.58195  66.58195
           X           -0.00000   1.00000  -0.00000
           Y            0.00000   0.00000   1.00000
           Z            1.00000   0.00000  -0.00000
 This molecule is a prolate symmetric top.
 Rotational symmetry number  2.
 Rotational temperature (Kelvin)      1.30086
 Rotational constant (GHZ):          27.105562
    2 imaginary frequencies ignored.
 Zero-point vibrational energy      54210.0 (Joules/Mol)
                                   12.95651 (Kcal/Mol)
 Warning -- explicit consideration of   1 degrees of freedom as
           vibrations may cause significant error
 Vibrational temperatures:    748.89   966.44  1964.74  4639.79  4720.07
          (Kelvin)

 Zero-point correction=                           0.020648 (Hartree/Particle)
 Thermal correction to Energy=                    0.023350
 Thermal correction to Enthalpy=                  0.024295
 Thermal correction to Gibbs Free Energy=         0.000139
 Sum of electronic and zero-point Energies=            -76.767317
 Sum of electronic and thermal Energies=               -76.764614
 Sum of electronic and thermal Enthalpies=             -76.763670
 Sum of electronic and thermal Free Energies=          -76.787825

                     E (Thermal)             CV                S
                      KCal/Mol        Cal/Mol-Kelvin    Cal/Mol-Kelvin
 Total                   14.653              7.176             50.840
 Electronic               0.000              0.000              2.755
 Translational            0.889              2.981             35.704
 Rotational               0.592              1.987             11.409
 Vibrational             13.171              2.208              0.971
 Vibration     1          0.875              1.205              0.609

 Optimization completed.
    -- Stationary point found.
 Normal termination of Gaussian 09 at Mon Jun 20 10:34:55 2016.
