 Gaussian 09, Revision E.01,
 Gaussian 09:  EM64L-G09RevE.01 30-Nov-2015

 ---------------------------------------------
 #p b3lyp/6-311++G(3df,2p) freq symmetry=Loose
 ---------------------------------------------

 ---------
 b3lyp opt
 ---------
 Symbolic Z-matrix:
 Charge =  0 Multiplicity = 1

                         Standard orientation:
 ---------------------------------------------------------------------
 Center     Atomic      Atomic             Coordinates (Angstroms)
 Number     Number       Type             X           Y           Z
 ---------------------------------------------------------------------
      1          6           0        0.000000    0.000000    1.263406
      2          1           0        0.000000    0.000000    2.324735
      3          6           0        0.000000    0.000000   -0.000022
      4          6           0        0.000000    0.000000   -1.263403
      5          1           0        0.000000    0.000000   -2.324621
 ---------------------------------------------------------------------

 SCF Done:  E(RB3LYP) =  -115.341679986     A.U. after   10 cycles

 Unable to determine electronic state:  partially filled degenerate orbitals.
 Alpha  occ. eigenvalues --  -10.21370 -10.21360 -10.20855  -0.80436  -0.69917
 Alpha  occ. eigenvalues --   -0.55983  -0.52312  -0.35040  -0.34998  -0.19442
 Alpha virt. eigenvalues --   -0.14347  -0.00251   0.00884   0.03640   0.03775
 Alpha virt. eigenvalues --    0.04364   0.08955   0.09257   0.09493   0.09912
 Alpha virt. eigenvalues --    0.10106   0.10444   0.12128   0.15924   0.16111

 Mulliken charges:
               1
     1  C   -0.004144
     2  H    0.330845
     3  C   -0.653603
     4  C   -0.003984
     5  H    0.330886
 Sum of Mulliken charges =  -0.00000

 Dipole moment (field-independent basis, Debye):
    X=              0.0000    Y=              0.0000    Z=              0.0001  Tot=              0.0001
 Quadrupole moment (field-independent basis, Debye-Ang):
   XX=            -17.5800   YY=            -21.8270   ZZ=            -11.0011
   XY=              0.0000   XZ=              0.0000   YZ=              0.0000

  Exact polarizability:  22.379   0.000  30.051  -0.000   0.000  68.290
 Approx polarizability:  30.991  -0.000  37.625  -0.000  -0.000 133.418

 ******    2 imaginary frequencies (negative Signs) ******

                      1                      2                      3
                     ?A                     ?A                     ?A
 Frequencies --   -709.0206              -700.5258               327.8747
 Red. masses --      1.4012                 1.2644                 2.8371
 Frc consts  --      0.4150                 0.3656                 0.1797
 IR Inten    --    330.1992                 0.4992                11.0447

                      4                      5                      6
                     ?A                     ?A                     ?A
 Frequencies --    518.3470               904.8275               907.7867
 Red. masses --      3.1863                 1.2656                 1.4797
 Frc consts  --      0.5044                 0.6105                 0.7185
 IR Inten    --     20.0781                 0.0511                 6.8221

                      7                      8                      9
                     SG                     SG                     SG
 Frequencies --   1305.7580              1887.5607              3449.9184
 Red. masses --      5.4664                 7.5844                 1.1167
 Frc consts  --      5.4914                15.9212                 7.8306
 IR Inten    --      0.0000                11.9937               177.6772

                     10
                     SG
 Frequencies --   3457.7979
 Red. masses --      1.1203
 Frc consts  --      7.8917
 IR Inten    --      0.7899

 - Thermochemistry -
 -------------------
 Temperature   298.150 Kelvin.  Pressure   1.00000 Atm.
 Atom     1 has atomic number  6 and mass  12.00000

 Molecular mass:    38.01565 amu.
 Principal axes and moments of inertia in atomic units:
                           1         2         3
     Eigenvalues --     0.00000 175.70144 175.70144
           X            0.00000  -0.00000   1.00000
           Y            0.00000   1.00000   0.00000
           Z            1.00000   0.00000   0.00000
 This molecule is a prolate symmetric top.
 Rotational symmetry number  1.
 Rotational temperature (Kelvin)      0.49296
 Rotational constant (GHZ):          10.271636
    2 imaginary frequencies ignored.
 Zero-point vibrational energy      76321.0 (Joules/Mol)
                                   18.24115 (Kcal/Mol)
 Warning -- explicit consideration of   2 degrees of freedom as
           vibrations may cause significant error
 Vibrational temperatures:    471.74   745.78  1301.84  1306.10  1878.69
          (Kelvin)           2715.78  4963.66  4974.99

 Zero-point correction=                           0.029069 (Hartree/Particle)
 Thermal correction to Energy=                    0.032144
 Thermal correction to Enthalpy=                  0.033088
 Thermal correction to Gibbs Free Energy=         0.007557
 Sum of electronic and zero-point Energies=           -115.312611
 Sum of electronic and thermal Energies=              -115.309536
 Sum of electronic and thermal Enthalpies=            -115.308592
 Sum of electronic and thermal Free Energies=         -115.334123

                     E (Thermal)             CV                S
                      KCal/Mol        Cal/Mol-Kelvin    Cal/Mol-Kelvin
 Total                   20.171              8.944             53.736
 Electronic               0.000              0.000              0.000
 Translational            0.889              2.981             36.835
 Rotational               0.592              1.987             14.715
 Vibrational             18.690              3.976              2.186
 Vibration     1          0.711              1.620              1.271
 Vibration     2          0.873              1.209              0.614

 Optimization completed.
    -- Stationary point found.
 Normal termination of Gaussian 09 at Mon Jun 20 10:35:33 2016.
