 Gaussian 09, Revision E.01,
 Gaussian 09:  EM64L-G09RevE.01 30-Nov-2015

 ---------------------------------------------
 #p b3lyp/6-311++G(3df,2p) freq symmetry=Loose
 ---------------------------------------------

 ---------
 b3lyp opt
 ---------
 Symbolic Z-matrix:
 Charge =  1 Multiplicity = 4

                         Standard orientation:
 ---------------------------------------------------------------------
 Center     Atomic      Atomic             Coordinates (Angstroms)
 Number     Number       Type             X           Y           Z
 ---------------------------------------------------------------------
      1          6           0        0.000000    0.000000    1.305986
      2          1           0        0.000000    0.000000    2.380358
      3          6           0        0.000000    0.000000   -0.000095
      4          6           0        0.000000    0.000000   -1.305889
      5          1           0        0.000000    0.000000   -2.380377
 ---------------------------------------------------------------------

 SCF Done:  E(UB3LYP) =  -114.957807634     A.U. after   12 cycles

 Unable to determine electronic state:  an orbital has unidentified symmetry.
 Alpha  occ. eigenvalues --  -10.56682 -10.52637 -10.52625  -1.12850  -1.02067
 Alpha  occ. eigenvalues --   -0.83236  -0.79722  -0.68735  -0.65722  -0.52410
 Alpha  occ. eigenvalues --   -0.50987
 Alpha virt. eigenvalues --   -0.25546  -0.23076  -0.17624  -0.15896  -0.14320
 Alpha virt. eigenvalues --   -0.10284  -0.09942  -0.09422  -0.07482  -0.06307
 Alpha virt. eigenvalues --   -0.06089  -0.01063  -0.00437  -0.00066   0.00011

  Beta  occ. eigenvalues --  -10.56318 -10.50477 -10.50469  -1.07261  -0.95587
  Beta  occ. eigenvalues --   -0.80476  -0.77977  -0.61421
  Beta virt. eigenvalues --   -0.51979  -0.36667  -0.35151  -0.18876  -0.17120
  Beta virt. eigenvalues --   -0.15854  -0.14474  -0.13437  -0.08685  -0.08494
  Beta virt. eigenvalues --   -0.08354  -0.05890  -0.05248  -0.05186  -0.00667

 Mulliken charges and spin densities:
               1          2
     1  C    0.218220   1.345003
     2  H    0.407140  -0.038527
     3  C   -0.250953   0.387946
     4  C    0.218519   1.344102
     5  H    0.407074  -0.038524
 Sum of Mulliken charges =   1.00000   3.00000

 Dipole moment (field-independent basis, Debye):
    X=              0.0000    Y=              0.0000    Z=             -0.0009  Tot=              0.0009
 Quadrupole moment (field-independent basis, Debye-Ang):
   XX=            -16.7677   YY=            -15.0018   ZZ=              1.0923
   XY=              0.0000   XZ=              0.0000   YZ=              0.0000

  Exact polarizability:  18.309   0.000  17.451   0.001  -0.001  50.575
 Approx polarizability:  23.558  -0.000  23.475  -0.000  -0.000  85.850

 ******    1 imaginary frequencies (negative Signs) ******

                      1                      2                      3
                     ?A                     ?A                     ?A
 Frequencies --   -241.5256                87.1976               123.0450
 Red. masses --      1.2595                 1.2784                 1.8047
 Frc consts  --      0.0433                 0.0057                 0.0161
 IR Inten    --      0.0132                66.2740                60.6740

                      4                      5                      6
                     ?A                     ?A                     ?A
 Frequencies --    138.4088               403.9687               438.2607
 Red. masses --      1.2805                 2.0566                 4.0792
 Frc consts  --      0.0145                 0.1977                 0.4616
 IR Inten    --      3.0417                34.5653                 1.9500

                      7                      8                      9
                     SG                     SG                     SG
 Frequencies --   1199.3803              1696.2357              3309.0992
 Red. masses --      5.4993                 7.8661                 1.1108
 Frc consts  --      4.6610                13.3346                 7.1666
 IR Inten    --      0.0001                64.5125               637.9942

                     10
                     SG
 Frequencies --   3326.0781
 Red. masses --      1.1189
 Frc consts  --      7.2930
 IR Inten    --      0.5709

 - Thermochemistry -
 -------------------
 Temperature   298.150 Kelvin.  Pressure   1.00000 Atm.
 Atom     1 has atomic number  6 and mass  12.00000

 Molecular mass:    38.01565 amu.
 Principal axes and moments of inertia in atomic units:
                           1         2         3
     Eigenvalues --     0.00000 186.95353 186.95353
           X            0.00000  -0.00000   1.00000
           Y            0.00000   1.00000   0.00000
           Z            1.00000   0.00000   0.00000
 This molecule is a prolate symmetric top.
 Rotational symmetry number  1.
 Rotational temperature (Kelvin)      0.46329
 Rotational constant (GHZ):           9.653421
    1 imaginary frequencies ignored.
 Zero-point vibrational energy      64129.9 (Joules/Mol)
                                   15.32740 (Kcal/Mol)
 Warning -- explicit consideration of   5 degrees of freedom as
           vibrations may cause significant error
 Vibrational temperatures:    125.46   177.03   199.14   581.22   630.56
          (Kelvin)           1725.64  2440.50  4761.05  4785.48

 Zero-point correction=                           0.024426 (Hartree/Particle)
 Thermal correction to Energy=                    0.029499
 Thermal correction to Enthalpy=                  0.030443
 Thermal correction to Gibbs Free Energy=        -0.000846
 Sum of electronic and zero-point Energies=           -114.933382
 Sum of electronic and thermal Energies=              -114.928308
 Sum of electronic and thermal Enthalpies=            -114.927364
 Sum of electronic and thermal Free Energies=         -114.958654

                     E (Thermal)             CV                S
                      KCal/Mol        Cal/Mol-Kelvin    Cal/Mol-Kelvin
 Total                   18.511             13.862             65.855
 Electronic               0.000              0.000              2.755
 Translational            0.889              2.981             36.835
 Rotational               0.592              1.987             14.838
 Vibrational             17.030              8.894             11.427
 Vibration     1          0.601              1.958              3.722
 Vibration     2          0.610              1.930              3.052
 Vibration     3          0.614              1.915              2.826
 Vibration     4          0.769              1.462              0.948
 Vibration     5          0.798              1.387              0.832

 Optimization completed.
    -- Stationary point found.
 Normal termination of Gaussian 09 at Mon Jun 20 10:35:45 2016.
