 Gaussian 09, Revision E.01,
 Gaussian 09:  EM64L-G09RevE.01 30-Nov-2015

 ---------------------------------------------
 #p b3lyp/6-311++G(3df,2p) freq symmetry=Loose
 ---------------------------------------------

 ---------
 b3lyp opt
 ---------
 Symbolic Z-matrix:
 Charge =  1 Multiplicity = 2

                         Standard orientation:
 ---------------------------------------------------------------------
 Center     Atomic      Atomic             Coordinates (Angstroms)
 Number     Number       Type             X           Y           Z
 ---------------------------------------------------------------------
      1          6           0        0.000000   -0.000000    1.488376
      2          6           0        0.000000   -0.000000    0.122193
      3          6           0        0.000000    0.637493   -1.143748
      4          6           0       -0.000000   -0.637493   -1.143748
      5          1           0        0.000000   -0.943150    2.030782
      6          1           0        0.000000    0.943150    2.030782
 ---------------------------------------------------------------------

 SCF Done:  E(UB3LYP) =  -153.058382467     A.U. after   13 cycles

 The electronic state is 2-B1.
 Alpha  occ. eigenvalues --  -10.59057 -10.52231 -10.52091 -10.50162  -1.24269
 Alpha  occ. eigenvalues --   -1.06082  -0.81782  -0.77934  -0.72795  -0.70207
 Alpha  occ. eigenvalues --   -0.69285  -0.55885  -0.54678
 Alpha virt. eigenvalues --   -0.43705  -0.27253  -0.26200  -0.16590  -0.13370
 Alpha virt. eigenvalues --   -0.11833  -0.10912  -0.10735  -0.10397  -0.08633
 Alpha virt. eigenvalues --   -0.06406  -0.05529  -0.05496  -0.03524  -0.02794

  Beta  occ. eigenvalues --  -10.59098 -10.51955 -10.51817 -10.49096  -1.23633
  Beta  occ. eigenvalues --   -1.03224  -0.80721  -0.77525  -0.72146  -0.68644
  Beta  occ. eigenvalues --   -0.67594  -0.55362
  Beta virt. eigenvalues --   -0.43395  -0.42999  -0.24334  -0.23469  -0.16195
  Beta virt. eigenvalues --   -0.13200  -0.11631  -0.10714  -0.10310  -0.10017
  Beta virt. eigenvalues --   -0.08382  -0.05777  -0.05464  -0.05026  -0.03170

 Mulliken charges and spin densities:
               1          2
     1  C   -0.299106   0.673317
     2  C    0.657326  -0.010363
     3  C    0.056730   0.188466
     4  C    0.056730   0.188466
     5  H    0.264160  -0.019943
     6  H    0.264160  -0.019943
 Sum of Mulliken charges =   1.00000   1.00000

 Dipole moment (field-independent basis, Debye):
    X=              0.0000    Y=              0.0000    Z=              1.9776  Tot=              1.9776
 Quadrupole moment (field-independent basis, Debye-Ang):
   XX=            -20.7714   YY=            -19.3942   ZZ=             -8.0326
   XY=             -0.0000   XZ=              0.0000   YZ=             -0.0000

  Exact polarizability:  22.562  -0.000  38.285  -0.000  -0.000  53.644
 Approx polarizability:  32.368   0.000  89.512   0.000   0.000  93.539

 ******    2 imaginary frequencies (negative Signs) ******

                      1                      2                      3
                     A2                     B2                     B2
 Frequencies --   -515.0119              -494.4999               408.4311
 Red. masses --      1.1750                10.0961                 2.7916
 Frc consts  --      0.1836                 1.4546                 0.2744
 IR Inten    --      0.0000               260.3831                18.0206

                      4                      5                      6
                     B1                     B1                     A1
 Frequencies --    415.2915               826.7762               904.1749
 Red. masses --      5.1330                 1.3876                 5.1919
 Frc consts  --      0.5216                 0.5589                 2.5008
 IR Inten    --      2.5354                41.5650                27.3804

                      7                      8                      9
                     B2                     A1                     A1
 Frequencies --    934.7006              1372.4906              1564.9280
 Red. masses --      1.5692                 1.1407                10.8730
 Frc consts  --      0.8077                 1.2660                15.6887
 IR Inten    --      5.3042                18.4211               250.7469

                     10                     11                     12
                     A1                     A1                     B2
 Frequencies --   1758.7680              3083.4800              3190.9060
 Red. masses --     11.9014                 1.0498                 1.1187
 Frc consts  --     21.6902                 5.8806                 6.7111
 IR Inten    --     22.2937               180.5647                83.6088

 - Thermochemistry -
 -------------------
 Temperature   298.150 Kelvin.  Pressure   1.00000 Atm.
 Atom     1 has atomic number  6 and mass  12.00000

 Molecular mass:    50.01565 amu.
 Principal axes and moments of inertia in atomic units:
                           1         2         3
     Eigenvalues --    41.23337 236.21227 277.44564
           X            0.00000   0.00000   1.00000
           Y            0.00000   1.00000   0.00000
           Z            1.00000   0.00000   0.00000
 This molecule is an asymmetric top.
 Rotational symmetry number  2.
 Rotational temperatures (Kelvin)      2.10058     0.36668     0.31218
 Rotational constants (GHZ):          43.76894     7.64034     6.50485
    2 imaginary frequencies ignored.
 Zero-point vibrational energy      86489.7 (Joules/Mol)
                                   20.67153 (Kcal/Mol)
 Warning -- explicit consideration of   2 degrees of freedom as
           vibrations may cause significant error
 Vibrational temperatures:    587.64   597.51  1189.55  1300.90  1344.82
          (Kelvin)           1974.71  2251.58  2530.47  4436.43  4591.00

 Zero-point correction=                           0.032942 (Hartree/Particle)
 Thermal correction to Energy=                    0.036556
 Thermal correction to Enthalpy=                  0.037500
 Thermal correction to Gibbs Free Energy=         0.007809
 Sum of electronic and zero-point Energies=           -153.025440
 Sum of electronic and thermal Energies=              -153.021826
 Sum of electronic and thermal Enthalpies=            -153.020882
 Sum of electronic and thermal Free Energies=         -153.050573

                     E (Thermal)             CV                S
                      KCal/Mol        Cal/Mol-Kelvin    Cal/Mol-Kelvin
 Total                   22.939             10.612             62.489
 Electronic               0.000              0.000              1.377
 Translational            0.889              2.981             37.653
 Rotational               0.889              2.981             21.140
 Vibrational             21.162              4.651              2.319
 Vibration     1          0.773              1.452              0.932
 Vibration     2          0.779              1.437              0.908

 Optimization completed.
    -- Stationary point found.
 Normal termination of Gaussian 09 at Mon Jun 20 10:36:48 2016.
