 Gaussian 09, Revision E.01,
 Gaussian 09:  EM64L-G09RevE.01 30-Nov-2015

 ---------------------------------------------
 #p b3lyp/6-311++G(3df,2p) freq symmetry=Loose
 ---------------------------------------------

 ---------
 b3lyp opt
 ---------
 Symbolic Z-matrix:
 Charge =  3 Multiplicity = 2

                         Standard orientation:
 ---------------------------------------------------------------------
 Center     Atomic      Atomic             Coordinates (Angstroms)
 Number     Number       Type             X           Y           Z
 ---------------------------------------------------------------------
      1          6           0       -0.770872   -0.051222   -0.001603
      2          6           0        0.508649    0.804768   -0.000010
      3          6           0        1.619564   -0.215958    0.000552
      4          6           0        0.401655   -0.768970   -0.000216
      5          6           0       -2.319682   -0.051603    0.001099
      6          1           0        0.621665    1.940742   -0.000057
      7          1           0        2.742441   -0.242840    0.001129
 ---------------------------------------------------------------------

 SCF Done:  E(UB3LYP) =  -189.696311552     A.U. after   22 cycles

 The electronic state is 2-A.
 Alpha  occ. eigenvalues --  -11.13020 -11.11191 -11.09865 -11.06524 -11.05661
 Alpha  occ. eigenvalues --   -1.78790  -1.54486  -1.42931  -1.37928  -1.25290
 Alpha  occ. eigenvalues --   -1.21179  -1.19960  -1.19492  -1.06533  -1.03368
 Alpha virt. eigenvalues --   -0.88860  -0.86215  -0.85117  -0.81499  -0.69768
 Alpha virt. eigenvalues --   -0.65772  -0.59442  -0.55716  -0.52111  -0.50670
 Alpha virt. eigenvalues --   -0.46689  -0.44819  -0.44448  -0.41602  -0.40178

  Beta  occ. eigenvalues --  -11.12552 -11.11315 -11.09929 -11.05661 -11.05152
  Beta  occ. eigenvalues --   -1.78175  -1.52272  -1.41119  -1.37887  -1.24772
  Beta  occ. eigenvalues --   -1.19839  -1.19000  -1.18760  -1.05418
  Beta virt. eigenvalues --   -0.92295  -0.88359  -0.85891  -0.81288  -0.80368
  Beta virt. eigenvalues --   -0.65507  -0.64049  -0.59133  -0.55150  -0.51735
  Beta virt. eigenvalues --   -0.49972  -0.46664  -0.44507  -0.44293  -0.41517

 Mulliken charges and spin densities:
               1          2
     1  C    0.270537   0.506146
     2  C    0.490201  -0.000707
     3  C   -0.084555   0.285059
     4  C    0.975243  -0.011602
     5  C    0.461191   0.226259
     6  H    0.420979   0.002419
     7  H    0.466404  -0.007574
 Sum of Mulliken charges =   3.00000   1.00000

 Dipole moment (field-independent basis, Debye):
    X=              1.1061    Y=              1.3352    Z=              0.0009  Tot=              1.7339
 Quadrupole moment (field-independent basis, Debye-Ang):
   XX=             17.4320   YY=             -9.8632   ZZ=            -21.0997
   XY=              0.5795   XZ=              0.0086   YZ=             -0.0000

  Exact polarizability:  70.122  -0.525  32.845   0.018  -0.001  21.933
 Approx polarizability: 132.670  -1.354  66.950  -0.050  -0.001  33.903

 ******    1 imaginary frequencies (negative Signs) ******

                      1                      2                      3
                      A                      A                      A
 Frequencies --   -111.1554               254.8275               324.7292
 Red. masses --      9.9160                 6.3993                 7.2104
 Frc consts  --      0.0722                 0.2448                 0.4480
 IR Inten    --      0.9967                 1.0621                87.5913

                      4                      5                      6
                      A                      A                      A
 Frequencies --    341.5784               579.7203               718.7635
 Red. masses --      4.5642                 7.7369                 1.2268
 Frc consts  --      0.3138                 1.5320                 0.3734
 IR Inten    --      0.4298                35.1222                87.9893

                      7                      8                      9
                      A                      A                      A
 Frequencies --    741.1166               826.4581               896.5483
 Red. masses --      4.4399                 1.3613                 1.7730
 Frc consts  --      1.4368                 0.5478                 0.8397
 IR Inten    --    104.6507                 5.5656                95.4442

                     10                     11                     12
                      A                      A                      A
 Frequencies --    934.6603              1033.6509              1353.9174
 Red. masses --      1.6312                 1.8439                 7.8391
 Frc consts  --      0.8396                 1.1607                 8.4664
 IR Inten    --     31.5860                41.0050               341.8786

                     13                     14                     15
                      A                      A                      A
 Frequencies --   1559.4782              2644.8160              2849.8346
 Red. masses --      7.5475                 1.1060                 1.1393
 Frc consts  --     10.8146                 4.5583                 5.4515
 IR Inten    --     11.6376               726.7741               713.4414

 - Thermochemistry -
 -------------------
 Temperature   298.150 Kelvin.  Pressure   1.00000 Atm.
 Atom     1 has atomic number  6 and mass  12.00000

 Molecular mass:    62.01565 amu.
 Principal axes and moments of inertia in atomic units:
                           1         2         3
     Eigenvalues --    68.90831 414.28735 483.19530
           X            0.99998   0.00648   0.00003
           Y           -0.00648   0.99998  -0.00002
           Z           -0.00003   0.00002   1.00000
 This molecule is an asymmetric top.
 Rotational symmetry number  1.
 Rotational temperatures (Kelvin)      1.25694     0.20907     0.17925
 Rotational constants (GHZ):          26.19047     4.35625     3.73501
    1 imaginary frequencies ignored.
 Zero-point vibrational energy      90079.4 (Joules/Mol)
                                   21.52949 (Kcal/Mol)
 Warning -- explicit consideration of   4 degrees of freedom as
           vibrations may cause significant error
 Vibrational temperatures:    366.64   467.21   491.45   834.09  1034.14
          (Kelvin)           1066.30  1189.09  1289.93  1344.77  1487.19
                             1947.98  2243.74  3805.30  4100.27

 Zero-point correction=                           0.034309 (Hartree/Particle)
 Thermal correction to Energy=                    0.038975
 Thermal correction to Enthalpy=                  0.039919
 Thermal correction to Gibbs Free Energy=         0.006854
 Sum of electronic and zero-point Energies=           -189.662002
 Sum of electronic and thermal Energies=              -189.657337
 Sum of electronic and thermal Enthalpies=            -189.656392
 Sum of electronic and thermal Free Energies=         -189.689457

                     E (Thermal)             CV                S
                      KCal/Mol        Cal/Mol-Kelvin    Cal/Mol-Kelvin
 Total                   24.457             15.651             69.591
 Electronic               0.000              0.000              1.377
 Translational            0.889              2.981             38.294
 Rotational               0.889              2.981             24.138
 Vibrational             22.680              9.689              5.782
 Vibration     1          0.665              1.755              1.697
 Vibration     2          0.709              1.626              1.286
 Vibration     3          0.721              1.592              1.205
 Vibration     4          0.936              1.075              0.486

 Normal termination of Gaussian 09 at Mon Jun 20 10:42:01 2016.
