 Gaussian 09, Revision E.01,
 Gaussian 09:  EM64L-G09RevE.01 30-Nov-2015

 ---------------------------------------------
 #p b3lyp/6-311++G(3df,2p) freq symmetry=Loose
 ---------------------------------------------

 ---------
 b3lyp opt
 ---------
 Symbolic Z-matrix:
 Charge =  2 Multiplicity = 2

                         Standard orientation:
 ---------------------------------------------------------------------
 Center     Atomic      Atomic             Coordinates (Angstroms)
 Number     Number       Type             X           Y           Z
 ---------------------------------------------------------------------
      1          6           0        0.000000   -0.000000    0.093501
      2          1           0        0.000000   -0.000000    1.232068
      3          1           0        0.000000    0.828126   -0.896536
      4          1           0       -0.000000   -0.828126   -0.896536
 ---------------------------------------------------------------------

 SCF Done:  E(UB3LYP) =  -38.6198718804     A.U. after    9 cycles

 The electronic state is 2-B2.
 Alpha  occ. eigenvalues --  -11.09963  -1.42516  -1.18565  -1.11356
 Alpha virt. eigenvalues --   -0.85956  -0.60775  -0.60330  -0.43146  -0.36567
 Alpha virt. eigenvalues --   -0.32906  -0.32349  -0.30901  -0.27324  -0.24564
 Alpha virt. eigenvalues --   -0.21916  -0.20781  -0.18296  -0.10520  -0.09878

  Beta  occ. eigenvalues --  -11.08853  -1.37075  -1.16821
  Beta virt. eigenvalues --   -0.93879  -0.84468  -0.57319  -0.53838  -0.42396
  Beta virt. eigenvalues --   -0.36082  -0.31985  -0.31674  -0.29283  -0.27133
  Beta virt. eigenvalues --   -0.22698  -0.21554  -0.19911  -0.18257  -0.09810

 Mulliken charges and spin densities:
               1          2
     1  C    0.619167   0.639815
     2  H    0.426362  -0.017425
     3  H    0.477236   0.188805
     4  H    0.477236   0.188805
 Sum of Mulliken charges =   2.00000   1.00000

 Dipole moment (field-independent basis, Debye):
    X=             -0.0000    Y=              0.0000    Z=             -1.5582  Tot=              1.5582
 Quadrupole moment (field-independent basis, Debye-Ang):
   XX=             -4.1248   YY=             -1.2207   ZZ=              2.2566
   XY=              0.0000   XZ=              0.0000   YZ=             -0.0000

  Exact polarizability:   5.978   0.000   9.749  -0.000  -0.000  10.483
 Approx polarizability:   7.986   0.000  12.217   0.000   0.000  12.640

 ******    1 imaginary frequencies (negative Signs) ******

                      1                      2                      3
                     B2                     A1                     B1
 Frequencies --   -503.5548              1022.3986              1066.3549
 Red. masses --      1.2225                 1.0344                 1.2194
 Frc consts  --      0.1826                 0.6371                 0.8170
 IR Inten    --    851.2651                10.8079               115.0794

                      4                      5                      6
                     B2                     A1                     A1
 Frequencies --   1156.0112              2005.3098              2728.2715
 Red. masses --      1.0090                 1.0811                 1.1086
 Frc consts  --      0.7944                 2.5613                 4.8617
 IR Inten    --    296.5361               304.6194               552.6057

 - Thermochemistry -
 -------------------
 Temperature   298.150 Kelvin.  Pressure   1.00000 Atm.
 Atom     1 has atomic number  6 and mass  12.00000

 Molecular mass:    15.02348 amu.
 Principal axes and moments of inertia in atomic units:
                           1         2         3
     Eigenvalues --     4.93635  11.54986  16.48620
           X            0.00000   0.00000   1.00000
           Y            0.00000   1.00000   0.00000
           Z            1.00000   0.00000   0.00000
 This molecule is an asymmetric top.
 Rotational symmetry number  2.
 Rotational temperatures (Kelvin)     17.54613     7.49912     5.25371
 Rotational constants (GHZ):         365.60255   156.25659   109.46978
    1 imaginary frequencies ignored.
 Zero-point vibrational energy      47721.1 (Joules/Mol)
                                   11.40562 (Kcal/Mol)
 Vibrational temperatures:   1471.00  1534.24  1663.24  2885.19  3925.37
          (Kelvin)

 Zero-point correction=                           0.018176 (Hartree/Particle)
 Thermal correction to Energy=                    0.021091
 Thermal correction to Enthalpy=                  0.022036
 Thermal correction to Gibbs Free Energy=        -0.001189
 Sum of electronic and zero-point Energies=            -38.601696
 Sum of electronic and thermal Energies=               -38.598781
 Sum of electronic and thermal Enthalpies=             -38.597836
 Sum of electronic and thermal Free Energies=          -38.621061

                     E (Thermal)             CV                S
                      KCal/Mol        Cal/Mol-Kelvin    Cal/Mol-Kelvin
 Total                   13.235              6.873             48.881
 Electronic               0.000              0.000              1.377
 Translational            0.889              2.981             34.068
 Rotational               0.889              2.981             13.228
 Vibrational             11.458              0.911              0.208

 Optimization completed.
    -- Stationary point found.
 Normal termination of Gaussian 09 at Mon Jun 20 11:04:51 2016.
