 Gaussian 09, Revision E.01,
 Gaussian 09:  EM64L-G09RevE.01 30-Nov-2015

 ---------------------------------------------
 #p b3lyp/6-311++G(3df,2p) freq symmetry=Loose
 ---------------------------------------------

 ---------
 b3lyp opt
 ---------
 Symbolic Z-matrix:
 Charge =  2 Multiplicity = 4

                         Standard orientation:
 ---------------------------------------------------------------------
 Center     Atomic      Atomic             Coordinates (Angstroms)
 Number     Number       Type             X           Y           Z
 ---------------------------------------------------------------------
      1          6           0       -0.000000   -0.000000    0.000000
      2          1           0        0.000000    1.392285    0.000000
      3          1           0        1.205754   -0.696142    0.000000
      4          1           0       -1.205754   -0.696142    0.000000
 ---------------------------------------------------------------------

 SCF Done:  E(UB3LYP) =  -38.4798435112     A.U. after    8 cycles

 The electronic state is 4-A2".
 Alpha  occ. eigenvalues --  -10.99699  -1.36349  -1.10228  -1.10228  -0.92772
 Alpha virt. eigenvalues --   -0.64804  -0.56986  -0.56986  -0.33794  -0.33794
 Alpha virt. eigenvalues --   -0.33074  -0.31089  -0.24893  -0.24893  -0.20850
 Alpha virt. eigenvalues --   -0.20762  -0.20762  -0.09684  -0.09684  -0.05996

  Beta  occ. eigenvalues --  -10.96431  -1.21755
  Beta virt. eigenvalues --   -0.91038  -0.91038  -0.70984  -0.54940  -0.48014
  Beta virt. eigenvalues --   -0.48014  -0.31960  -0.31960  -0.30901  -0.28685
  Beta virt. eigenvalues --   -0.21455  -0.21455  -0.19934  -0.19373  -0.19373

 Mulliken charges and spin densities:
               1          2
     1  C    0.388675   2.035347
     2  H    0.537108   0.321551
     3  H    0.537108   0.321551
     4  H    0.537108   0.321551
 Sum of Mulliken charges =   2.00000   3.00000

 Dipole moment (field-independent basis, Debye):
    X=             -0.0000    Y=              0.0000    Z=              0.0000  Tot=              0.0000
 Quadrupole moment (field-independent basis, Debye-Ang):
   XX=              3.4928   YY=              3.4928   ZZ=             -5.9934
   XY=             -0.0000   XZ=             -0.0000   YZ=             -0.0000

  Exact polarizability:  15.073  -0.000  15.073   0.000  -0.000   7.368
 Approx polarizability:  19.657  -0.000  19.657  -0.000  -0.000   8.674

 ******    1 imaginary frequencies (negative Signs) ******

                      1                      2                      3
                     A2"                    E'                     E'
 Frequencies --   -747.8478               582.6009               582.6009
 Red. masses --      1.2356                 1.0146                 1.0146
 Frc consts  --      0.4072                 0.2029                 0.2029
 IR Inten    --    518.6559               181.4066               181.3977

                      4                      5                      6
                     E'                     E'                     A1'
 Frequencies --   1067.4901              1067.4903              1526.1191
 Red. masses --      1.2256                 1.2256                 1.0078
 Frc consts  --      0.8228                 0.8228                 1.3830
 IR Inten    --   1588.0141              1588.0413                 0.0000

 - Thermochemistry -
 -------------------
 Temperature   298.150 Kelvin.  Pressure   1.00000 Atm.
 Atom     1 has atomic number  6 and mass  12.00000

 Molecular mass:    15.02348 amu.
 Principal axes and moments of inertia in atomic units:
                           1         2         3
     Eigenvalues --    10.46479  10.46479  20.92957
           X           -0.38268   0.92388   0.00000
           Y            0.92388   0.38268   0.00000
           Z            0.00000   0.00000   1.00000
 This molecule is an oblate symmetric top.
 Rotational symmetry number  6.
 Rotational temperatures (Kelvin)      8.27669     8.27669     4.13835
 Rotational constants (GHZ):         172.45847   172.45847    86.22923
    1 imaginary frequencies ignored.
 Zero-point vibrational energy      28867.7 (Joules/Mol)
                                    6.89954 (Kcal/Mol)
 Warning -- explicit consideration of   2 degrees of freedom as
           vibrations may cause significant error
 Vibrational temperatures:    838.23   838.23  1535.88  1535.88  2195.74
          (Kelvin)

 Zero-point correction=                           0.010995 (Hartree/Particle)
 Thermal correction to Energy=                    0.014228
 Thermal correction to Enthalpy=                  0.015173
 Thermal correction to Gibbs Free Energy=        -0.008521
 Sum of electronic and zero-point Energies=            -38.468848
 Sum of electronic and thermal Energies=               -38.465615
 Sum of electronic and thermal Enthalpies=             -38.464671
 Sum of electronic and thermal Free Energies=          -38.488364

                     E (Thermal)             CV                S
                      KCal/Mol        Cal/Mol-Kelvin    Cal/Mol-Kelvin
 Total                    8.928              8.786             49.867
 Electronic               0.000              0.000              2.755
 Translational            0.889              2.981             34.068
 Rotational               0.889              2.981             11.930
 Vibrational              7.151              2.824              1.114
 Vibration     1          0.939              1.069              0.481
 Vibration     2          0.939              1.069              0.481

 Optimization completed.
    -- Stationary point found.
 Normal termination of Gaussian 09 at Mon Jun 20 11:04:52 2016.
