 Gaussian 09, Revision E.01,
 Gaussian 09:  EM64L-G09RevE.01 30-Nov-2015

 ---------------------------------------------
 #p b3lyp/6-311++G(3df,2p) freq symmetry=Loose
 ---------------------------------------------

 ---------
 b3lyp opt
 ---------
 Symbolic Z-matrix:
 Charge =  3 Multiplicity = 3

                         Standard orientation:
 ---------------------------------------------------------------------
 Center     Atomic      Atomic             Coordinates (Angstroms)
 Number     Number       Type             X           Y           Z
 ---------------------------------------------------------------------
      1          6           0       -0.068460   -0.438122    0.000000
      2          6           0       -0.068460    0.995040    0.000000
      3          1           0       -1.170341   -0.924342    0.000000
      4          1           0        0.995928   -1.208582    0.617991
      5          1           0        0.995928   -1.208582   -0.617991
 ---------------------------------------------------------------------

 SCF Done:  E(UB3LYP) =  -75.7046678318     A.U. after   13 cycles

 The electronic state is 3-A".
 Alpha  occ. eigenvalues --  -11.41062 -11.26481  -1.76639  -1.50702  -1.37583
 Alpha  occ. eigenvalues --   -1.33979  -1.29509
 Alpha virt. eigenvalues --   -1.09134  -1.05317  -0.87258  -0.79850  -0.68554
 Alpha virt. eigenvalues --   -0.64970  -0.56870  -0.53156  -0.50239  -0.48637
 Alpha virt. eigenvalues --   -0.45615  -0.44197  -0.39851  -0.37625  -0.37194

  Beta  occ. eigenvalues --  -11.37877 -11.25333  -1.70764  -1.46834  -1.35526
  Beta virt. eigenvalues --   -1.13817  -1.11053  -1.04550  -0.95918  -0.84910
  Beta virt. eigenvalues --   -0.76146  -0.67232  -0.61981  -0.54902  -0.50930
  Beta virt. eigenvalues --   -0.49160  -0.47558  -0.43901  -0.42642  -0.39504

 Mulliken charges and spin densities:
               1          2
     1  C    0.305323   0.635092
     2  C    1.333230   1.343332
     3  H    0.428947  -0.011101
     4  H    0.466249   0.016339
     5  H    0.466249   0.016339
 Sum of Mulliken charges =   3.00000   2.00000

 Dipole moment (field-independent basis, Debye):
    X=              2.1663    Y=             -2.7046    Z=              0.0000  Tot=              3.4652
 Quadrupole moment (field-independent basis, Debye-Ang):
   XX=              0.7275   YY=              8.8695   ZZ=             -5.4634
   XY=             -4.6914   XZ=              0.0000   YZ=             -0.0000

  Exact polarizability:  14.808  -1.842  23.097  -0.000   0.000  11.068
 Approx polarizability:  20.469  -1.897  45.661   0.000   0.000  15.751

 ******    2 imaginary frequencies (negative Signs) ******

                      1                      2                      3
                     A"                     A"                     A'
 Frequencies --   -852.6041              -354.7953               560.6233
 Red. masses --      1.0399                 1.0373                 1.5516
 Frc consts  --      0.4454                 0.0769                 0.2873
 IR Inten    --    691.7826                28.0725               154.9399

                      4                      5                      6
                     A"                     A'                     A'
 Frequencies --    731.5924               944.3754              1083.3012
 Red. masses --      1.4164                 1.6751                 1.7207
 Frc consts  --      0.4467                 0.8802                 1.1897
 IR Inten    --    142.6513                 8.4276               239.7969

                      7                      8                      9
                     A'                     A'                     A'
 Frequencies --   1149.3869              1294.3376              2058.2445
 Red. masses --      1.1078                 1.1998                 1.0727
 Frc consts  --      0.8622                 1.1843                 2.6775
 IR Inten    --    888.1184               333.4073               937.9394

 - Thermochemistry -
 -------------------
 Temperature   298.150 Kelvin.  Pressure   1.00000 Atm.
 Atom     1 has atomic number  6 and mass  12.00000

 Molecular mass:    27.02348 amu.
 Principal axes and moments of inertia in atomic units:
                           1         2         3
     Eigenvalues --    14.41664  66.25515  75.17376
           X           -0.11747   0.99308   0.00000
           Y            0.99308   0.11747   0.00000
           Z            0.00000   0.00000   1.00000
 This molecule is an asymmetric top.
 Rotational symmetry number  1.
 Rotational temperatures (Kelvin)      6.00790     1.30728     1.15218
 Rotational constants (GHZ):         125.18456    27.23926    24.00759
    2 imaginary frequencies ignored.
 Zero-point vibrational energy      46785.1 (Joules/Mol)
                                   11.18191 (Kcal/Mol)
 Warning -- explicit consideration of   1 degrees of freedom as
           vibrations may cause significant error
 Vibrational temperatures:    806.61  1052.60  1358.74  1558.63  1653.71
          (Kelvin)           1862.26  2961.35

 Zero-point correction=                           0.017820 (Hartree/Particle)
 Thermal correction to Energy=                    0.021040
 Thermal correction to Enthalpy=                  0.021984
 Thermal correction to Gibbs Free Energy=        -0.005559
 Sum of electronic and zero-point Energies=            -75.686848
 Sum of electronic and thermal Energies=               -75.683628
 Sum of electronic and thermal Enthalpies=             -75.682683
 Sum of electronic and thermal Free Energies=          -75.710227

                     E (Thermal)             CV                S
                      KCal/Mol        Cal/Mol-Kelvin    Cal/Mol-Kelvin
 Total                   13.203              8.986             57.971
 Electronic               0.000              0.000              2.183
 Translational            0.889              2.981             35.818
 Rotational               0.889              2.981             18.913
 Vibrational             11.426              3.024              1.057
 Vibration     1          0.916              1.117              0.523

 Optimization completed.
    -- Stationary point found.
 Normal termination of Gaussian 09 at Mon Jun 20 10:42:41 2016.
