 Gaussian 09, Revision E.01,
 Gaussian 09:  EM64L-G09RevE.01 30-Nov-2015

 ---------------------------------------------
 #p b3lyp/6-311++G(3df,2p) freq symmetry=Loose
 ---------------------------------------------

 ---------
 b3lyp opt
 ---------
 Symbolic Z-matrix:
 Charge =  0 Multiplicity = 4

                         Standard orientation:
 ---------------------------------------------------------------------
 Center     Atomic      Atomic             Coordinates (Angstroms)
 Number     Number       Type             X           Y           Z
 ---------------------------------------------------------------------
      1          6           0        0.052526   -0.686337    0.000000
      2          1           0        0.983656   -1.229501    0.000000
      3          1           0       -0.881312   -1.231374    0.000000
      4          6           0        0.052526    0.834115    0.000000
      5          1           0       -0.732654    1.574206    0.000000
 ---------------------------------------------------------------------

 SCF Done:  E(UB3LYP) =  -77.8021226964     A.U. after   11 cycles

 The electronic state is 4-A'.
 Alpha  occ. eigenvalues --  -10.21892 -10.20647  -0.76040  -0.60864  -0.46242
 Alpha  occ. eigenvalues --   -0.43021  -0.32632  -0.27118  -0.16016
 Alpha virt. eigenvalues --   -0.00111   0.01359   0.02894   0.06306   0.07965
 Alpha virt. eigenvalues --    0.08474   0.10067   0.10930   0.12389   0.14308
 Alpha virt. eigenvalues --    0.14695   0.15288   0.15739   0.23864   0.25907

  Beta  occ. eigenvalues --  -10.19141 -10.18983  -0.69772  -0.55217  -0.43842
  Beta  occ. eigenvalues --   -0.40957
  Beta virt. eigenvalues --   -0.14569  -0.09002   0.00187   0.01088   0.01713
  Beta virt. eigenvalues --    0.03047   0.07962   0.08008   0.09747   0.11808
  Beta virt. eigenvalues --    0.13023   0.13487   0.14731   0.15182   0.16450

 Mulliken charges and spin densities:
               1          2
     1  C   -0.230235   1.030089
     2  H    0.157827  -0.021929
     3  H    0.148792   0.015455
     4  C   -0.264152   1.975630
     5  H    0.187767   0.000755
 Sum of Mulliken charges =   0.00000   3.00000

 Dipole moment (field-independent basis, Debye):
    X=             -0.5810    Y=             -0.4644    Z=              0.0000  Tot=              0.7438
 Quadrupole moment (field-independent basis, Debye-Ang):
   XX=            -12.5564   YY=            -13.1595   ZZ=            -15.1989
   XY=             -1.1467   XZ=              0.0000   YZ=              0.0000

  Exact polarizability:  23.419  -0.561  30.555  -0.001   0.000  23.857
 Approx polarizability:  29.515  -0.623  34.413  -0.000  -0.000  28.366

 ******    2 imaginary frequencies (negative Signs) ******

                      1                      2                      3
                     A"                     A"                     A'
 Frequencies --   -601.7463              -248.6745               728.3682
 Red. masses --      1.0985                 1.3468                 1.0520
 Frc consts  --      0.2344                 0.0491                 0.3288
 IR Inten    --     38.4444                35.4559                 7.0487

                      4                      5                      6
                     A'                     A'                     A'
 Frequencies --   1051.3883              1060.0506              1410.5441
 Red. masses --      1.4476                 4.7217                 1.1283
 Frc consts  --      0.9428                 3.1261                 1.3227
 IR Inten    --      0.0403                 0.0898                 0.0160

                      7                      8                      9
                     A'                     A'                     A'
 Frequencies --   3141.6748              3226.0327              3260.9215
 Red. masses --      1.0491                 1.0921                 1.1171
 Frc consts  --      6.1011                 6.6966                 6.9985
 IR Inten    --      2.6075                 1.5736                 0.5641

 - Thermochemistry -
 -------------------
 Temperature   298.150 Kelvin.  Pressure   1.00000 Atm.
 Atom     1 has atomic number  6 and mass  12.00000

 Molecular mass:    27.02348 amu.
 Principal axes and moments of inertia in atomic units:
                           1         2         3
     Eigenvalues --     8.08902  70.02040  78.10942
           X           -0.07022   0.99753   0.00000
           Y            0.99753   0.07022   0.00000
           Z           -0.00000   0.00000   1.00000
 This molecule is an asymmetric top.
 Rotational symmetry number  1.
 Rotational temperatures (Kelvin)     10.70757     1.23698     1.10888
 Rotational constants (GHZ):         223.10987    25.77451    23.10529
    2 imaginary frequencies ignored.
 Zero-point vibrational energy      83014.7 (Joules/Mol)
                                   19.84100 (Kcal/Mol)
 Vibrational temperatures:   1047.96  1512.71  1525.17  2029.46  4520.16
          (Kelvin)           4641.54  4691.73

 Zero-point correction=                           0.031619 (Hartree/Particle)
 Thermal correction to Energy=                    0.034619
 Thermal correction to Enthalpy=                  0.035564
 Thermal correction to Gibbs Free Energy=         0.008270
 Sum of electronic and zero-point Energies=            -77.770504
 Sum of electronic and thermal Energies=               -77.767503
 Sum of electronic and thermal Enthalpies=             -77.766559
 Sum of electronic and thermal Free Energies=          -77.793853

                     E (Thermal)             CV                S
                      KCal/Mol        Cal/Mol-Kelvin    Cal/Mol-Kelvin
 Total                   21.724              7.480             57.445
 Electronic               0.000              0.000              2.755
 Translational            0.889              2.981             35.818
 Rotational               0.889              2.981             18.432
 Vibrational             19.947              1.518              0.441

 Optimization completed.
    -- Stationary point found.
 Normal termination of Gaussian 09 at Mon Jun 20 10:42:43 2016.
