 Gaussian 09, Revision E.01,
 Gaussian 09:  EM64L-G09RevE.01 30-Nov-2015

 ---------------------------------------------
 #p b3lyp/6-311++G(3df,2p) freq symmetry=Loose
 ---------------------------------------------

 ---------
 b3lyp opt
 ---------
 Symbolic Z-matrix:
 Charge =  1 Multiplicity = 1

                         Standard orientation:
 ---------------------------------------------------------------------
 Center     Atomic      Atomic             Coordinates (Angstroms)
 Number     Number       Type             X           Y           Z
 ---------------------------------------------------------------------
      1          6           0       -0.000000    0.938141   -0.000000
      2          1           0        0.097823    2.020395   -0.000000
      3          6           0        0.937202   -0.048245    0.000000
      4          1           0        2.023262   -0.006559    0.000000
      5          6           0       -1.282308    0.237706   -0.000000
      6          6           0        0.171646   -1.292207    0.000000
      7          1           0       -1.080326   -1.026202   -0.000000
 ---------------------------------------------------------------------

 SCF Done:  E(RB3LYP) =  -153.619759359     A.U. after   11 cycles

 The electronic state is 1-A'.
 Alpha  occ. eigenvalues --  -10.54412 -10.54406 -10.51068 -10.51003  -1.16770
 Alpha  occ. eigenvalues --   -0.95935  -0.93207  -0.76107  -0.74671  -0.74246
 Alpha  occ. eigenvalues --   -0.64273  -0.55828  -0.50685
 Alpha virt. eigenvalues --   -0.43128  -0.36828  -0.31775  -0.21532  -0.16520
 Alpha virt. eigenvalues --   -0.14631  -0.12823  -0.11585  -0.11385  -0.08653
 Alpha virt. eigenvalues --   -0.07274  -0.05978  -0.05674  -0.05325  -0.03591

 Mulliken charges:
               1
     1  C    0.296379
     2  H    0.251015
     3  C    0.296166
     4  H    0.251212
     5  C   -0.144853
     6  C   -0.145305
     7  H    0.195386
 Sum of Mulliken charges =   1.00000

 Dipole moment (field-independent basis, Debye):
    X=              1.6820    Y=              1.5975    Z=              0.0000  Tot=              2.3197
 Quadrupole moment (field-independent basis, Debye-Ang):
   XX=            -17.9141   YY=            -18.0077   ZZ=            -20.9208
   XY=              0.8454   XZ=             -0.0000   YZ=              0.0000

  Exact polarizability:  47.039  -7.234  47.762   0.000  -0.001  26.804
 Approx polarizability: 100.055 -38.218 103.941   0.000  -0.000  42.412

 ******    1 imaginary frequencies (negative Signs) ******

                      1                      2                      3
                     A"                     A'                     A'
 Frequencies --   -830.8052               513.5223               605.8295
 Red. masses --      2.4961                 7.9955                 2.7278
 Frc consts  --      1.0151                 1.2423                 0.5899
 IR Inten    --      0.0001                 0.0745                26.0903

                      4                      5                      6
                     A"                     A'                     A"
 Frequencies --    715.6008               869.0892              1015.6289
 Red. masses --      1.2703                 1.7421                 1.0566
 Frc consts  --      0.3833                 0.7753                 0.6421
 IR Inten    --      7.7288                36.6683                17.8311

                      7                      8                      9
                     A"                     A'                     A'
 Frequencies --   1054.9463              1084.9228              1142.6666
 Red. masses --      1.6970                 2.0838                 1.1266
 Frc consts  --      1.1128                 1.4451                 0.8667
 IR Inten    --      0.0007                 2.2145                 0.5821

                     10                     11                     12
                     A'                     A'                     A'
 Frequencies --   1178.8116              1367.5272              1586.0300
 Red. masses --      7.0299                 1.6174                 5.0371
 Frc consts  --      5.7556                 1.7821                 7.4655
 IR Inten    --      5.0323               109.3348               138.3149

                     13                     14                     15
                     A'                     A'                     A'
 Frequencies --   1945.7202              3148.3032              3165.9008
 Red. masses --      1.0898                 1.0895                 1.1087
 Frc consts  --      2.4308                 6.3625                 6.5474
 IR Inten    --     85.7148                 9.4128                10.9513

 - Thermochemistry -
 -------------------
 Temperature   298.150 Kelvin.  Pressure   1.00000 Atm.
 Atom     1 has atomic number  6 and mass  12.00000

 Molecular mass:    51.02348 amu.
 Principal axes and moments of inertia in atomic units:
                           1         2         3
     Eigenvalues --   109.28673 149.17785 258.46458
           X           -0.68963   0.72416   0.00000
           Y            0.72416   0.68963   0.00000
           Z            0.00000   0.00000   1.00000
 This molecule is an asymmetric top.
 Rotational symmetry number  1.
 Rotational temperatures (Kelvin)      0.79254     0.58061     0.33511
 Rotational constants (GHZ):          16.51382    12.09792     6.98255
    1 imaginary frequencies ignored.
 Zero-point vibrational energy     116004.9 (Joules/Mol)
                                   27.72583 (Kcal/Mol)
 Warning -- explicit consideration of   2 degrees of freedom as
           vibrations may cause significant error
 Vibrational temperatures:    738.84   871.65  1029.59  1250.42  1461.26
          (Kelvin)           1517.83  1560.96  1644.04  1696.04  1967.56
                             2281.94  2799.45  4529.70  4555.02

 Zero-point correction=                           0.044184 (Hartree/Particle)
 Thermal correction to Energy=                    0.047698
 Thermal correction to Enthalpy=                  0.048642
 Thermal correction to Gibbs Free Energy=         0.018927
 Sum of electronic and zero-point Energies=           -153.575575
 Sum of electronic and thermal Energies=              -153.572062
 Sum of electronic and thermal Enthalpies=            -153.571118
 Sum of electronic and thermal Free Energies=         -153.600832

                     E (Thermal)             CV                S
                      KCal/Mol        Cal/Mol-Kelvin    Cal/Mol-Kelvin
 Total                   29.931             11.172             62.539
 Electronic               0.000              0.000              0.000
 Translational            0.889              2.981             37.712
 Rotational               0.889              2.981             22.959
 Vibrational             28.153              5.210              1.868
 Vibration     1          0.869              1.220              0.625
 Vibration     2          0.964              1.019              0.440

 Optimization completed.
    -- Stationary point found.
 Normal termination of Gaussian 09 at Mon Jun 20 10:46:00 2016.
