 Gaussian 09, Revision E.01,
 Gaussian 09:  EM64L-G09RevE.01 30-Nov-2015

 ---------------------------------------------
 #p b3lyp/6-311++G(3df,2p) freq symmetry=Loose
 ---------------------------------------------

 ---------
 b3lyp opt
 ---------
 Symbolic Z-matrix:
 Charge =  2 Multiplicity = 4

                         Standard orientation:
 ---------------------------------------------------------------------
 Center     Atomic      Atomic             Coordinates (Angstroms)
 Number     Number       Type             X           Y           Z
 ---------------------------------------------------------------------
      1          6           0       -1.071747    1.516874    0.000000
      2          1           0       -2.109344    1.192286    0.000000
      3          1           0       -0.829009    2.584600    0.000000
      4          6           0       -0.000000    0.625482    0.000000
      5          6           0        1.247614    0.104710   -0.000000
      6          1           0        2.338656    0.185346   -0.000000
      7          6           0        0.267190   -0.872017   -0.000000
      8          6           0       -0.343108   -2.035421   -0.000000
 ---------------------------------------------------------------------

 SCF Done:  E(UB3LYP) =  -191.184655900     A.U. after   18 cycles

 The electronic state is 4-A'.
 Alpha  occ. eigenvalues --  -10.85589 -10.77318 -10.76539 -10.73153 -10.67625
 Alpha  occ. eigenvalues --   -1.44074  -1.29252  -1.22358  -1.03581  -0.98746
 Alpha  occ. eigenvalues --   -0.94065  -0.92416  -0.90965  -0.89009  -0.82945
 Alpha  occ. eigenvalues --   -0.81010  -0.70227
 Alpha virt. eigenvalues --   -0.63886  -0.47019  -0.45705  -0.34145  -0.32363
 Alpha virt. eigenvalues --   -0.29235  -0.27899  -0.27719  -0.25734  -0.25599
 Alpha virt. eigenvalues --   -0.23702  -0.23279  -0.20465  -0.20436  -0.20335

  Beta  occ. eigenvalues --  -10.81984 -10.77053 -10.76313 -10.72552 -10.66589
  Beta  occ. eigenvalues --   -1.42998  -1.23623  -1.19200  -1.02885  -0.96828
  Beta  occ. eigenvalues --   -0.91675  -0.88530  -0.87542  -0.82183
  Beta virt. eigenvalues --   -0.68058  -0.65919  -0.58959  -0.56602  -0.40724
  Beta virt. eigenvalues --   -0.39411  -0.33536  -0.31724  -0.28297  -0.27268
  Beta virt. eigenvalues --   -0.27089  -0.24805  -0.24775  -0.22922  -0.21880

 Mulliken charges and spin densities:
               1          2
     1  C   -0.229131   0.640664
     2  H    0.283151  -0.018774
     3  H    0.289606  -0.026817
     4  C    0.194825   0.257651
     5  C    0.220524   0.418630
     6  H    0.389688  -0.025600
     7  C    0.486759   0.047166
     8  C    0.364579   1.707079
 Sum of Mulliken charges =   2.00000   3.00000

 Dipole moment (field-independent basis, Debye):
    X=             -0.3357    Y=             -1.3227    Z=             -0.0000  Tot=              1.3646
 Quadrupole moment (field-independent basis, Debye-Ang):
   XX=             -8.2942   YY=              1.8806   ZZ=            -24.6118
   XY=             -2.4852   XZ=             -0.0000   YZ=              0.0000

  Exact polarizability:  46.507  -5.373  70.017   0.000  -0.000  23.788
 Approx polarizability:  76.008   2.958 145.893  -0.000   0.000  34.333

 ******    1 imaginary frequencies (negative Signs) ******

                      1                      2                      3
                     A"                     A'                     A"
 Frequencies --  -1402.0451               193.4793               332.5824
 Red. masses --      1.1118                 5.7559                 2.0193
 Frc consts  --      1.2877                 0.1269                 0.1316
 IR Inten    --     31.5671                14.7983                26.4613

                      4                      5                      6
                     A'                     A"                     A'
 Frequencies --    392.2511               409.2457               529.9048
 Red. masses --      2.8271                 3.8330                 8.1886
 Frc consts  --      0.2563                 0.3782                 1.3547
 IR Inten    --     12.3219                 1.0654               170.8643

                      7                      8                      9
                     A"                     A"                     A'
 Frequencies --    545.4919               844.1382               855.1104
 Red. masses --      2.3873                 1.3455                 3.5349
 Frc consts  --      0.4185                 0.5649                 1.5229
 IR Inten    --      8.6195                41.9859                 8.0535

                     10                     11                     12
                     A'                     A'                     A'
 Frequencies --    938.1635               998.8057              1047.0952
 Red. masses --      1.4651                 1.8047                 3.5358
 Frc consts  --      0.7598                 1.0607                 2.2841
 IR Inten    --      5.9993                92.7805                17.6437

                     13                     14                     15
                     A'                     A'                     A'
 Frequencies --   1388.0003              1439.3892              1742.9580
 Red. masses --      1.1874                 5.9243                 7.9130
 Frc consts  --      1.3478                 7.2318                14.1634
 IR Inten    --     56.5241                26.7666               183.6455

                     16                     17                     18
                     A'                     A'                     A'
 Frequencies --   3035.2551              3103.4830              3180.9645
 Red. masses --      1.0539                 1.1181                 1.1172
 Frc consts  --      5.7207                 6.3452                 6.6606
 IR Inten    --    330.7953               347.6627                95.5766

 - Thermochemistry -
 -------------------
 Temperature   298.150 Kelvin.  Pressure   1.00000 Atm.
 Atom     1 has atomic number  6 and mass  12.00000

 Molecular mass:    63.02348 amu.
 Principal axes and moments of inertia in atomic units:
                           1         2         3
     Eigenvalues --   145.40961 371.13327 516.54289
           X           -0.27257   0.96214   0.00000
           Y            0.96214   0.27257   0.00000
           Z            0.00000   0.00000   1.00000
 This molecule is an asymmetric top.
 Rotational symmetry number  1.
 Rotational temperatures (Kelvin)      0.59565     0.23338     0.16768
 Rotational constants (GHZ):          12.41143     4.86278     3.49388
    1 imaginary frequencies ignored.
 Zero-point vibrational energy     125466.2 (Joules/Mol)
                                   29.98715 (Kcal/Mol)
 Warning -- explicit consideration of   6 degrees of freedom as
           vibrations may cause significant error
 Vibrational temperatures:    278.37   478.51   564.36   588.81   762.41
          (Kelvin)            784.84  1214.53  1230.31  1349.81  1437.06
                             1506.53  1997.02  2070.96  2507.72  4367.05
                             4465.21  4576.69

 Zero-point correction=                           0.047788 (Hartree/Particle)
 Thermal correction to Energy=                    0.052846
 Thermal correction to Enthalpy=                  0.053790
 Thermal correction to Gibbs Free Energy=         0.019054
 Sum of electronic and zero-point Energies=           -191.136868
 Sum of electronic and thermal Energies=              -191.131810
 Sum of electronic and thermal Enthalpies=            -191.130866
 Sum of electronic and thermal Free Energies=         -191.165602

                     E (Thermal)             CV                S
                      KCal/Mol        Cal/Mol-Kelvin    Cal/Mol-Kelvin
 Total                   33.161             17.228             73.108
 Electronic               0.000              0.000              2.755
 Translational            0.889              2.981             38.342
 Rotational               0.889              2.981             24.837
 Vibrational             31.384             11.266              7.174
 Vibration     1          0.635              1.849              2.194
 Vibration     2          0.715              1.610              1.248
 Vibration     3          0.760              1.487              0.992
 Vibration     4          0.774              1.450              0.929
 Vibration     5          0.885              1.184              0.587
 Vibration     6          0.901              1.150              0.554

 Normal termination of Gaussian 09 at Mon Jun 20 11:03:22 2016.
