 Gaussian 09, Revision E.01,
 Gaussian 09:  EM64L-G09RevE.01 30-Nov-2015

 ---------------------------------------------
 #p b3lyp/6-311++G(3df,2p) freq symmetry=Loose
 ---------------------------------------------

 ---------
 b3lyp opt
 ---------
 Symbolic Z-matrix:
 Charge =  0 Multiplicity = 4

                         Standard orientation:
 ---------------------------------------------------------------------
 Center     Atomic      Atomic             Coordinates (Angstroms)
 Number     Number       Type             X           Y           Z
 ---------------------------------------------------------------------
      1          6           0       -0.359572    0.002058    0.125930
      2          6           0        1.795677   -0.000896    0.129571
      3          6           0        0.747098   -0.876379   -0.123321
      4          6           0        0.749360    0.875388   -0.123899
      5          6           0       -1.826699    0.000942    0.002996
      6          1           0       -2.180068    0.959196   -0.375852
      7          1           0       -2.157779   -0.794259   -0.666239
      8          1           0       -2.297343   -0.171611    0.974430
 ---------------------------------------------------------------------

 SCF Done:  E(UB3LYP) =  -192.053354875     A.U. after   16 cycles

 The electronic state is 4-A.
 Alpha  occ. eigenvalues --  -10.24997 -10.24971 -10.24936 -10.24674 -10.19991
 Alpha  occ. eigenvalues --   -0.97642  -0.78529  -0.65950  -0.60008  -0.48897
 Alpha  occ. eigenvalues --   -0.47166  -0.46878  -0.42060  -0.39813  -0.36050
 Alpha  occ. eigenvalues --   -0.31096  -0.22492  -0.21834
 Alpha virt. eigenvalues --   -0.05728  -0.01206   0.00523   0.02674   0.03245
 Alpha virt. eigenvalues --    0.03840   0.05389   0.05485   0.06336   0.07617
 Alpha virt. eigenvalues --    0.07979   0.09543   0.11172   0.11547   0.12083

  Beta  occ. eigenvalues --  -10.23999 -10.23991 -10.23667 -10.22299 -10.20013
  Beta  occ. eigenvalues --   -0.94932  -0.77329  -0.62347  -0.56560  -0.46509
  Beta  occ. eigenvalues --   -0.45624  -0.44547  -0.38368  -0.37288  -0.29850
  Beta virt. eigenvalues --   -0.15704  -0.09411  -0.09088  -0.03931  -0.00910
  Beta virt. eigenvalues --    0.02583   0.03291   0.03501   0.05487   0.05948
  Beta virt. eigenvalues --    0.06189   0.06677   0.08262   0.09042   0.10192

 Mulliken charges and spin densities:
               1          2
     1  C    0.437607   0.688276
     2  C   -0.107545   1.369259
     3  C   -0.181741   0.449500
     4  C   -0.160990   0.439482
     5  C   -0.472838  -0.011560
     6  H    0.161186   0.010874
     7  H    0.164425   0.023048
     8  H    0.159896   0.031123
 Sum of Mulliken charges =  -0.00000   3.00000

 Dipole moment (field-independent basis, Debye):
    X=             -2.2008    Y=             -0.0071    Z=              0.5407  Tot=              2.2663
 Quadrupole moment (field-independent basis, Debye-Ang):
   XX=            -27.9562   YY=            -32.2216   ZZ=            -30.1075
   XY=              0.0100   XZ=              0.4875   YZ=             -0.0006

  Exact polarizability:  72.255   0.191  57.717   0.538   0.007  38.577
 Approx polarizability: 110.524   0.419 111.685   0.758   0.006  56.182

 ******    1 imaginary frequencies (negative Signs) ******

                      1                      2                      3
                      A                      A                      A
 Frequencies --    -39.7130               232.9485               345.7433
 Red. masses --      1.1586                 4.0323                 3.3758
 Frc consts  --      0.0011                 0.1289                 0.2378
 IR Inten    --      0.0450                 5.5676                 0.5422

                      4                      5                      6
                      A                      A                      A
 Frequencies --    559.6355               627.5495               823.2387
 Red. masses --      8.7929                 7.9092                 6.2669
 Frc consts  --      1.6225                 1.8352                 2.5024
 IR Inten    --     19.0878                 5.2336                 7.3673

                      7                      8                      9
                      A                      A                      A
 Frequencies --    851.8985              1015.0961              1109.3881
 Red. masses --      3.4396                 1.3622                 1.9929
 Frc consts  --      1.4707                 0.8270                 1.4451
 IR Inten    --     14.4587                 0.9068                10.8654

                     10                     11                     12
                      A                      A                      A
 Frequencies --   1142.2471              1287.3109              1401.9531
 Red. masses --     10.1275                11.3273                 1.2008
 Frc consts  --      7.7853                11.0597                 1.3906
 IR Inten    --      0.1513                11.3914                 0.2168

                     13                     14                     15
                      A                      A                      A
 Frequencies --   1464.5568              1476.7226              1494.4692
 Red. masses --      1.1724                 1.0712                 4.4659
 Frc consts  --      1.4817                 1.3763                 5.8767
 IR Inten    --     15.3007                10.2671                14.0217

                     16                     17                     18
                      A                      A                      A
 Frequencies --   3016.7869              3068.2896              3107.2622
 Red. masses --      1.0391                 1.0940                 1.1017
 Frc consts  --      5.5716                 6.0684                 6.2670
 IR Inten    --     10.4069                 6.8439                 4.8843

 - Thermochemistry -
 -------------------
 Temperature   298.150 Kelvin.  Pressure   1.00000 Atm.
 Atom     1 has atomic number  6 and mass  12.00000

 Molecular mass:    63.02348 amu.
 Principal axes and moments of inertia in atomic units:
                           1         2         3
     Eigenvalues --    79.67076 393.32492 456.53190
           X            1.00000   0.00020   0.00024
           Y           -0.00020   1.00000   0.00008
           Z           -0.00024  -0.00008   1.00000
 This molecule is an asymmetric top.
 Rotational symmetry number  1.
 Rotational temperatures (Kelvin)      1.08715     0.22021     0.18972
 Rotational constants (GHZ):          22.65249     4.58842     3.95315
    1 imaginary frequencies ignored.
 Zero-point vibrational energy     137720.7 (Joules/Mol)
                                   32.91603 (Kcal/Mol)
 Warning -- explicit consideration of   3 degrees of freedom as
           vibrations may cause significant error
 Vibrational temperatures:    335.16   497.45   805.19   902.90  1184.46
          (Kelvin)           1225.69  1460.50  1596.16  1643.44  1852.15
                             2017.10  2107.17  2124.67  2150.21  4340.48
                             4414.58  4470.65

 Zero-point correction=                           0.052455 (Hartree/Particle)
 Thermal correction to Energy=                    0.056745
 Thermal correction to Enthalpy=                  0.057690
 Thermal correction to Gibbs Free Energy=         0.024485
 Sum of electronic and zero-point Energies=           -192.000900
 Sum of electronic and thermal Energies=              -191.996610
 Sum of electronic and thermal Enthalpies=            -191.995665
 Sum of electronic and thermal Free Energies=         -192.028870

                     E (Thermal)             CV                S
                      KCal/Mol        Cal/Mol-Kelvin    Cal/Mol-Kelvin
 Total                   35.608             13.992             69.885
 Electronic               0.000              0.000              2.755
 Translational            0.889              2.981             38.342
 Rotational               0.889              2.981             24.174
 Vibrational             33.831              8.030              4.615
 Vibration     1          0.654              1.791              1.856
 Vibration     2          0.724              1.584              1.186
 Vibration     3          0.915              1.119              0.525

 Normal termination of Gaussian 09 at Mon Jun 20 11:04:37 2016.
