 Gaussian 09, Revision E.01,
 Gaussian 09:  EM64L-G09RevE.01 30-Nov-2015

 ---------------------------------------------
 #p b3lyp/6-311++G(3df,2p) freq symmetry=Loose
 ---------------------------------------------

 ---------
 b3lyp opt
 ---------
 Symbolic Z-matrix:
 Charge =  3 Multiplicity = 1

                         Standard orientation:
 ---------------------------------------------------------------------
 Center     Atomic      Atomic             Coordinates (Angstroms)
 Number     Number       Type             X           Y           Z
 ---------------------------------------------------------------------
      1          6           0       -0.141761   -0.000068    0.000181
      2          6           0       -1.912416   -0.000722    0.001434
      3          6           0        0.498895   -0.551586    1.100518
      4          1           0        1.124409   -0.968997    1.930692
      5          6           0        0.497409   -0.677249   -1.028549
      6          1           0        1.119734   -1.189209   -1.806553
      7          6           0        0.497369    1.229391   -0.072869
      8          1           0        1.118885    2.159612   -0.128421
 ---------------------------------------------------------------------

 SCF Done:  E(RB3LYP) =  -190.110981090     A.U. after   18 cycles

 The electronic state is 1-A.
 Alpha  occ. eigenvalues --  -11.15803 -11.02561 -11.02557 -11.02556 -11.01765
 Alpha  occ. eigenvalues --   -1.66536  -1.38693  -1.38690  -1.37389  -1.24103
 Alpha  occ. eigenvalues --   -1.20025  -1.20023  -1.10800  -0.95390  -0.95388
 Alpha virt. eigenvalues --   -0.88960  -0.87772  -0.87770  -0.78596  -0.78593
 Alpha virt. eigenvalues --   -0.76400  -0.62160  -0.56620  -0.54114  -0.54108
 Alpha virt. eigenvalues --   -0.46444  -0.41610  -0.41607  -0.40864  -0.39995

 Mulliken charges:
               1
     1  C   -0.179516
     2  C    0.879007
     3  C    0.279250
     4  H    0.486710
     5  C    0.280326
     6  H    0.486791
     7  C    0.280532
     8  H    0.486900
 Sum of Mulliken charges =   3.00000

 Dipole moment (field-independent basis, Debye):
    X=              0.3232    Y=              0.0008    Z=             -0.0021  Tot=              0.3232
 Quadrupole moment (field-independent basis, Debye-Ang):
   XX=              0.3800   YY=             -6.1706   ZZ=             -6.1886
   XY=             -0.0037   XZ=             -0.0011   YZ=             -0.0008

  Exact polarizability:  63.071   0.007  50.488  -0.009   0.002  50.486
 Approx polarizability: 363.190   0.102 147.426  -0.135  -0.004 147.475

 ******    2 imaginary frequencies (negative Signs) ******

                      1                      2                      3
                      A                      A                      A
 Frequencies --   -555.1900              -554.1210               185.0379
 Red. masses --      6.2173                 6.1926                 3.5676
 Frc consts  --      1.1291                 1.1203                 0.0720
 IR Inten    --      2.3456                 2.2460                28.2783

                      4                      5                      6
                      A                      A                      A
 Frequencies --    185.5245               185.7369               307.8888
 Red. masses --      5.7980                 3.5300                 8.0919
 Frc consts  --      0.1176                 0.0718                 0.4519
 IR Inten    --      3.6227                28.8445                96.7510

                      7                      8                      9
                      A                      A                      A
 Frequencies --    406.2799               406.4563               466.9054
 Red. masses --      1.1469                 1.1461                 1.2418
 Frc consts  --      0.1115                 0.1116                 0.1595
 IR Inten    --     23.6938                23.7221                 0.0002

                     10                     11                     12
                      A                      A                      A
 Frequencies --    627.0432               627.6365               704.0333
 Red. masses --      1.4177                 1.4163                 1.1793
 Frc consts  --      0.3284                 0.3287                 0.3444
 IR Inten    --     42.4784                42.3351                73.2340

                     13                     14                     15
                      A                      A                      A
 Frequencies --   1170.4289              1256.8307              1256.9894
 Red. masses --      6.4583                 6.1309                 6.1258
 Frc consts  --      5.2127                 5.7059                 5.7026
 IR Inten    --     98.1772                65.1381                64.9747

                     16                     17                     18
                      A                      A                      A
 Frequencies --   2866.2004              2866.8922              2887.3758
 Red. masses --      1.1299                 1.1299                 1.1164
 Frc consts  --      5.4689                 5.4714                 5.4839
 IR Inten    --    899.6692               901.4721               587.6557

 - Thermochemistry -
 -------------------
 Temperature   298.150 Kelvin.  Pressure   1.00000 Atm.
 Atom     1 has atomic number  6 and mass  12.00000

 Molecular mass:    63.02348 amu.
 Principal axes and moments of inertia in atomic units:
                           1         2         3
     Eigenvalues --   245.39885 325.07819 325.10997
           X            1.00000  -0.00022   0.00064
           Y            0.00021   0.99977   0.02148
           Z           -0.00064  -0.02148   0.99977
 This molecule is an asymmetric top.
 Rotational symmetry number  1.
 Rotational temperatures (Kelvin)      0.35295     0.26644     0.26641
 Rotational constants (GHZ):           7.35432     5.55171     5.55117
    2 imaginary frequencies ignored.
 Zero-point vibrational energy      98137.2 (Joules/Mol)
                                   23.45536 (Kcal/Mol)
 Warning -- explicit consideration of   7 degrees of freedom as
           vibrations may cause significant error
 Vibrational temperatures:    266.23   266.93   267.23   442.98   584.55
          (Kelvin)            584.80   671.77   902.17   903.03  1012.95
                             1683.98  1808.30  1808.53  4123.82  4124.81
                             4154.28

 Zero-point correction=                           0.037378 (Hartree/Particle)
 Thermal correction to Energy=                    0.043677
 Thermal correction to Enthalpy=                  0.044621
 Thermal correction to Gibbs Free Energy=         0.008916
 Sum of electronic and zero-point Energies=           -190.073603
 Sum of electronic and thermal Energies=              -190.067304
 Sum of electronic and thermal Enthalpies=            -190.066360
 Sum of electronic and thermal Free Energies=         -190.102065

                     E (Thermal)             CV                S
                      KCal/Mol        Cal/Mol-Kelvin    Cal/Mol-Kelvin
 Total                   27.408             20.773             75.148
 Electronic               0.000              0.000              0.000
 Translational            0.889              2.981             38.342
 Rotational               0.889              2.981             24.765
 Vibrational             25.630             14.812             12.041
 Vibration     1          0.631              1.860              2.277
 Vibration     2          0.632              1.860              2.272
 Vibration     3          0.632              1.859              2.270
 Vibration     4          0.698              1.659              1.374
 Vibration     5          0.771              1.457              0.940
 Vibration     6          0.771              1.456              0.939
 Vibration     7          0.824              1.323              0.746

 Optimization completed.
    -- Stationary point found.
 Normal termination of Gaussian 09 at Mon Jun 20 11:10:19 2016.
