 Gaussian 09, Revision E.01,
 Gaussian 09:  EM64L-G09RevE.01 30-Nov-2015

 ---------------------------------------------
 #p b3lyp/6-311++G(3df,2p) freq symmetry=Loose
 ---------------------------------------------

 ---------
 b3lyp opt
 ---------
 Symbolic Z-matrix:
 Charge =  3 Multiplicity = 3

                         Standard orientation:
 ---------------------------------------------------------------------
 Center     Atomic      Atomic             Coordinates (Angstroms)
 Number     Number       Type             X           Y           Z
 ---------------------------------------------------------------------
      1          6           0        0.010786    0.245717    0.000000
      2          6           0       -0.837672    1.329366   -0.000000
      3          6           0        0.558995    1.518770    0.000000
      4          1           0        1.436181    2.212466    0.000000
      5          6           0        0.010786   -1.456603    0.650524
      6          1           0        0.020868   -1.648175    1.764105
      7          6           0        0.010786   -1.456603   -0.650524
      8          1           0        0.020868   -1.648175   -1.764105
 ---------------------------------------------------------------------

 SCF Done:  E(UB3LYP) =  -190.367396172     A.U. after   16 cycles

 The electronic state is 3-A'.
 Alpha  occ. eigenvalues --  -11.07788 -11.07680 -11.03103 -11.02083 -10.99529
 Alpha  occ. eigenvalues --   -1.69084  -1.62737  -1.32373  -1.28965  -1.26827
 Alpha  occ. eigenvalues --   -1.24688  -1.18654  -1.12567  -1.11522  -1.08909
 Alpha  occ. eigenvalues --   -1.01632
 Alpha virt. eigenvalues --   -0.85449  -0.78547  -0.75256  -0.73281  -0.64154
 Alpha virt. eigenvalues --   -0.59057  -0.53048  -0.51597  -0.51062  -0.49000
 Alpha virt. eigenvalues --   -0.45201  -0.44113  -0.42081  -0.39858  -0.38143

  Beta  occ. eigenvalues --  -11.07027 -11.06928 -11.01924 -11.00881 -10.99328
  Beta  occ. eigenvalues --   -1.67345  -1.59621  -1.31056  -1.27425  -1.24685
  Beta  occ. eigenvalues --   -1.23823  -1.15030  -1.10776  -1.07878
  Beta virt. eigenvalues --   -0.97126  -0.84433  -0.83904  -0.73811  -0.72918
  Beta virt. eigenvalues --   -0.70214  -0.63250  -0.57605  -0.50933  -0.50665
  Beta virt. eigenvalues --   -0.49928  -0.48015  -0.44876  -0.43256  -0.41917

 Mulliken charges and spin densities:
               1          2
     1  C    0.195287  -0.103735
     2  C    0.239732   1.074182
     3  C    0.337084   0.117463
     4  H    0.439721   0.025735
     5  C    0.385490   0.457170
     6  H    0.508598  -0.013993
     7  C    0.385490   0.457170
     8  H    0.508598  -0.013993
 Sum of Mulliken charges =   3.00000   2.00000

 Dipole moment (field-independent basis, Debye):
    X=              1.0459    Y=             -2.7492    Z=             -0.0000  Tot=              2.9414
 Quadrupole moment (field-independent basis, Debye-Ang):
   XX=            -15.7067   YY=             15.3672   ZZ=             -7.8828
   XY=              3.1316   XZ=              0.0000   YZ=              0.0000

  Exact polarizability:  28.621   0.931  65.567   0.000   0.000  31.411
 Approx polarizability:  48.592  -4.977 131.471   0.000  -0.000  51.723

 ******    2 imaginary frequencies (negative Signs) ******

                      1                      2                      3
                     A"                     A"                     A'
 Frequencies --   -540.4555              -127.5068               257.9755
 Red. masses --     10.3416                 2.9677                 8.3476
 Frc consts  --      1.7797                 0.0284                 0.3273
 IR Inten    --     52.3192                 4.5476                91.3694

                      4                      5                      6
                     A"                     A'                     A"
 Frequencies --    307.9433               314.8476               652.6844
 Red. masses --      3.6753                 4.9382                 1.5647
 Frc consts  --      0.2053                 0.2884                 0.3927
 IR Inten    --      7.4719                 9.0885                 1.3410

                      7                      8                      9
                     A'                     A"                     A'
 Frequencies --    696.3452               837.0454               869.0444
 Red. masses --      1.1039                 1.2254                 1.1062
 Frc consts  --      0.3154                 0.5058                 0.4922
 IR Inten    --     74.7545                 3.2756                92.2266

                     10                     11                     12
                     A"                     A'                     A'
 Frequencies --    889.5721               904.0665              1009.5725
 Red. masses --      1.3828                 1.3105                 8.1869
 Frc consts  --      0.6447                 0.6311                 4.9164
 IR Inten    --     14.1041               150.3298                 0.3284

                     13                     14                     15
                     A'                     A'                     A'
 Frequencies --   1071.6598              1466.0184              1625.4236
 Red. masses --      6.2432                 6.9581                 3.7464
 Frc consts  --      4.2245                 8.8109                 5.8318
 IR Inten    --    127.2157               292.4858               219.2725

                     16                     17                     18
                     A"                     A'                     A'
 Frequencies --   2734.2421              2856.8623              2866.0479
 Red. masses --      1.0851                 1.2421                 1.1246
 Frc consts  --      4.7796                 5.9729                 5.4428
 IR Inten    --   1113.7022               223.7706               655.5880

 - Thermochemistry -
 -------------------
 Temperature   298.150 Kelvin.  Pressure   1.00000 Atm.
 Atom     1 has atomic number  6 and mass  12.00000

 Molecular mass:    63.02348 amu.
 Principal axes and moments of inertia in atomic units:
                           1         2         3
     Eigenvalues --   109.44449 446.88959 454.78452
           X           -0.00375   0.00000   0.99999
           Y            0.99999   0.00000   0.00375
           Z           -0.00000   1.00000  -0.00000
 This molecule is an asymmetric top.
 Rotational symmetry number  1.
 Rotational temperatures (Kelvin)      0.79139     0.19381     0.19045
 Rotational constants (GHZ):          16.49001     4.03845     3.96834
    2 imaginary frequencies ignored.
 Zero-point vibrational energy     115794.6 (Joules/Mol)
                                   27.67558 (Kcal/Mol)
 Warning -- explicit consideration of   3 degrees of freedom as
           vibrations may cause significant error
 Vibrational temperatures:    371.17   443.06   452.99   939.07  1001.88
          (Kelvin)           1204.32  1250.36  1279.89  1300.75  1452.55
                             1541.88  2109.27  2338.62  3933.96  4110.38
                             4123.60

 Zero-point correction=                           0.044104 (Hartree/Particle)
 Thermal correction to Energy=                    0.048782
 Thermal correction to Enthalpy=                  0.049726
 Thermal correction to Gibbs Free Energy=         0.015991
 Sum of electronic and zero-point Energies=           -190.323292
 Sum of electronic and thermal Energies=              -190.318614
 Sum of electronic and thermal Enthalpies=            -190.317670
 Sum of electronic and thermal Free Energies=         -190.351405

                     E (Thermal)             CV                S
                      KCal/Mol        Cal/Mol-Kelvin    Cal/Mol-Kelvin
 Total                   30.611             15.723             71.001
 Electronic               0.000              0.000              2.183
 Translational            0.889              2.981             38.342
 Rotational               0.889              2.981             24.612
 Vibrational             28.834              9.762              5.864
 Vibration     1          0.667              1.749              1.675
 Vibration     2          0.698              1.659              1.373
 Vibration     3          0.702              1.645              1.337

 Optimization completed.
    -- Stationary point found.
 Normal termination of Gaussian 09 at Mon Jun 20 11:10:36 2016.
