 Gaussian 09, Revision E.01,
 Gaussian 09:  EM64L-G09RevE.01 30-Nov-2015

 ---------------------------------------------
 #p b3lyp/6-311++G(3df,2p) freq symmetry=Loose
 ---------------------------------------------

 ---------
 b3lyp opt
 ---------
 Symbolic Z-matrix:
 Charge =  2 Multiplicity = 4

                         Standard orientation:
 ---------------------------------------------------------------------
 Center     Atomic      Atomic             Coordinates (Angstroms)
 Number     Number       Type             X           Y           Z
 ---------------------------------------------------------------------
      1          6           0        0.355241    0.088384   -0.000063
      2          6           0        1.070971    1.267929    0.000053
      3          6           0        1.265526   -0.880252   -0.000082
      4          1           0        2.106810   -1.577378    0.000093
      5          6           0       -1.278235   -0.089891    0.620618
      6          1           0       -1.459714   -0.100483    1.693036
      7          6           0       -1.278062   -0.089768   -0.620555
      8          1           0       -1.459746   -0.100551   -1.692940
 ---------------------------------------------------------------------

 SCF Done:  E(UB3LYP) =  -191.118641478     A.U. after   18 cycles

 The electronic state is 4-A.
 Alpha  occ. eigenvalues --  -10.79795 -10.76565 -10.75811 -10.71870 -10.71700
 Alpha  occ. eigenvalues --   -1.38660  -1.29108  -1.15898  -1.04425  -1.01835
 Alpha  occ. eigenvalues --   -0.97484  -0.94192  -0.88328  -0.86573  -0.78700
 Alpha  occ. eigenvalues --   -0.75179  -0.70783
 Alpha virt. eigenvalues --   -0.58784  -0.55797  -0.45347  -0.40842  -0.34881
 Alpha virt. eigenvalues --   -0.32222  -0.31421  -0.30176  -0.27215  -0.25603
 Alpha virt. eigenvalues --   -0.25130  -0.22718  -0.22183  -0.20785  -0.19387

  Beta  occ. eigenvalues --  -10.76002 -10.75879 -10.74935 -10.71687 -10.71520
  Beta  occ. eigenvalues --   -1.36855  -1.26679  -1.09260  -1.04263  -0.99446
  Beta  occ. eigenvalues --   -0.97331  -0.92676  -0.83072  -0.78771
  Beta virt. eigenvalues --   -0.64835  -0.62095  -0.54656  -0.50765  -0.49148
  Beta virt. eigenvalues --   -0.44614  -0.39360  -0.33703  -0.30918  -0.30802
  Beta virt. eigenvalues --   -0.29593  -0.27048  -0.25326  -0.24362  -0.21672

 Mulliken charges and spin densities:
               1          2
     1  C    0.444945  -0.287613
     2  C    0.025113   2.131528
     3  C   -0.054069   0.967520
     4  H    0.441203  -0.023558
     5  C    0.150704   0.117232
     6  H    0.420641  -0.011158
     7  C    0.150839   0.117219
     8  H    0.420624  -0.011171
 Sum of Mulliken charges =   2.00000   3.00000

 Dipole moment (field-independent basis, Debye):
    X=              0.9787    Y=             -0.8002    Z=              0.0006  Tot=              1.2642
 Quadrupole moment (field-independent basis, Debye-Ang):
   XX=             -3.0113   YY=            -15.0785   ZZ=            -15.8168
   XY=             -2.2235   XZ=             -0.0006   YZ=              0.0002

  Exact polarizability:  54.365  -0.465  47.168  -0.002   0.000  34.501
 Approx polarizability:  88.198   0.202 108.754  -0.006   0.001  57.798

 ******    1 imaginary frequencies (negative Signs) ******

                      1                      2                      3
                      A                      A                      A
 Frequencies --   -348.0366               182.5085               264.2787
 Red. masses --      9.9959                 2.3807                 3.6133
 Frc consts  --      0.7134                 0.0467                 0.1487
 IR Inten    --     37.9958                 2.2402                 2.9333

                      4                      5                      6
                      A                      A                      A
 Frequencies --    296.7357               334.1030               434.7537
 Red. masses --      4.4367                 8.8648                 7.1714
 Frc consts  --      0.2302                 0.5830                 0.7986
 IR Inten    --      8.8054                 4.3857                 3.4549

                      7                      8                      9
                      A                      A                      A
 Frequencies --    448.2896               664.4063               734.0644
 Red. masses --      1.3449                 1.5718                 1.4180
 Frc consts  --      0.1592                 0.4088                 0.4502
 IR Inten    --     47.1858                 0.0455                21.3645

                     10                     11                     12
                      A                      A                      A
 Frequencies --    769.0121               905.6898               905.7939
 Red. masses --      1.1085                 1.0977                 1.2121
 Frc consts  --      0.3862                 0.5305                 0.5860
 IR Inten    --     95.1875                15.6929                 1.6995

                     13                     14                     15
                      A                      A                      A
 Frequencies --   1116.6644              1361.1669              1868.4457
 Red. masses --      9.0967                 6.5921                 3.8884
 Frc consts  --      6.6831                 7.1961                 7.9980
 IR Inten    --      2.2907                19.6247                50.5163

                     16                     17                     18
                      A                      A                      A
 Frequencies --   3140.2206              3152.1717              3252.6483
 Red. masses --      1.1132                 1.0853                 1.2239
 Frc consts  --      6.4674                 6.3534                 7.6287
 IR Inten    --    435.3253               505.2268                63.0361

 - Thermochemistry -
 -------------------
 Temperature   298.150 Kelvin.  Pressure   1.00000 Atm.
 Atom     1 has atomic number  6 and mass  12.00000

 Molecular mass:    63.02348 amu.
 Principal axes and moments of inertia in atomic units:
                           1         2         3
     Eigenvalues --   164.99236 348.73824 406.45341
           X            0.99831  -0.05808   0.00005
           Y            0.05808   0.99831  -0.00004
           Z           -0.00004   0.00005   1.00000
 This molecule is an asymmetric top.
 Rotational symmetry number  1.
 Rotational temperatures (Kelvin)      0.52496     0.24836     0.21310
 Rotational constants (GHZ):          10.93833     5.17506     4.44022
    1 imaginary frequencies ignored.
 Zero-point vibrational energy     118615.4 (Joules/Mol)
                                   28.34977 (Kcal/Mol)
 Warning -- explicit consideration of   6 degrees of freedom as
           vibrations may cause significant error
 Vibrational temperatures:    262.59   380.24   426.94   480.70   625.51
          (Kelvin)            644.99   955.93  1056.15  1106.44  1303.08
                             1303.23  1606.63  1958.41  2688.27  4518.07
                             4535.27  4679.83

 Zero-point correction=                           0.045178 (Hartree/Particle)
 Thermal correction to Energy=                    0.050866
 Thermal correction to Enthalpy=                  0.051810
 Thermal correction to Gibbs Free Energy=         0.016070
 Sum of electronic and zero-point Energies=           -191.073463
 Sum of electronic and thermal Energies=              -191.067775
 Sum of electronic and thermal Enthalpies=            -191.066831
 Sum of electronic and thermal Free Energies=         -191.102572

                     E (Thermal)             CV                S
                      KCal/Mol        Cal/Mol-Kelvin    Cal/Mol-Kelvin
 Total                   31.919             19.369             75.223
 Electronic               0.000              0.000              2.755
 Translational            0.889              2.981             38.342
 Rotational               0.889              2.981             24.662
 Vibrational             30.142             13.407              9.464
 Vibration     1          0.630              1.864              2.303
 Vibration     2          0.671              1.738              1.633
 Vibration     3          0.690              1.680              1.435
 Vibration     4          0.716              1.607              1.240
 Vibration     5          0.795              1.394              0.843
 Vibration     6          0.807              1.365              0.801

 Optimization completed.
    -- Stationary point found.
 Normal termination of Gaussian 09 at Mon Jun 20 11:12:43 2016.
