 Gaussian 09, Revision E.01,
 Gaussian 09:  EM64L-G09RevE.01 30-Nov-2015

 ---------------------------------------------
 #p b3lyp/6-311++G(3df,2p) freq symmetry=Loose
 ---------------------------------------------

 ---------
 b3lyp opt
 ---------
 Symbolic Z-matrix:
 Charge =  3 Multiplicity = 2

                         Standard orientation:
 ---------------------------------------------------------------------
 Center     Atomic      Atomic             Coordinates (Angstroms)
 Number     Number       Type             X           Y           Z
 ---------------------------------------------------------------------
      1          6           0        0.000000    0.000000    0.000213
      2          1           0       -1.415406    0.572748   -0.000515
      3          1           0       -0.000000    1.526897   -0.000122
      4          1           0        1.415406   -0.572748   -0.000515
      5          1           0       -0.000000   -1.526897   -0.000122
 ---------------------------------------------------------------------

 SCF Done:  E(UB3LYP) =  -38.1635538971     A.U. after    9 cycles

 The electronic state is 2-B.
 Alpha  occ. eigenvalues --  -11.34989  -1.61571  -1.38137  -1.31655
 Alpha virt. eigenvalues --   -1.08635  -0.98340  -0.95609  -0.81464  -0.80391
 Alpha virt. eigenvalues --   -0.57567  -0.53011  -0.51544  -0.49915  -0.47739
 Alpha virt. eigenvalues --   -0.46339  -0.40902  -0.38517  -0.36891  -0.32369

  Beta  occ. eigenvalues --  -11.33751  -1.56502  -1.36094
  Beta virt. eigenvalues --   -1.15914  -1.07013  -0.94639  -0.92857  -0.78816
  Beta virt. eigenvalues --   -0.75374  -0.56491  -0.52673  -0.51191  -0.48705
  Beta virt. eigenvalues --   -0.45994  -0.45438  -0.40421  -0.38116  -0.36447

 Mulliken charges and spin densities:
               1          2
     1  C    0.482144   0.730488
     2  H    0.629465   0.067376
     3  H    0.629463   0.067380
     4  H    0.629465   0.067376
     5  H    0.629463   0.067380
 Sum of Mulliken charges =   3.00000   1.00000

 Dipole moment (field-independent basis, Debye):
    X=             -0.0000    Y=              0.0000    Z=             -0.0024  Tot=              0.0024
 Quadrupole moment (field-independent basis, Debye-Ang):
   XX=              7.9513   YY=             11.8494   ZZ=             -4.4583
   XY=             -4.8165   XZ=              0.0000   YZ=             -0.0000

  Exact polarizability:  16.591  -2.468  18.590   0.000  -0.000   6.871
 Approx polarizability:  22.501  -2.837  24.797   0.000  -0.000   9.112

 ******    3 imaginary frequencies (negative Signs) ******

                      1                      2                      3
                      A                      B                      B
 Frequencies --  -1437.5510             -1133.7407              -425.8333
 Red. masses --      1.0078                 1.1134                 1.0128
 Frc consts  --      1.2271                 0.8432                 0.1082
 IR Inten    --      0.0002              2628.3635               946.2115

                      4                      5                      6
                      A                      B                      B
 Frequencies --    545.9057               552.8716               596.3404
 Red. masses --      1.0078                 1.1658                 1.3012
 Frc consts  --      0.1770                 0.2099                 0.2726
 IR Inten    --      0.0000               327.7809              2266.0772

                      7                      8                      9
                      A                      A                      A
 Frequencies --    785.0942               988.8507              1188.5189
 Red. masses --      1.3095                 1.0078                 1.0078
 Frc consts  --      0.4755                 0.5806                 0.8388
 IR Inten    --    604.6627                 0.0001                 0.0001

 - Thermochemistry -
 -------------------
 Temperature   298.150 Kelvin.  Pressure   1.00000 Atm.
 Atom     1 has atomic number  6 and mass  12.00000

 Molecular mass:    16.03130 amu.
 Principal axes and moments of inertia in atomic units:
                           1         2         3
     Eigenvalues --    10.48670  23.07643  33.56313
           X           -0.55897   0.82919   0.00000
           Y            0.82919   0.55897   0.00000
           Z            0.00000   0.00000   1.00000
 This molecule is an asymmetric top.
 Rotational symmetry number  2.
 Rotational temperatures (Kelvin)      8.25940     3.75335     2.58062
 Rotational constants (GHZ):         172.09809    78.20712    53.77155
    3 imaginary frequencies ignored.
 Zero-point vibrational energy      27858.5 (Joules/Mol)
                                    6.65835 (Kcal/Mol)
 Warning -- explicit consideration of   3 degrees of freedom as
           vibrations may cause significant error
 Vibrational temperatures:    785.44   795.46   858.00  1129.57  1422.73
          (Kelvin)           1710.01

 Zero-point correction=                           0.010611 (Hartree/Particle)
 Thermal correction to Energy=                    0.014124
 Thermal correction to Enthalpy=                  0.015068
 Thermal correction to Gibbs Free Energy=        -0.010074
 Sum of electronic and zero-point Energies=            -38.152943
 Sum of electronic and thermal Energies=               -38.149430
 Sum of electronic and thermal Enthalpies=             -38.148485
 Sum of electronic and thermal Free Energies=          -38.173628

                     E (Thermal)             CV                S
                      KCal/Mol        Cal/Mol-Kelvin    Cal/Mol-Kelvin
 Total                    8.863             10.561             52.917
 Electronic               0.000              0.000              1.377
 Translational            0.889              2.981             34.261
 Rotational               0.889              2.981             15.370
 Vibrational              7.086              4.599              1.908
 Vibration     1          0.901              1.149              0.553
 Vibration     2          0.908              1.133              0.538
 Vibration     3          0.954              1.040              0.456

 Optimization completed.
    -- Stationary point found.
 Normal termination of Gaussian 09 at Mon Jun 20 11:51:58 2016.
