 Gaussian 09, Revision E.01,
 Gaussian 09:  EM64L-G09RevE.01 30-Nov-2015

 ---------------------------------------------
 #p b3lyp/6-311++G(3df,2p) freq symmetry=Loose
 ---------------------------------------------

 ---------
 b3lyp opt
 ---------
 Symbolic Z-matrix:
 Charge =  3 Multiplicity = 4

                         Standard orientation:
 ---------------------------------------------------------------------
 Center     Atomic      Atomic             Coordinates (Angstroms)
 Number     Number       Type             X           Y           Z
 ---------------------------------------------------------------------
      1          6           0        0.000000    0.739359    0.000000
      2          1           0        1.182251    1.354860    0.000000
      3          1           0       -1.183687    1.352933    0.000000
      4          6           0       -0.000000   -0.739359    0.000000
      5          1           0       -1.182251   -1.354860    0.000000
      6          1           0        1.183687   -1.352933    0.000000
 ---------------------------------------------------------------------

 SCF Done:  E(UB3LYP) =  -76.3653145210     A.U. after    9 cycles

 The electronic state is 4-AU.
 Alpha  occ. eigenvalues --  -11.23560 -11.23531  -1.69912  -1.46868  -1.34945
 Alpha  occ. eigenvalues --   -1.32783  -1.24783  -1.20520
 Alpha virt. eigenvalues --   -0.95476  -0.77737  -0.76025  -0.75337  -0.63980
 Alpha virt. eigenvalues --   -0.63189  -0.53488  -0.49607  -0.49155  -0.48818
 Alpha virt. eigenvalues --   -0.48610  -0.43810  -0.40832  -0.34794  -0.33527

  Beta  occ. eigenvalues --  -11.21609 -11.21594  -1.61230  -1.36357  -1.27247
  Beta virt. eigenvalues --   -1.16917  -1.11146  -1.04652  -0.86017  -0.72005
  Beta virt. eigenvalues --   -0.70179  -0.69634  -0.58149  -0.57659  -0.51573
  Beta virt. eigenvalues --   -0.48183  -0.47558  -0.47091  -0.46920  -0.41927

 Mulliken charges and spin densities:
               1          2
     1  C    0.507464   1.120892
     2  H    0.496333   0.189546
     3  H    0.496202   0.189561
     4  C    0.507464   1.120892
     5  H    0.496333   0.189546
     6  H    0.496202   0.189561
 Sum of Mulliken charges =   3.00000   3.00000

 Dipole moment (field-independent basis, Debye):
    X=             -0.0000    Y=              0.0000    Z=              0.0000  Tot=              0.0000
 Quadrupole moment (field-independent basis, Debye-Ang):
   XX=              5.6965   YY=             13.5100   ZZ=             -9.2147
   XY=              0.0038   XZ=              0.0000   YZ=              0.0000

  Exact polarizability:  39.581   0.025  41.114  -0.000   0.000  10.675
 Approx polarizability:  41.920   0.020 100.365  -0.000  -0.000  14.563

 ******    2 imaginary frequencies (negative Signs) ******

                      1                      2                      3
                     BU                     BU                     BU
 Frequencies --  -2161.7592              -963.8332               493.8965
 Red. masses --      1.1389                 1.1125                 1.0472
 Frc consts  --      3.1358                 0.6089                 0.1505
 IR Inten    --  14087.6793              5668.0641               356.9684

                      4                      5                      6
                     BG                     BU                     AU
 Frequencies --    586.0281               600.2200               622.9016
 Red. masses --      1.5043                 1.0249                 1.0078
 Frc consts  --      0.3044                 0.2175                 0.2304
 IR Inten    --      0.0000                 5.5568                 0.0213

                      7                      8                      9
                     AG                     AU                     AG
 Frequencies --    657.3741               704.0235               945.8052
 Red. masses --      1.3097                 1.1607                 1.4707
 Frc consts  --      0.3335                 0.3390                 0.7751
 IR Inten    --      0.0000               488.4405                 0.0000

                     10                     11                     12
                     AG                     AG                     AG
 Frequencies --   1028.4138              1656.2358              1665.2513
 Red. masses --      2.4430                 1.2969                 1.0252
 Frc consts  --      1.5223                 2.0960                 1.6750
 IR Inten    --      0.0000                 0.0000                 0.0000

 - Thermochemistry -
 -------------------
 Temperature   298.150 Kelvin.  Pressure   1.00000 Atm.
 Atom     1 has atomic number  6 and mass  12.00000

 Molecular mass:    28.03130 amu.
 Principal axes and moments of inertia in atomic units:
                           1         2         3
     Eigenvalues --    20.14604  73.23955  93.38559
           X            0.00005   1.00000   0.00000
           Y            1.00000  -0.00005   0.00000
           Z            0.00000  -0.00000   1.00000
 This molecule is an asymmetric top.
 Rotational symmetry number  2.
 Rotational temperatures (Kelvin)      4.29930     1.18261     0.92749
 Rotational constants (GHZ):          89.58291    24.64162    19.32569
    2 imaginary frequencies ignored.
 Zero-point vibrational energy      53593.6 (Joules/Mol)
                                   12.80918 (Kcal/Mol)
 Warning -- explicit consideration of   3 degrees of freedom as
           vibrations may cause significant error
 Vibrational temperatures:    710.61   843.16   863.58   896.22   945.81
          (Kelvin)           1012.93  1360.80  1479.66  2382.95  2395.92

 Zero-point correction=                           0.020413 (Hartree/Particle)
 Thermal correction to Energy=                    0.024275
 Thermal correction to Enthalpy=                  0.025219
 Thermal correction to Gibbs Free Energy=        -0.003169
 Sum of electronic and zero-point Energies=            -76.344902
 Sum of electronic and thermal Energies=               -76.341040
 Sum of electronic and thermal Enthalpies=             -76.340096
 Sum of electronic and thermal Free Energies=          -76.368484

                     E (Thermal)             CV                S
                      KCal/Mol        Cal/Mol-Kelvin    Cal/Mol-Kelvin
 Total                   15.233             12.908             59.748
 Electronic               0.000              0.000              2.755
 Translational            0.889              2.981             35.927
 Rotational               0.889              2.981             18.183
 Vibrational             13.455              6.947              2.883
 Vibration     1          0.850              1.264              0.674
 Vibration     2          0.943              1.062              0.474
 Vibration     3          0.958              1.031              0.449

 Optimization completed.
    -- Stationary point found.
 Normal termination of Gaussian 09 at Mon Jun 20 11:13:23 2016.
