 Gaussian 09, Revision E.01,
 Gaussian 09:  EM64L-G09RevE.01 30-Nov-2015

 ---------------------------------------------
 #p b3lyp/6-311++G(3df,2p) freq symmetry=Loose
 ---------------------------------------------

 ---------
 b3lyp opt
 ---------
 Symbolic Z-matrix:
 Charge =  3 Multiplicity = 2

                         Standard orientation:
 ---------------------------------------------------------------------
 Center     Atomic      Atomic             Coordinates (Angstroms)
 Number     Number       Type             X           Y           Z
 ---------------------------------------------------------------------
      1          6           0       -0.000000   -0.000000   -1.160685
      2          1           0       -0.000000   -0.000000   -2.433586
      3          1           0       -1.126521    0.000000   -1.606494
      4          1           0        1.126521   -0.000000   -1.606494
      5          6           0        0.000000    0.000000    0.171541
      6          6           0        0.000000    0.000000    1.491296
      7          1           0        0.000000    0.000000    2.633668
 ---------------------------------------------------------------------

 SCF Done:  E(UB3LYP) =  -114.748096323     A.U. after   15 cycles

 The electronic state is 2-B1.
 Alpha  occ. eigenvalues --  -11.14351 -11.10600 -11.09954  -1.65666  -1.56569
 Alpha  occ. eigenvalues --   -1.40056  -1.29428  -1.29018  -1.15155  -1.12820
 Alpha virt. eigenvalues --   -0.95118  -0.82740  -0.80740  -0.73799  -0.67423
 Alpha virt. eigenvalues --   -0.60775  -0.56045  -0.53578  -0.46322  -0.45099
 Alpha virt. eigenvalues --   -0.43908  -0.43401  -0.43030  -0.40150  -0.35776

  Beta  occ. eigenvalues --  -11.13279 -11.10801 -11.09200  -1.63718  -1.54080
  Beta  occ. eigenvalues --   -1.39433  -1.28307  -1.27630  -1.14415
  Beta virt. eigenvalues --   -0.98610  -0.94640  -0.80263  -0.75995  -0.72724
  Beta virt. eigenvalues --   -0.66951  -0.59062  -0.55263  -0.53159  -0.45852
  Beta virt. eigenvalues --   -0.45262  -0.43039  -0.42862  -0.42725  -0.40071

 Mulliken charges and spin densities:
               1          2
     1  C    0.092648  -0.044431
     2  H    0.510166  -0.003905
     3  H    0.388448   0.034299
     4  H    0.388448   0.034299
     5  C    0.489060   0.459114
     6  C    0.595412   0.537728
     7  H    0.535818  -0.017104
 Sum of Mulliken charges =   3.00000   1.00000

 Dipole moment (field-independent basis, Debye):
    X=              0.0000    Y=             -0.0000    Z=             -3.3340  Tot=              3.3340
 Quadrupole moment (field-independent basis, Debye-Ang):
   XX=             -7.6353   YY=            -13.6772   ZZ=             34.9798
   XY=             -0.0000   XZ=             -0.0000   YZ=              0.0000

  Exact polarizability:  18.305   0.000  13.731   0.000  -0.000  50.307
 Approx polarizability:  26.702  -0.000  18.581  -0.000   0.000 100.952

 ******    1 imaginary frequencies (negative Signs) ******

                      1                      2                      3
                     B1                     B2                     B1
 Frequencies --   -528.1854               297.0226               320.3468
 Red. masses --      1.3020                 2.6615                 2.2453
 Frc consts  --      0.2140                 0.1383                 0.1358
 IR Inten    --    338.2278               125.7171                68.3904

                      4                      5                      6
                     B2                     B1                     B2
 Frequencies --    480.0984               658.4273               826.6981
 Red. masses --      1.1167                 1.2914                 1.4093
 Frc consts  --      0.1516                 0.3299                 0.5675
 IR Inten    --     13.0119                32.1118               114.0423

                      7                      8                      9
                     B2                     B1                     A1
 Frequencies --    847.8355               941.2130               985.3366
 Red. masses --      1.4071                 1.2922                 1.9328
 Frc consts  --      0.5959                 0.6745                 1.1056
 IR Inten    --     45.2259                35.3784                28.0842

                     10                     11                     12
                     A1                     A1                     A1
 Frequencies --   1245.7414              1522.9064              1790.3435
 Red. masses --      1.4210                 1.3349                 2.9017
 Frc consts  --      1.2993                 1.8241                 5.4800
 IR Inten    --      3.5883              1228.9290               232.1383

                     13                     14                     15
                     A1                     B1                     A1
 Frequencies --   2162.6938              2164.1118              2706.1363
 Red. masses --      1.1404                 1.1152                 1.1732
 Frc consts  --      3.1427                 3.0773                 5.0622
 IR Inten    --    823.4179               807.9449               578.7773

 - Thermochemistry -
 -------------------
 Temperature   298.150 Kelvin.  Pressure   1.00000 Atm.
 Atom     1 has atomic number  6 and mass  12.00000

 Molecular mass:    40.03130 amu.
 Principal axes and moments of inertia in atomic units:
                           1         2         3
     Eigenvalues --     9.13464 218.35251 227.48715
           X            0.00000   1.00000  -0.00000
           Y            0.00000   0.00000   1.00000
           Z            1.00000   0.00000  -0.00000
 This molecule is an asymmetric top.
 Rotational symmetry number  2.
 Rotational temperatures (Kelvin)      9.48191     0.39667     0.38074
 Rotational constants (GHZ):         197.57113     8.26526     7.93338
    1 imaginary frequencies ignored.
 Zero-point vibrational energy     101377.0 (Joules/Mol)
                                   24.22969 (Kcal/Mol)
 Warning -- explicit consideration of   3 degrees of freedom as
           vibrations may cause significant error
 Vibrational temperatures:    427.35   460.91   690.75   947.33  1189.43
          (Kelvin)           1219.84  1354.19  1417.68  1792.34  2191.12
                             2575.90  3111.63  3113.67  3893.52

 Zero-point correction=                           0.038612 (Hartree/Particle)
 Thermal correction to Energy=                    0.042876
 Thermal correction to Enthalpy=                  0.043821
 Thermal correction to Gibbs Free Energy=         0.014281
 Sum of electronic and zero-point Energies=           -114.709484
 Sum of electronic and thermal Energies=              -114.705220
 Sum of electronic and thermal Enthalpies=            -114.704276
 Sum of electronic and thermal Free Energies=         -114.733815

                     E (Thermal)             CV                S
                      KCal/Mol        Cal/Mol-Kelvin    Cal/Mol-Kelvin
 Total                   26.905             13.789             62.171
 Electronic               0.000              0.000              1.377
 Translational            0.889              2.981             36.989
 Rotational               0.889              2.981             19.367
 Vibrational             25.128              7.827              4.437
 Vibration     1          0.691              1.679              1.434
 Vibration     2          0.706              1.635              1.308
 Vibration     3          0.836              1.294              0.710

 Optimization completed.
    -- Stationary point found.
 Normal termination of Gaussian 09 at Mon Jun 20 11:14:33 2016.
