 Gaussian 09, Revision E.01,
 Gaussian 09:  EM64L-G09RevE.01 30-Nov-2015

 ---------------------------------------------
 #p b3lyp/6-311++G(3df,2p) freq symmetry=Loose
 ---------------------------------------------

 ---------
 b3lyp opt
 ---------
 Symbolic Z-matrix:
 Charge =  0 Multiplicity = 3

                         Standard orientation:
 ---------------------------------------------------------------------
 Center     Atomic      Atomic             Coordinates (Angstroms)
 Number     Number       Type             X           Y           Z
 ---------------------------------------------------------------------
      1          6           0       -1.176686    0.099420   -0.000050
      2          1           0       -1.256351    1.190048   -0.000157
      3          1           0       -1.712530   -0.311850   -0.863634
      4          1           0       -1.712371   -0.311634    0.863743
      5          6           0        0.193463   -0.419932   -0.000050
      6          6           0        1.374949    0.269380    0.000090
      7          1           0        2.330900   -0.259773    0.000098
 ---------------------------------------------------------------------

 SCF Done:  E(UB3LYP) =  -116.548765164     A.U. after   17 cycles

 The electronic state is 3-A.
 Alpha  occ. eigenvalues --  -10.22839 -10.21534 -10.19225  -0.81706  -0.71662
 Alpha  occ. eigenvalues --   -0.53913  -0.46134  -0.44699  -0.41495  -0.32627
 Alpha  occ. eigenvalues --   -0.30888  -0.18368
 Alpha virt. eigenvalues --   -0.03678  -0.00652   0.01649   0.02943   0.03037
 Alpha virt. eigenvalues --    0.05840   0.07332   0.07797   0.08391   0.08679
 Alpha virt. eigenvalues --    0.11421   0.12322   0.12852   0.13805   0.13844

  Beta  occ. eigenvalues --  -10.21452 -10.20173 -10.19138  -0.78706  -0.68895
  Beta  occ. eigenvalues --   -0.51452  -0.44836  -0.43223  -0.40105  -0.26353
  Beta virt. eigenvalues --   -0.18042  -0.06868  -0.00245   0.01574   0.01778
  Beta virt. eigenvalues --    0.03083   0.03624   0.06221   0.07602   0.08374
  Beta virt. eigenvalues --    0.08658   0.09301   0.11579   0.12507   0.13226

 Mulliken charges and spin densities:
               1          2
     1  C   -0.258513  -0.072261
     2  H    0.130250   0.059772
     3  H    0.169365   0.030044
     4  H    0.169371   0.030062
     5  C   -0.042654   1.008340
     6  C   -0.352253   0.928173
     7  H    0.184434   0.015870
 Sum of Mulliken charges =  -0.00000   2.00000

 Dipole moment (field-independent basis, Debye):
    X=             -1.2506    Y=             -0.3070    Z=              0.0000  Tot=              1.2877
 Quadrupole moment (field-independent basis, Debye-Ang):
   XX=            -17.0558   YY=            -23.0315   ZZ=            -18.9154
   XY=             -1.3994   XZ=             -0.0002   YZ=             -0.0003

  Exact polarizability:  58.175   5.942  44.305   0.002   0.001  30.389
 Approx polarizability:  78.380  14.066  60.947   0.002   0.002  42.665

 ******    1 imaginary frequencies (negative Signs) ******

                      1                      2                      3
                      A                      A                      A
 Frequencies --    -66.5239               391.8822               633.9835
 Red. masses --      1.4972                 2.6900                 1.1015
 Frc consts  --      0.0039                 0.2434                 0.2609
 IR Inten    --      1.8852                47.0760                 4.5357

                      4                      5                      6
                      A                      A                      A
 Frequencies --    893.9397               920.4745               936.9681
 Red. masses --      2.0223                 1.4483                 1.4005
 Frc consts  --      0.9522                 0.7230                 0.7244
 IR Inten    --     92.5648                44.6779                 2.5810

                      7                      8                      9
                      A                      A                      A
 Frequencies --   1113.9302              1349.3520              1437.1438
 Red. masses --      1.9017                 1.1674                 1.1659
 Frc consts  --      1.3903                 1.2523                 1.4188
 IR Inten    --      1.8721                28.1872                31.5174

                     10                     11                     12
                      A                      A                      A
 Frequencies --   1455.6490              1517.9826              2975.9060
 Red. masses --      1.0567                 5.3813                 1.0324
 Frc consts  --      1.3192                 7.3059                 5.3869
 IR Inten    --      8.3155                10.1453                 6.4682

                     13                     14                     15
                      A                      A                      A
 Frequencies --   3024.3749              3050.6269              3058.0705
 Red. masses --      1.0925                 1.1044                 1.0883
 Frc consts  --      5.8879                 6.0558                 5.9965
 IR Inten    --      0.3568                36.1103                16.5019

 - Thermochemistry -
 -------------------
 Temperature   298.150 Kelvin.  Pressure   1.00000 Atm.
 Atom     1 has atomic number  6 and mass  12.00000

 Molecular mass:    40.03130 amu.
 Principal axes and moments of inertia in atomic units:
                           1         2         3
     Eigenvalues --    22.40934 193.25798 204.92848
           X            0.99976  -0.02180  -0.00005
           Y            0.02180   0.99976  -0.00011
           Z            0.00005   0.00011   1.00000
 This molecule is an asymmetric top.
 Rotational symmetry number  1.
 Rotational temperatures (Kelvin)      3.86508     0.44818     0.42265
 Rotational constants (GHZ):          80.53524     9.33851     8.80669
    1 imaginary frequencies ignored.
 Zero-point vibrational energy     136136.7 (Joules/Mol)
                                   32.53746 (Kcal/Mol)
 Warning -- explicit consideration of   1 degrees of freedom as
           vibrations may cause significant error
 Vibrational temperatures:    563.83   912.16  1286.18  1324.36  1348.09
          (Kelvin)           1602.70  1941.41  2067.73  2094.35  2184.04
                             4281.66  4351.40  4389.17  4399.88

 Zero-point correction=                           0.051852 (Hartree/Particle)
 Thermal correction to Energy=                    0.055346
 Thermal correction to Enthalpy=                  0.056290
 Thermal correction to Gibbs Free Energy=         0.026601
 Sum of electronic and zero-point Energies=           -116.496913
 Sum of electronic and thermal Energies=              -116.493420
 Sum of electronic and thermal Enthalpies=            -116.492475
 Sum of electronic and thermal Free Energies=         -116.522164

                     E (Thermal)             CV                S
                      KCal/Mol        Cal/Mol-Kelvin    Cal/Mol-Kelvin
 Total                   34.730             10.488             62.485
 Electronic               0.000              0.000              2.183
 Translational            0.889              2.981             36.989
 Rotational               0.889              2.981             21.411
 Vibrational             32.952              4.526              1.902
 Vibration     1          0.759              1.488              0.993

 Optimization completed.
    -- Stationary point found.
 Normal termination of Gaussian 09 at Mon Jun 20 11:15:23 2016.
