 Gaussian 09, Revision E.01,
 Gaussian 09:  EM64L-G09RevE.01 30-Nov-2015

 ---------------------------------------------
 #p b3lyp/6-311++G(3df,2p) freq symmetry=Loose
 ---------------------------------------------

 ---------
 b3lyp opt
 ---------
 Symbolic Z-matrix:
 Charge =  1 Multiplicity = 2

                         Standard orientation:
 ---------------------------------------------------------------------
 Center     Atomic      Atomic             Coordinates (Angstroms)
 Number     Number       Type             X           Y           Z
 ---------------------------------------------------------------------
      1          6           0        0.000000    0.794236   -0.550484
      2          1           0       -0.881108    1.287490   -0.999289
      3          1           0        0.881108    1.287490   -0.999289
      4          6           0       -0.000000   -0.794236   -0.550484
      5          1           0       -0.881108   -1.287490   -0.999289
      6          1           0        0.881108   -1.287490   -0.999289
      7          6           0        0.000000    0.907682    0.883581
      8          6           0       -0.000000   -0.907682    0.883581
 ---------------------------------------------------------------------

 SCF Done:  E(UB3LYP) =  -154.226157799     A.U. after   12 cycles

 The electronic state is 2-A1.
 Alpha  occ. eigenvalues --  -10.54168 -10.54163 -10.45395 -10.45380  -1.14094
 Alpha  occ. eigenvalues --   -0.97081  -0.87583  -0.74160  -0.73675  -0.70755
 Alpha  occ. eigenvalues --   -0.64905  -0.63207  -0.52675  -0.50030
 Alpha virt. eigenvalues --   -0.42094  -0.31858  -0.23113  -0.17712  -0.14892
 Alpha virt. eigenvalues --   -0.13426  -0.13384  -0.09644  -0.09138  -0.07034
 Alpha virt. eigenvalues --   -0.06716  -0.05462  -0.04593  -0.04311  -0.03512

  Beta  occ. eigenvalues --  -10.53450 -10.53449 -10.45274 -10.45260  -1.12841
  Beta  occ. eigenvalues --   -0.96190  -0.86183  -0.73440  -0.72575  -0.68024
  Beta  occ. eigenvalues --   -0.64681  -0.62961  -0.49329
  Beta virt. eigenvalues --   -0.41384  -0.38345  -0.30902  -0.21088  -0.17636
  Beta virt. eigenvalues --   -0.14789  -0.13114  -0.12789  -0.09476  -0.09096
  Beta virt. eigenvalues --   -0.06884  -0.06369  -0.05314  -0.04366  -0.03446

 Mulliken charges and spin densities:
               1          2
     1  C    0.038452   0.016313
     2  H    0.222331   0.012636
     3  H    0.222331   0.012636
     4  C    0.038452   0.016313
     5  H    0.222331   0.012636
     6  H    0.222331   0.012636
     7  C    0.016886   0.458415
     8  C    0.016886   0.458415
 Sum of Mulliken charges =   1.00000   1.00000

 Dipole moment (field-independent basis, Debye):
    X=             -0.0000    Y=             -0.0000    Z=             -2.8586  Tot=              2.8586
 Quadrupole moment (field-independent basis, Debye-Ang):
   XX=            -18.2444   YY=            -16.9631   ZZ=            -21.2631
   XY=              0.0000   XZ=              0.0000   YZ=              0.0000

  Exact polarizability:  20.240  -0.000  62.455  -0.000  -0.000  40.823
 Approx polarizability:  51.280  -0.000  90.835  -0.000   0.000  65.986

 ******    3 imaginary frequencies (negative Signs) ******

                      1                      2                      3
                     A2                     B2                     A2
 Frequencies --   -433.0916              -203.7508              -116.3984
 Red. masses --      4.2673                 6.5866                 1.1799
 Frc consts  --      0.4716                 0.1611                 0.0094
 IR Inten    --      0.0000               417.4605                 0.0000

                      4                      5                      6
                     B1                     A1                     A1
 Frequencies --    564.0941               567.2095               861.1522
 Red. masses --      1.2500                 9.9385                 4.2581
 Frc consts  --      0.2344                 1.8839                 1.8605
 IR Inten    --     25.3886                 0.1481                 3.3667

                      7                      8                      9
                     B2                     A1                     B1
 Frequencies --    909.8059              1023.4177              1102.2449
 Red. masses --      2.0779                 1.4177                 1.0201
 Frc consts  --      1.0134                 0.8748                 0.7302
 IR Inten    --     29.6305                 0.2822               137.7419

                     10                     11                     12
                     A2                     A1                     B2
 Frequencies --   1113.1331              1231.5528              1233.9753
 Red. masses --      1.1586                 2.2954                 1.3187
 Frc consts  --      0.8458                 2.0512                 1.1830
 IR Inten    --      0.0000                74.0412                75.0696

                     13                     14                     15
                     A1                     B2                     B2
 Frequencies --   1292.0828              1303.4570              2925.8343
 Red. masses --      1.3554                 1.6939                 1.0564
 Frc consts  --      1.3332                 1.6956                 5.3282
 IR Inten    --    215.4849                 6.1641                74.4411

                     16                     17                     18
                     A1                     A2                     B1
 Frequencies --   2941.4731              2952.3898              2978.6297
 Red. masses --      1.0616                 1.0922                 1.0983
 Frc consts  --      5.4118                 5.6089                 5.7412
 IR Inten    --    145.2715                 0.0000                26.5235

 - Thermochemistry -
 -------------------
 Temperature   298.150 Kelvin.  Pressure   1.00000 Atm.
 Atom     1 has atomic number  6 and mass  12.00000

 Molecular mass:    52.03130 amu.
 Principal axes and moments of inertia in atomic units:
                           1         2         3
     Eigenvalues --   117.35570 159.71534 254.71827
           X            0.00000   0.00000   1.00000
           Y            1.00000   0.00000  -0.00000
           Z            0.00000   1.00000   0.00000
 This molecule is an asymmetric top.
 Rotational symmetry number  2.
 Rotational temperatures (Kelvin)      0.73805     0.54230     0.34004
 Rotational constants (GHZ):          15.37839    11.29974     7.08524
    3 imaginary frequencies ignored.
 Zero-point vibrational energy     137573.3 (Joules/Mol)
                                   32.88080 (Kcal/Mol)
 Warning -- explicit consideration of   2 degrees of freedom as
           vibrations may cause significant error
 Vibrational temperatures:    811.60   816.09  1239.00  1309.01  1472.47
          (Kelvin)           1585.88  1601.55  1771.93  1775.41  1859.02
                             1875.38  4209.62  4232.12  4247.83  4285.58

 Zero-point correction=                           0.052399 (Hartree/Particle)
 Thermal correction to Energy=                    0.055840
 Thermal correction to Enthalpy=                  0.056784
 Thermal correction to Gibbs Free Energy=         0.027084
 Sum of electronic and zero-point Energies=           -154.173759
 Sum of electronic and thermal Energies=              -154.170318
 Sum of electronic and thermal Enthalpies=            -154.169374
 Sum of electronic and thermal Free Energies=         -154.199074

                     E (Thermal)             CV                S
                      KCal/Mol        Cal/Mol-Kelvin    Cal/Mol-Kelvin
 Total                   35.040             10.782             62.510
 Electronic               0.000              0.000              1.377
 Translational            0.889              2.981             37.771
 Rotational               0.889              2.981             21.706
 Vibrational             33.263              4.821              1.656
 Vibration     1          0.920              1.109              0.516
 Vibration     2          0.923              1.102              0.510

 Optimization completed.
    -- Stationary point found.
 Normal termination of Gaussian 09 at Mon Jun 20 11:19:46 2016.
