 Gaussian 09, Revision E.01,
 Gaussian 09:  EM64L-G09RevE.01 30-Nov-2015

 ---------------------------------------------
 #p b3lyp/6-311++G(3df,2p) freq symmetry=Loose
 ---------------------------------------------

 ---------
 b3lyp opt
 ---------
 Symbolic Z-matrix:
 Charge =  2 Multiplicity = 3

                         Standard orientation:
 ---------------------------------------------------------------------
 Center     Atomic      Atomic             Coordinates (Angstroms)
 Number     Number       Type             X           Y           Z
 ---------------------------------------------------------------------
      1          6           0        0.000000    0.776277   -0.639254
      2          1           0       -0.941561    1.282535   -0.925815
      3          1           0        0.941561    1.282535   -0.925815
      4          6           0       -0.000000   -0.776277   -0.639254
      5          1           0       -0.941561   -1.282535   -0.925815
      6          1           0        0.941561   -1.282535   -0.925815
      7          6           0        0.000000    0.668460    0.947859
      8          6           0       -0.000000   -0.668460    0.947859
 ---------------------------------------------------------------------

 SCF Done:  E(UB3LYP) =  -153.674941867     A.U. after   12 cycles

 The electronic state is 3-B1.
 Alpha  occ. eigenvalues --  -10.87513 -10.87425 -10.75167 -10.75148  -1.47139
 Alpha  occ. eigenvalues --   -1.23606  -1.17931  -1.01238  -0.97874  -0.97727
 Alpha  occ. eigenvalues --   -0.95146  -0.89517  -0.86948  -0.84674
 Alpha virt. eigenvalues --   -0.70826  -0.58082  -0.43127  -0.37137  -0.35944
 Alpha virt. eigenvalues --   -0.33540  -0.28508  -0.26707  -0.26366  -0.26097
 Alpha virt. eigenvalues --   -0.25168  -0.24675  -0.24591  -0.22477  -0.21820

  Beta  occ. eigenvalues --  -10.85665 -10.85600 -10.75118 -10.75101  -1.43620
  Beta  occ. eigenvalues --   -1.20567  -1.16907  -0.98825  -0.96435  -0.93209
  Beta  occ. eigenvalues --   -0.92160  -0.88526
  Beta virt. eigenvalues --   -0.73534  -0.70539  -0.64899  -0.49741  -0.41705
  Beta virt. eigenvalues --   -0.36876  -0.35554  -0.33143  -0.27952  -0.26212
  Beta virt. eigenvalues --   -0.25630  -0.25021  -0.24722  -0.24442  -0.23677

 Mulliken charges and spin densities:
               1          2
     1  C   -0.060140  -0.033679
     2  H    0.292213   0.029051
     3  H    0.292213   0.029051
     4  C   -0.060140  -0.033679
     5  H    0.292213   0.029051
     6  H    0.292213   0.029051
     7  C    0.475714   0.975576
     8  C    0.475714   0.975576
 Sum of Mulliken charges =   2.00000   2.00000

 Dipole moment (field-independent basis, Debye):
    X=             -0.0000    Y=             -0.0000    Z=              0.2607  Tot=              0.2607
 Quadrupole moment (field-independent basis, Debye-Ang):
   XX=            -15.3437   YY=             -9.3721   ZZ=             -9.0184
   XY=              0.0000   XZ=              0.0000   YZ=              0.0000

  Exact polarizability:  24.947  -0.000  40.219   0.000   0.000  39.645
 Approx polarizability:  37.284   0.000  82.010  -0.000   0.000  81.390

 ******    1 imaginary frequencies (negative Signs) ******

                      1                      2                      3
                     B2                     A2                     B2
 Frequencies --  -1001.9168               174.0511               417.5964
 Red. masses --      5.4806                 4.5189                10.4947
 Frc consts  --      3.2414                 0.0807                 1.0783
 IR Inten    --      0.6489                 0.0000                 6.8132

                      4                      5                      6
                     A1                     B1                     A2
 Frequencies --    456.6825               710.0563               761.8275
 Red. masses --     11.4540                 1.1391                 1.1805
 Frc consts  --      1.4075                 0.3384                 0.4037
 IR Inten    --      5.1741                17.4510                 0.0000

                      7                      8                      9
                     B1                     A1                     A1
 Frequencies --    876.3747               935.1391              1069.6787
 Red. masses --      1.0521                 5.1201                 1.1007
 Frc consts  --      0.4761                 2.6380                 0.7421
 IR Inten    --      3.0361                 1.6733                23.2245

                     10                     11                     12
                     B2                     A2                     B2
 Frequencies --   1092.7133              1094.5153              1270.0444
 Red. masses --      1.2210                 1.2058                 1.1549
 Frc consts  --      0.8590                 0.8511                 1.0975
 IR Inten    --     50.4187                 0.0000                37.1759

                     13                     14                     15
                     A1                     A1                     B2
 Frequencies --   1316.9746              1553.7089              2836.0395
 Red. masses --      1.0804                11.5235                 1.0366
 Frc consts  --      1.1040                16.3899                 4.9123
 IR Inten    --      0.4276                 3.4965               427.2786

                     16                     17                     18
                     A1                     A2                     B1
 Frequencies --   2900.6994              2946.0713              2982.7604
 Red. masses --      1.0495                 1.1108                 1.1144
 Frc consts  --      5.2030                 5.6802                 5.8417
 IR Inten    --    238.9532                 0.0000               337.6074

 - Thermochemistry -
 -------------------
 Temperature   298.150 Kelvin.  Pressure   1.00000 Atm.
 Atom     1 has atomic number  6 and mass  12.00000

 Molecular mass:    52.03130 amu.
 Principal axes and moments of inertia in atomic units:
                           1         2         3
     Eigenvalues --   126.38584 136.19959 237.06020
           X            0.00000  -0.00000   1.00000
           Y            0.00000   1.00000   0.00000
           Z            1.00000  -0.00000   0.00000
 This molecule is an asymmetric top.
 Rotational symmetry number  2.
 Rotational temperatures (Kelvin)      0.68531     0.63593     0.36537
 Rotational constants (GHZ):          14.27961    13.25071     7.61301
    1 imaginary frequencies ignored.
 Zero-point vibrational energy     139932.8 (Joules/Mol)
                                   33.44474 (Kcal/Mol)
 Warning -- explicit consideration of   3 degrees of freedom as
           vibrations may cause significant error
 Vibrational temperatures:    250.42   600.83   657.06  1021.61  1096.10
          (Kelvin)           1260.91  1345.45  1539.03  1572.17  1574.76
                             1827.31  1894.83  2235.44  4080.42  4173.45
                             4238.73  4291.52

 Zero-point correction=                           0.053298 (Hartree/Particle)
 Thermal correction to Energy=                    0.057695
 Thermal correction to Enthalpy=                  0.058639
 Thermal correction to Gibbs Free Energy=         0.026974
 Sum of electronic and zero-point Energies=           -153.621644
 Sum of electronic and thermal Energies=              -153.617247
 Sum of electronic and thermal Enthalpies=            -153.616303
 Sum of electronic and thermal Free Energies=         -153.647968

                     E (Thermal)             CV                S
                      KCal/Mol        Cal/Mol-Kelvin    Cal/Mol-Kelvin
 Total                   36.204             14.371             66.645
 Electronic               0.000              0.000              2.183
 Translational            0.889              2.981             37.771
 Rotational               0.889              2.981             21.550
 Vibrational             34.427              8.410              5.141
 Vibration     1          0.627              1.874              2.391
 Vibration     2          0.781              1.432              0.900
 Vibration     3          0.815              1.346              0.776

 Normal termination of Gaussian 09 at Mon Jun 20 11:19:55 2016.
