 Gaussian 09, Revision E.01,
 Gaussian 09:  EM64L-G09RevE.01 30-Nov-2015

 ---------------------------------------------
 #p b3lyp/6-311++G(3df,2p) freq symmetry=Loose
 ---------------------------------------------

 ---------
 b3lyp opt
 ---------
 Symbolic Z-matrix:
 Charge =  0 Multiplicity = 1

                         Standard orientation:
 ---------------------------------------------------------------------
 Center     Atomic      Atomic             Coordinates (Angstroms)
 Number     Number       Type             X           Y           Z
 ---------------------------------------------------------------------
      1          6           0        0.000000    0.745446   -0.645280
      2          1           0       -0.902315    1.245007   -0.979779
      3          1           0        0.902315    1.245007   -0.979779
      4          6           0       -0.000000   -0.745446   -0.645280
      5          1           0       -0.902315   -1.245007   -0.979779
      6          1           0        0.902315   -1.245007   -0.979779
      7          6           0        0.000000    0.619537    0.971874
      8          6           0       -0.000000   -0.619537    0.971874
 ---------------------------------------------------------------------

 SCF Done:  E(RB3LYP) =  -154.660522383     A.U. after   10 cycles

 The electronic state is 1-A1.
 Alpha  occ. eigenvalues --  -10.23814 -10.23788 -10.17736 -10.17562  -0.88655
 Alpha  occ. eigenvalues --   -0.69358  -0.65827  -0.50866  -0.46566  -0.41047
 Alpha  occ. eigenvalues --   -0.40625  -0.40360  -0.27702  -0.25360
 Alpha virt. eigenvalues --   -0.11524  -0.01230   0.01223   0.01443   0.03019
 Alpha virt. eigenvalues --    0.03882   0.04987   0.06485   0.06685   0.07669
 Alpha virt. eigenvalues --    0.09097   0.09229   0.10838   0.12294   0.12575

 Mulliken charges:
               1
     1  C   -0.183330
     2  H    0.159618
     3  H    0.159618
     4  C   -0.183330
     5  H    0.159618
     6  H    0.159618
     7  C   -0.135906
     8  C   -0.135906
 Sum of Mulliken charges =  -0.00000

 Dipole moment (field-independent basis, Debye):
    X=             -0.0000    Y=             -0.0000    Z=             -3.2156  Tot=              3.2156
 Quadrupole moment (field-independent basis, Debye-Ang):
   XX=            -24.2289   YY=            -24.9315   ZZ=            -26.4961
   XY=              0.0000   XZ=              0.0000   YZ=             -0.0000

  Exact polarizability:  35.481   0.000  51.965  -0.000  -0.000  50.016
 Approx polarizability:  50.356  -0.000 108.295  -0.000  -0.000  76.020

 ******    1 imaginary frequencies (negative Signs) ******

                      1                      2                      3
                     B2                     A2                     B2
 Frequencies --   -598.1914                93.0311               737.5625
 Red. masses --      8.0586                 3.9322                 8.3795
 Frc consts  --      1.6990                 0.0201                 2.6858
 IR Inten    --    193.7793                 0.0000                 6.0692

                      4                      5                      6
                     A1                     B1                     A2
 Frequencies --    761.7872               797.0215               927.5572
 Red. masses --     10.1421                 1.1071                 1.2111
 Frc consts  --      3.4677                 0.4144                 0.6139
 IR Inten    --    110.0069                 1.3664                 0.0000

                      7                      8                      9
                     B1                     A1                     B2
 Frequencies --   1021.9487              1052.7240              1164.8919
 Red. masses --      1.0780                 2.1622                 1.2273
 Frc consts  --      0.6634                 1.4118                 0.9812
 IR Inten    --      0.3239                 2.2712                12.7172

                     10                     11                     12
                     A1                     A2                     B2
 Frequencies --   1183.9530              1209.1697              1470.0584
 Red. masses --      1.4018                 1.2303                 1.0954
 Frc consts  --      1.1577                 1.0598                 1.3947
 IR Inten    --      0.1487                 0.0000                 1.3470

                     13                     14                     15
                     A1                     A1                     B2
 Frequencies --   1497.7044              1963.5874              3098.9948
 Red. masses --      1.1724                11.9395                 1.0506
 Frc consts  --      1.5494                27.1228                 5.9446
 IR Inten    --      2.6929                 0.1891                12.9473

                     16                     17                     18
                     A1                     A2                     B1
 Frequencies --   3101.0569              3165.8171              3183.2095
 Red. masses --      1.0581                 1.1147                 1.1150
 Frc consts  --      5.9952                 6.5820                 6.6565
 IR Inten    --     17.4441                 0.0000                 3.2778

 - Thermochemistry -
 -------------------
 Temperature   298.150 Kelvin.  Pressure   1.00000 Atm.
 Atom     1 has atomic number  6 and mass  12.00000

 Molecular mass:    52.03130 amu.
 Principal axes and moments of inertia in atomic units:
                           1         2         3
     Eigenvalues --   114.55704 141.14169 232.25703
           X            0.00000   0.00000   1.00000
           Y            0.00000   1.00000   0.00000
           Z            1.00000   0.00000   0.00000
 This molecule is an asymmetric top.
 Rotational symmetry number  2.
 Rotational temperatures (Kelvin)      0.75608     0.61367     0.37292
 Rotational constants (GHZ):          15.75408    12.78673     7.77045
    1 imaginary frequencies ignored.
 Zero-point vibrational energy     158087.0 (Joules/Mol)
                                   37.78369 (Kcal/Mol)
 Warning -- explicit consideration of   1 degrees of freedom as
           vibrations may cause significant error
 Vibrational temperatures:    133.85  1061.19  1096.04  1146.73  1334.55
          (Kelvin)           1470.35  1514.63  1676.02  1703.44  1739.72
                             2115.08  2154.86  2825.16  4458.76  4461.72
                             4554.90  4579.92

 Zero-point correction=                           0.060212 (Hartree/Particle)
 Thermal correction to Energy=                    0.064238
 Thermal correction to Enthalpy=                  0.065182
 Thermal correction to Gibbs Free Energy=         0.034777
 Sum of electronic and zero-point Energies=           -154.600310
 Sum of electronic and thermal Energies=              -154.596285
 Sum of electronic and thermal Enthalpies=            -154.595341
 Sum of electronic and thermal Free Energies=         -154.625746

                     E (Thermal)             CV                S
                      KCal/Mol        Cal/Mol-Kelvin    Cal/Mol-Kelvin
 Total                   40.310             12.003             63.993
 Electronic               0.000              0.000              0.000
 Translational            0.889              2.981             37.771
 Rotational               0.889              2.981             21.467
 Vibrational             38.532              6.041              4.755
 Vibration     1          0.602              1.954              3.595

 Optimization completed.
    -- Stationary point found.
 Normal termination of Gaussian 09 at Mon Jun 20 11:14:37 2016.
