 Gaussian 09, Revision E.01,
 Gaussian 09:  EM64L-G09RevE.01 30-Nov-2015

 ---------------------------------------------
 #p b3lyp/6-311++G(3df,2p) freq symmetry=Loose
 ---------------------------------------------

 ---------
 b3lyp opt
 ---------
 Symbolic Z-matrix:
 Charge =  3 Multiplicity = 4

                         Standard orientation:
 ---------------------------------------------------------------------
 Center     Atomic      Atomic             Coordinates (Angstroms)
 Number     Number       Type             X           Y           Z
 ---------------------------------------------------------------------
      1          6           0        0.000000    0.764555    0.555093
      2          1           0        0.000000    1.314317    1.541954
      3          6           0       -0.000000   -0.764555    0.555093
      4          1           0       -0.000000   -1.314317    1.541954
      5          6           0        0.000000    1.575674   -0.604833
      6          6           0       -0.000000   -1.575674   -0.604833
      7          1           0        0.000000   -2.506258   -1.243514
      8          1           0        0.000000    2.506258   -1.243514
 ---------------------------------------------------------------------

 SCF Done:  E(UB3LYP) =  -152.861906119     A.U. after   11 cycles

 The electronic state is 4-B2.
 Alpha  occ. eigenvalues --  -11.07354 -11.07353 -11.03896 -11.03875  -1.60477
 Alpha  occ. eigenvalues --   -1.52275  -1.37630  -1.27447  -1.23304  -1.21088
 Alpha  occ. eigenvalues --   -1.17076  -1.12655  -1.04349  -0.95705
 Alpha virt. eigenvalues --   -0.92336  -0.84573  -0.73914  -0.60049  -0.58446
 Alpha virt. eigenvalues --   -0.52455  -0.49778  -0.48166  -0.44539  -0.43883
 Alpha virt. eigenvalues --   -0.43085  -0.42468  -0.41003  -0.40928  -0.38227

  Beta  occ. eigenvalues --  -11.05708 -11.05707 -11.03053 -11.03034  -1.55851
  Beta  occ. eigenvalues --   -1.47226  -1.33854  -1.24825  -1.21770  -1.19066
  Beta  occ. eigenvalues --   -1.15434
  Beta virt. eigenvalues --   -0.97765  -0.89319  -0.83640  -0.83607  -0.75913
  Beta virt. eigenvalues --   -0.65651  -0.56436  -0.56117  -0.51388  -0.48436
  Beta virt. eigenvalues --   -0.47041  -0.43355  -0.43099  -0.42042  -0.41335

 Mulliken charges and spin densities:
               1          2
     1  C    0.238236   0.550888
     2  H    0.317568   0.014131
     3  C    0.238236   0.550888
     4  H    0.317568   0.014131
     5  C    0.446829   0.949440
     6  C    0.446829   0.949440
     7  H    0.497367  -0.014459
     8  H    0.497367  -0.014459
 Sum of Mulliken charges =   3.00000   3.00000

 Dipole moment (field-independent basis, Debye):
    X=             -0.0000    Y=             -0.0000    Z=             -1.1328  Tot=              1.1328
 Quadrupole moment (field-independent basis, Debye-Ang):
   XX=            -17.5979   YY=             24.5135   ZZ=             -2.4107
   XY=              0.0000   XZ=             -0.0000   YZ=              0.0000

  Exact polarizability:  19.332   0.000 196.631   0.000   0.000  35.263
 Approx polarizability:  27.424   0.000 452.563  -0.000  -0.000  56.982

 ******    2 imaginary frequencies (negative Signs) ******

                      1                      2                      3
                     B2                     A2                     A1
 Frequencies --  -1019.9817              -248.3546               133.9402
 Red. masses --      1.7995                 1.6013                 3.0165
 Frc consts  --      1.1030                 0.0582                 0.0319
 IR Inten    --  11191.2080                 0.0000                 7.2655

                      4                      5                      6
                     B1                     B2                     A2
 Frequencies --    383.5462               538.8895               610.2837
 Red. masses --      1.1104                 2.2027                 1.2758
 Frc consts  --      0.0962                 0.3769                 0.2800
 IR Inten    --    139.7136                40.4391                 0.0000

                      7                      8                      9
                     A1                     B1                     A2
 Frequencies --    674.7125               727.7360               838.1187
 Red. masses --      1.4202                 1.3999                 2.0160
 Frc consts  --      0.3809                 0.4368                 0.8343
 IR Inten    --     75.8879                17.1228                 0.0000

                     10                     11                     12
                     A1                     B2                     A1
 Frequencies --    870.7671              1004.6263              1152.3680
 Red. masses --      3.4071                 1.5300                 1.2377
 Frc consts  --      1.5221                 0.9098                 0.9684
 IR Inten    --      2.4289               249.9475                 0.1764

                     13                     14                     15
                     B2                     A1                     B2
 Frequencies --   1320.4080              1393.7707              2572.1680
 Red. masses --      2.6959                 5.2388                 1.0625
 Frc consts  --      2.7693                 5.9961                 4.1417
 IR Inten    --    561.7924                55.3557              6827.5905

                     16                     17                     18
                     A1                     B2                     A1
 Frequencies --   2730.0415              2770.1157              2807.9099
 Red. masses --      1.0854                 1.1141                 1.1121
 Frc consts  --      4.7661                 5.0368                 5.1662
 IR Inten    --    772.8677              1193.5881               158.5609

 - Thermochemistry -
 -------------------
 Temperature   298.150 Kelvin.  Pressure   1.00000 Atm.
 Atom     1 has atomic number  6 and mass  12.00000

 Molecular mass:    52.03130 amu.
 Principal axes and moments of inertia in atomic units:
                           1         2         3
     Eigenvalues --    85.98195 320.53123 406.51317
           X           -0.00000   0.00000   1.00000
           Y            1.00000   0.00000   0.00000
           Z           -0.00000   1.00000   0.00000
 This molecule is an asymmetric top.
 Rotational symmetry number  2.
 Rotational temperatures (Kelvin)      1.00735     0.27022     0.21307
 Rotational constants (GHZ):          20.98977     5.63047     4.43956
    2 imaginary frequencies ignored.
 Zero-point vibrational energy     122793.1 (Joules/Mol)
                                   29.34825 (Kcal/Mol)
 Warning -- explicit consideration of   4 degrees of freedom as
           vibrations may cause significant error
 Vibrational temperatures:    192.71   551.84   775.34   878.06   970.76
          (Kelvin)           1047.05  1205.86  1252.84  1445.43  1658.00
                             1899.77  2005.32  3700.77  3927.92  3985.57
                             4039.95

 Zero-point correction=                           0.046769 (Hartree/Particle)
 Thermal correction to Energy=                    0.051379
 Thermal correction to Enthalpy=                  0.052323
 Thermal correction to Gibbs Free Energy=         0.019479
 Sum of electronic and zero-point Energies=           -152.815137
 Sum of electronic and thermal Energies=              -152.810527
 Sum of electronic and thermal Enthalpies=            -152.809583
 Sum of electronic and thermal Free Energies=         -152.842427

                     E (Thermal)             CV                S
                      KCal/Mol        Cal/Mol-Kelvin    Cal/Mol-Kelvin
 Total                   32.241             15.207             69.126
 Electronic               0.000              0.000              2.755
 Translational            0.889              2.981             37.771
 Rotational               0.889              2.981             22.553
 Vibrational             30.463              9.245              6.047
 Vibration     1          0.613              1.919              2.889
 Vibration     2          0.753              1.505              1.025
 Vibration     3          0.894              1.164              0.568
 Vibration     4          0.969              1.010              0.432

 Normal termination of Gaussian 09 at Mon Jun 20 11:19:50 2016.
