 Gaussian 09, Revision E.01,
 Gaussian 09:  EM64L-G09RevE.01 30-Nov-2015

 ---------------------------------------------
 #p b3lyp/6-311++G(3df,2p) freq symmetry=Loose
 ---------------------------------------------

 ---------
 b3lyp opt
 ---------
 Symbolic Z-matrix:
 Charge =  2 Multiplicity = 3

                         Standard orientation:
 ---------------------------------------------------------------------
 Center     Atomic      Atomic             Coordinates (Angstroms)
 Number     Number       Type             X           Y           Z
 ---------------------------------------------------------------------
      1          6           0        1.089550    1.245440    0.000000
      2          6           0        0.049481   -2.092690    0.000000
      3          1           0        1.138591   -2.129186    0.000000
      4          1           0       -0.504907   -3.032120    0.000000
      5          6           0       -0.671654   -0.856576    0.000000
      6          1           0       -1.762070   -0.860479    0.000000
      7          6           0        0.000000    0.432214    0.000000
      8          6           0       -0.143421    1.827507    0.000000
      9          1           0       -0.815351    2.686417    0.000000
 ---------------------------------------------------------------------

 SCF Done:  E(UB3LYP) =  -191.931455581     A.U. after   15 cycles

 The electronic state is 3-A".
 Alpha  occ. eigenvalues --  -10.73670 -10.73102 -10.72715 -10.72101 -10.71889
 Alpha  occ. eigenvalues --   -1.42662  -1.28695  -1.12750  -1.04277  -0.99146
 Alpha  occ. eigenvalues --   -0.95261  -0.90625  -0.87936  -0.87587  -0.83819
 Alpha  occ. eigenvalues --   -0.78690  -0.74992
 Alpha virt. eigenvalues --   -0.56386  -0.48523  -0.42467  -0.33624  -0.31172
 Alpha virt. eigenvalues --   -0.30113  -0.28085  -0.27288  -0.26466  -0.25668
 Alpha virt. eigenvalues --   -0.24518  -0.23105  -0.21850  -0.21191  -0.20166

  Beta  occ. eigenvalues --  -10.72621 -10.72278 -10.71857 -10.71753 -10.71333
  Beta  occ. eigenvalues --   -1.41236  -1.25756  -1.11232  -1.03006  -0.97969
  Beta  occ. eigenvalues --   -0.93249  -0.87355  -0.86517  -0.85743  -0.82727
  Beta virt. eigenvalues --   -0.67100  -0.58890  -0.52397  -0.45690  -0.38721
  Beta virt. eigenvalues --   -0.33041  -0.30532  -0.29392  -0.27501  -0.26250
  Beta virt. eigenvalues --   -0.25210  -0.24840  -0.24137  -0.22561  -0.21388

 Mulliken charges and spin densities:
               1          2
     1  C    0.407535   0.928707
     2  C   -0.251566   0.348895
     3  H    0.265483  -0.006306
     4  H    0.298767  -0.008016
     5  C   -0.039745   0.632059
     6  H    0.286789  -0.006958
     7  C    0.433476  -0.099910
     8  C    0.229786   0.209583
     9  H    0.369474   0.001947
 Sum of Mulliken charges =   2.00000   2.00000

 Dipole moment (field-independent basis, Debye):
    X=             -1.2284    Y=             -1.6076    Z=              0.0000  Tot=              2.0232
 Quadrupole moment (field-independent basis, Debye-Ang):
   XX=            -16.5999   YY=             11.8825   ZZ=            -24.1029
   XY=              0.1660   XZ=              0.0000   YZ=              0.0000

  Exact polarizability:  39.725   1.526  69.275  -0.000  -0.000  24.770
 Approx polarizability:  65.163   3.490  96.313  -0.000  -0.000  37.474

 ******    1 imaginary frequencies (negative Signs) ******

                      1                      2                      3
                     A"                     A"                     A'
 Frequencies --   -274.5358                52.9857               221.7850
 Red. masses --      1.0975                 2.2231                 3.4799
 Frc consts  --      0.0487                 0.0037                 0.1009
 IR Inten    --      0.0048                 4.7991                 7.0721

                      4                      5                      6
                     A"                     A'                     A'
 Frequencies --    351.8385               489.5816               759.9994
 Red. masses --      3.5051                 3.4734                 3.0337
 Frc consts  --      0.2556                 0.4905                 1.0324
 IR Inten    --      9.3504                 3.1923                 9.1949

                      7                      8                      9
                     A"                     A"                     A'
 Frequencies --    788.8853               929.4134               961.4821
 Red. masses --      1.5584                 1.4239                 1.2517
 Frc consts  --      0.5714                 0.7247                 0.6818
 IR Inten    --      3.2162                30.7902                45.1527

                     10                     11                     12
                     A'                     A"                     A'
 Frequencies --   1061.8702              1122.2837              1183.3321
 Red. masses --      1.5342                 1.4125                 7.1072
 Frc consts  --      1.0192                 1.0482                 5.8635
 IR Inten    --      2.5524                 7.7307                70.0493

                     13                     14                     15
                     A'                     A'                     A'
 Frequencies --   1231.0264              1364.4482              1413.8532
 Red. masses --      2.1537                 5.0696                 1.6093
 Frc consts  --      1.9229                 5.5608                 1.8954
 IR Inten    --     41.9552                31.4662                52.3384

                     16                     17                     18
                     A'                     A'                     A'
 Frequencies --   1503.9722              1650.3480              3082.2957
 Red. masses --      1.3688                 9.4382                 1.0555
 Frc consts  --      1.8242                15.1458                 5.9085
 IR Inten    --     11.2727                49.6247                92.7981

                     19                     20                     21
                     A'                     A'                     A'
 Frequencies --   3125.7958              3158.5958              3198.4572
 Red. masses --      1.0939                 1.1204                 1.1260
 Frc consts  --      6.2971                 6.5856                 6.7868
 IR Inten    --     61.7771               175.0009                76.2690

 - Thermochemistry -
 -------------------
 Temperature   298.150 Kelvin.  Pressure   1.00000 Atm.
 Atom     1 has atomic number  6 and mass  12.00000

 Molecular mass:    64.03130 amu.
 Principal axes and moments of inertia in atomic units:
                           1         2         3
     Eigenvalues --    81.49290 522.77469 604.26759
           X            0.13992   0.99016   0.00000
           Y            0.99016  -0.13992   0.00000
           Z            0.00000  -0.00000   1.00000
 This molecule is an asymmetric top.
 Rotational symmetry number  1.
 Rotational temperatures (Kelvin)      1.06284     0.16568     0.14334
 Rotational constants (GHZ):          22.14599     3.45224     2.98666
    1 imaginary frequencies ignored.
 Zero-point vibrational energy     165397.2 (Joules/Mol)
                                   39.53087 (Kcal/Mol)
 Warning -- explicit consideration of   4 degrees of freedom as
           vibrations may cause significant error
 Vibrational temperatures:     76.23   319.10   506.22   704.40  1093.47
          (Kelvin)           1135.03  1337.22  1383.36  1527.79  1614.71
                             1702.55  1771.17  1963.13  2034.22  2163.88
                             2374.48  4434.73  4497.32  4544.51  4601.86

 Zero-point correction=                           0.062996 (Hartree/Particle)
 Thermal correction to Energy=                    0.068147
 Thermal correction to Enthalpy=                  0.069091
 Thermal correction to Gibbs Free Energy=         0.033562
 Sum of electronic and zero-point Energies=           -191.868459
 Sum of electronic and thermal Energies=              -191.863308
 Sum of electronic and thermal Enthalpies=            -191.862364
 Sum of electronic and thermal Free Energies=         -191.897894

                     E (Thermal)             CV                S
                      KCal/Mol        Cal/Mol-Kelvin    Cal/Mol-Kelvin
 Total                   42.763             16.177             74.778
 Electronic               0.000              0.000              2.183
 Translational            0.889              2.981             38.389
 Rotational               0.889              2.981             24.757
 Vibrational             40.986             10.215              9.448
 Vibration     1          0.596              1.976              4.703
 Vibration     2          0.648              1.808              1.944
 Vibration     3          0.728              1.571              1.158
 Vibration     4          0.845              1.273              0.685

 Optimization completed.
    -- Stationary point found.
 Normal termination of Gaussian 09 at Mon Jun 20 11:58:48 2016.
