 Gaussian 09, Revision E.01,
 Gaussian 09:  EM64L-G09RevE.01 30-Nov-2015

 ---------------------------------------------
 #p b3lyp/6-311++G(3df,2p) freq symmetry=Loose
 ---------------------------------------------

 ---------
 b3lyp opt
 ---------
 Symbolic Z-matrix:
 Charge =  0 Multiplicity = 3

                         Standard orientation:
 ---------------------------------------------------------------------
 Center     Atomic      Atomic             Coordinates (Angstroms)
 Number     Number       Type             X           Y           Z
 ---------------------------------------------------------------------
      1          6           0       -0.000327   -2.304556   -0.000000
      2          6           0       -1.235405    1.045189   -0.000000
      3          1           0       -1.278688    2.125676   -0.000000
      4          1           0       -2.159618    0.489566   -0.000000
      5          6           0       -0.000159   -1.028995   -0.000000
      6          6           0        0.000000    0.372161    0.000000
      7          6           0        1.235710    1.044729    0.000000
      8          1           0        2.159761    0.488496    0.000000
      9          1           0        1.279630    2.125096    0.000000
 ---------------------------------------------------------------------

 SCF Done:  E(UB3LYP) =  -192.760099113     A.U. after   15 cycles

 The electronic state is 3-A'.
 Alpha  occ. eigenvalues --  -10.24851 -10.22716 -10.22713 -10.20665 -10.20121
 Alpha  occ. eigenvalues --   -0.87306  -0.76637  -0.73344  -0.63979  -0.53538
 Alpha  occ. eigenvalues --   -0.49600  -0.44294  -0.43189  -0.40979  -0.30335
 Alpha  occ. eigenvalues --   -0.28932  -0.28692  -0.25383
 Alpha virt. eigenvalues --   -0.06401  -0.01589   0.00539   0.01271   0.02039
 Alpha virt. eigenvalues --    0.04088   0.04668   0.04742   0.07126   0.07356
 Alpha virt. eigenvalues --    0.07615   0.08004   0.09887   0.10123   0.10762

  Beta  occ. eigenvalues --  -10.25154 -10.21657 -10.21655 -10.20040 -10.19631
  Beta  occ. eigenvalues --   -0.86019  -0.73614  -0.70457  -0.62709  -0.52751
  Beta  occ. eigenvalues --   -0.48912  -0.43566  -0.42493  -0.37060  -0.28036
  Beta  occ. eigenvalues --   -0.27700
  Beta virt. eigenvalues --   -0.18515  -0.12062  -0.02691  -0.01436   0.00724
  Beta virt. eigenvalues --    0.01356   0.02436   0.04738   0.04874   0.05656
  Beta virt. eigenvalues --    0.07379   0.07788   0.08566   0.09088   0.09896

 Mulliken charges and spin densities:
               1          2
     1  C   -1.075663   0.277262
     2  C   -0.604522   0.779894
     3  H    0.179404  -0.024601
     4  H    0.201955  -0.025000
     5  C    0.457507   0.485956
     6  C    1.064431  -0.223872
     7  C   -0.604455   0.779971
     8  H    0.201857  -0.025017
     9  H    0.179486  -0.024593
 Sum of Mulliken charges =  -0.00000   2.00000

 Dipole moment (field-independent basis, Debye):
    X=              0.0006    Y=              5.1641    Z=              0.0000  Tot=              5.1641
 Quadrupole moment (field-independent basis, Debye-Ang):
   XX=            -27.1805   YY=            -39.2884   ZZ=            -31.4690
   XY=             -0.0018   XZ=             -0.0000   YZ=             -0.0000

  Exact polarizability:  65.566  -0.002  88.360  -0.002   0.006  47.099
 Approx polarizability:  93.572   0.002 126.886   0.000   0.000  59.482

 ******    1 imaginary frequencies (negative Signs) ******

                      1                      2                      3
                     A"                     A'                     A'
 Frequencies --   -300.1170               173.9175               399.8237
 Red. masses --     11.5691                 5.2304                 2.3022
 Frc consts  --      0.6139                 0.0932                 0.2168
 IR Inten    --    119.5166                 3.0479                 0.3975

                      4                      5                      6
                     A"                     A"                     A"
 Frequencies --    405.7832               407.3402               521.2315
 Red. masses --      1.0153                 1.6327                 1.4652
 Frc consts  --      0.0985                 0.1596                 0.2345
 IR Inten    --      0.0580                25.6801                16.9870

                      7                      8                      9
                     A'                     A"                     A'
 Frequencies --    547.7233               786.1651               818.1067
 Red. masses --      4.9154                 1.3075                 4.2048
 Frc consts  --      0.8688                 0.4761                 1.6581
 IR Inten    --      1.5419                 0.0001                 0.7656

                     10                     11                     12
                     A"                     A'                     A'
 Frequencies --    829.9029               981.9579              1017.7905
 Red. masses --      1.5888                 1.3586                 1.8374
 Frc consts  --      0.6447                 0.7718                 1.1214
 IR Inten    --     50.4776                 2.2835                10.1324

                     13                     14                     15
                     A'                     A'                     A'
 Frequencies --   1313.9864              1331.5595              1482.6168
 Red. masses --      3.3431                 3.1726                 1.3481
 Frc consts  --      3.4008                 3.3142                 1.7459
 IR Inten    --     28.6279                22.6161                38.1253

                     16                     17                     18
                     A'                     A'                     A'
 Frequencies --   1501.0667              1974.2494              3147.0776
 Red. masses --      1.2432                11.9667                 1.0525
 Frc consts  --      1.6503                27.4807                 6.1418
 IR Inten    --      0.5768                56.7530                 0.3979

                     19                     20                     21
                     A'                     A'                     A'
 Frequencies --   3152.5956              3260.5101              3262.0361
 Red. masses --      1.0552                 1.1180                 1.1187
 Frc consts  --      6.1788                 7.0023                 7.0136
 IR Inten    --      9.4379                 0.2884                 0.4853

 - Thermochemistry -
 -------------------
 Temperature   298.150 Kelvin.  Pressure   1.00000 Atm.
 Atom     1 has atomic number  6 and mass  12.00000

 Molecular mass:    64.03130 amu.
 Principal axes and moments of inertia in atomic units:
                           1         2         3
     Eigenvalues --   176.18946 405.22030 581.40976
           X            0.00011   1.00000   0.00000
           Y            1.00000  -0.00011   0.00000
           Z           -0.00000  -0.00000   1.00000
 This molecule is an asymmetric top.
 Rotational symmetry number  1.
 Rotational temperatures (Kelvin)      0.49159     0.21375     0.14897
 Rotational constants (GHZ):          10.24318     4.45373     3.10408
    1 imaginary frequencies ignored.
 Zero-point vibrational energy     163382.6 (Joules/Mol)
                                   39.04938 (Kcal/Mol)
 Warning -- explicit consideration of   6 degrees of freedom as
           vibrations may cause significant error
 Vibrational temperatures:    250.23   575.26   583.83   586.07   749.93
          (Kelvin)            788.05  1131.11  1177.07  1194.04  1412.82
                             1464.37  1890.53  1915.81  2133.15  2159.70
                             2840.50  4527.94  4535.88  4691.14  4693.34

 Zero-point correction=                           0.062229 (Hartree/Particle)
 Thermal correction to Energy=                    0.067311
 Thermal correction to Enthalpy=                  0.068255
 Thermal correction to Gibbs Free Energy=         0.033545
 Sum of electronic and zero-point Energies=           -192.697870
 Sum of electronic and thermal Energies=              -192.692788
 Sum of electronic and thermal Enthalpies=            -192.691844
 Sum of electronic and thermal Free Energies=         -192.726554

                     E (Thermal)             CV                S
                      KCal/Mol        Cal/Mol-Kelvin    Cal/Mol-Kelvin
 Total                   42.238             17.662             73.054
 Electronic               0.000              0.000              2.183
 Translational            0.889              2.981             38.389
 Rotational               0.889              2.981             25.232
 Vibrational             40.461             11.700              7.249
 Vibration     1          0.627              1.875              2.393
 Vibration     2          0.766              1.470              0.963
 Vibration     3          0.771              1.458              0.942
 Vibration     4          0.772              1.454              0.936
 Vibration     5          0.876              1.203              0.607
 Vibration     6          0.903              1.145              0.549

 Optimization completed.
    -- Stationary point found.
 Normal termination of Gaussian 09 at Mon Jun 20 11:35:59 2016.
