 Gaussian 09, Revision E.01,
 Gaussian 09:  EM64L-G09RevE.01 30-Nov-2015

 ---------------------------------------------
 #p b3lyp/6-311++G(3df,2p) freq symmetry=Loose
 ---------------------------------------------

 ---------
 b3lyp opt
 ---------
 Symbolic Z-matrix:
 Charge =  3 Multiplicity = 2

                         Standard orientation:
 ---------------------------------------------------------------------
 Center     Atomic      Atomic             Coordinates (Angstroms)
 Number     Number       Type             X           Y           Z
 ---------------------------------------------------------------------
      1          6           0       -1.750556   -1.682250    0.000000
      2          1           0       -1.046922   -2.528543    0.000000
      3          1           0       -2.839885   -1.859298    0.000000
      4          6           0       -1.282481   -0.253247    0.000000
      5          1           0       -2.052967    0.559179    0.000000
      6          6           0        0.000000    0.201785    0.000000
      7          6           0        1.164180    0.744423    0.000000
      8          6           0        2.308044    1.322630    0.000000
      9          1           0        3.304650    1.828614    0.000000
 ---------------------------------------------------------------------

 SCF Done:  E(UB3LYP) =  -191.193167904     A.U. after   18 cycles

 The electronic state is 2-A".
 Alpha  occ. eigenvalues --  -11.01650 -10.99779 -10.95344 -10.94749 -10.93645
 Alpha  occ. eigenvalues --   -1.54388  -1.49580  -1.40739  -1.32819  -1.20345
 Alpha  occ. eigenvalues --   -1.17838  -1.12651  -1.07551  -1.06343  -1.02921
 Alpha  occ. eigenvalues --   -0.99391
 Alpha virt. eigenvalues --   -0.83274  -0.83211  -0.71706  -0.60553  -0.56167
 Alpha virt. eigenvalues --   -0.51890  -0.49525  -0.46638  -0.45744  -0.44128
 Alpha virt. eigenvalues --   -0.41405  -0.39797  -0.39631  -0.37320  -0.36419

  Beta  occ. eigenvalues --  -11.00872 -11.00111 -10.95166 -10.94028 -10.93381
  Beta  occ. eigenvalues --   -1.53602  -1.47242  -1.39809  -1.32101  -1.19561
  Beta  occ. eigenvalues --   -1.17353  -1.12306  -1.06229  -1.04957  -1.02365
  Beta virt. eigenvalues --   -0.89327  -0.82881  -0.80183  -0.67659  -0.60105
  Beta virt. eigenvalues --   -0.53629  -0.50928  -0.49057  -0.46197  -0.45274
  Beta virt. eigenvalues --   -0.43973  -0.40875  -0.39494  -0.39390  -0.37211

 Mulliken charges and spin densities:
               1          2
     1  C   -0.086856   0.114242
     2  H    0.319478  -0.002850
     3  H    0.361846  -0.002917
     4  C    0.277122   0.420212
     5  H    0.316715  -0.010493
     6  C    0.275409  -0.029086
     7  C    0.435195   0.214756
     8  C    0.604128   0.308766
     9  H    0.496964  -0.012631
 Sum of Mulliken charges =   3.00000   1.00000

 Dipole moment (field-independent basis, Debye):
    X=              1.1321    Y=             -0.0447    Z=              0.0000  Tot=              1.1330
 Quadrupole moment (field-independent basis, Debye-Ang):
   XX=             39.2040   YY=              7.3646   ZZ=            -22.3647
   XY=             35.1225   XZ=              0.0000   YZ=              0.0000

  Exact polarizability:  90.494  36.874  52.254   0.000   0.000  22.406
 Approx polarizability: 197.044  83.125  86.694  -0.000  -0.000  32.190

 ******    1 imaginary frequencies (negative Signs) ******

                      1                      2                      3
                     A"                     A'                     A"
 Frequencies --   -351.6898               148.6114               187.0320
 Red. masses --      1.0634                 3.3235                 3.1201
 Frc consts  --      0.0775                 0.0432                 0.0643
 IR Inten    --      0.3935                23.0695                31.8333

                      4                      5                      6
                     A'                     A"                     A'
 Frequencies --    294.4373               456.9274               576.3892
 Red. masses --      4.0239                 3.8460                 5.2731
 Frc consts  --      0.2055                 0.4731                 1.0322
 IR Inten    --     17.5845                 0.0427                25.6478

                      7                      8                      9
                     A"                     A'                     A"
 Frequencies --    733.1048               778.5889               778.7605
 Red. masses --      1.7909                 3.4159                 1.3919
 Frc consts  --      0.5671                 1.2200                 0.4974
 IR Inten    --     32.5479                 2.9510                14.4696

                     10                     11                     12
                     A'                     A'                     A'
 Frequencies --    852.8478              1008.1061              1043.6388
 Red. masses --      1.3629                 1.5145                 3.0251
 Frc consts  --      0.5841                 0.9068                 1.9413
 IR Inten    --     13.5556               115.8065               336.8769

                     13                     14                     15
                     A"                     A'                     A'
 Frequencies --   1174.9405              1257.5178              1424.8491
 Red. masses --      1.3702                 1.4496                 2.4654
 Frc consts  --      1.1145                 1.3506                 2.9490
 IR Inten    --      5.5933               122.0610                 2.7533

                     16                     17                     18
                     A'                     A'                     A'
 Frequencies --   1444.8013              2013.9419              2812.3181
 Red. masses --      1.5281                 6.6679                 1.0829
 Frc consts  --      1.8794                15.9344                 5.0462
 IR Inten    --     17.4773              1030.7679               368.6125

                     19                     20                     21
                     A'                     A'                     A'
 Frequencies --   2938.1802              2971.9971              3101.4776
 Red. masses --      1.1804                 1.0539                 1.1314
 Frc consts  --      6.0038                 5.4847                 6.4120
 IR Inten    --    590.2926               191.3878               157.1354

 - Thermochemistry -
 -------------------
 Temperature   298.150 Kelvin.  Pressure   1.00000 Atm.
 Atom     1 has atomic number  6 and mass  12.00000

 Molecular mass:    64.03130 amu.
 Principal axes and moments of inertia in atomic units:
                           1         2         3
     Eigenvalues --    39.18463 808.90736 848.09199
           X            0.83451  -0.55100   0.00000
           Y            0.55100   0.83451   0.00000
           Z            0.00000   0.00000   1.00000
 This molecule is an asymmetric top.
 Rotational symmetry number  1.
 Rotational temperatures (Kelvin)      2.21040     0.10708     0.10213
 Rotational constants (GHZ):          46.05738     2.23109     2.12800
    1 imaginary frequencies ignored.
 Zero-point vibrational energy     155505.4 (Joules/Mol)
                                   37.16668 (Kcal/Mol)
 Warning -- explicit consideration of   5 degrees of freedom as
           vibrations may cause significant error
 Vibrational temperatures:    213.82   269.10   423.63   657.42   829.29
          (Kelvin)           1054.77  1120.21  1120.46  1227.06  1450.44
                             1501.56  1690.48  1809.29  2050.04  2078.74
                             2897.61  4046.29  4227.38  4276.04  4462.33

 Zero-point correction=                           0.059229 (Hartree/Particle)
 Thermal correction to Energy=                    0.064593
 Thermal correction to Enthalpy=                  0.065537
 Thermal correction to Gibbs Free Energy=         0.030664
 Sum of electronic and zero-point Energies=           -191.133939
 Sum of electronic and thermal Energies=              -191.128575
 Sum of electronic and thermal Enthalpies=            -191.127630
 Sum of electronic and thermal Free Energies=         -191.162504

                     E (Thermal)             CV                S
                      KCal/Mol        Cal/Mol-Kelvin    Cal/Mol-Kelvin
 Total                   40.533             17.836             73.398
 Electronic               0.000              0.000              1.377
 Translational            0.889              2.981             38.389
 Rotational               0.889              2.981             24.800
 Vibrational             38.755             11.874              8.831
 Vibration     1          0.618              1.904              2.690
 Vibration     2          0.632              1.858              2.257
 Vibration     3          0.689              1.684              1.448
 Vibration     4          0.815              1.346              0.775
 Vibration     5          0.933              1.082              0.492

 Optimization completed.
    -- Stationary point found.
 Normal termination of Gaussian 09 at Mon Jun 20 11:58:49 2016.
