 Gaussian 09, Revision E.01,
 Gaussian 09:  EM64L-G09RevE.01 30-Nov-2015

 ---------------------------------------------
 #p b3lyp/6-311++G(3df,2p) freq symmetry=Loose
 ---------------------------------------------

 ---------
 b3lyp opt
 ---------
 Symbolic Z-matrix:
 Charge =  2 Multiplicity = 3

                         Standard orientation:
 ---------------------------------------------------------------------
 Center     Atomic      Atomic             Coordinates (Angstroms)
 Number     Number       Type             X           Y           Z
 ---------------------------------------------------------------------
      1          6           0       -0.674381   -2.062800   -0.000000
      2          1           0       -1.607157   -2.637031   -0.000000
      3          1           0        0.268424   -2.622221   -0.000000
      4          6           0       -0.737201   -0.674137   -0.000000
      5          6           0        0.000000    0.537192    0.000000
      6          6           0       -0.373603    1.873274    0.000000
      7          6           0        1.363937    0.863786    0.000000
      8          1           0        1.698691    1.917699    0.000000
      9          1           0        2.167532    0.117668    0.000000
 ---------------------------------------------------------------------

 SCF Done:  E(UB3LYP) =  -191.833157561     A.U. after   18 cycles

 The electronic state is 3-A".
 Alpha  occ. eigenvalues --  -10.77875 -10.73819 -10.73615 -10.71199 -10.70148
 Alpha  occ. eigenvalues --   -1.35985  -1.26782  -1.13820  -1.10697  -0.97508
 Alpha  occ. eigenvalues --   -0.94817  -0.90748  -0.88904  -0.85957  -0.77587
 Alpha  occ. eigenvalues --   -0.76717  -0.71256
 Alpha virt. eigenvalues --   -0.58251  -0.55453  -0.54010  -0.38674  -0.33301
 Alpha virt. eigenvalues --   -0.30240  -0.28365  -0.26538  -0.25760  -0.25352
 Alpha virt. eigenvalues --   -0.23827  -0.22991  -0.21642  -0.20545  -0.20270

  Beta  occ. eigenvalues --  -10.77700 -10.73331 -10.71526 -10.70545 -10.70252
  Beta  occ. eigenvalues --   -1.34972  -1.22152  -1.12578  -1.09191  -0.95612
  Beta  occ. eigenvalues --   -0.93503  -0.89043  -0.88017  -0.83452  -0.76589
  Beta virt. eigenvalues --   -0.65117  -0.56741  -0.55100  -0.54335  -0.49677
  Beta virt. eigenvalues --   -0.35115  -0.32911  -0.29290  -0.27866  -0.26206
  Beta virt. eigenvalues --   -0.25086  -0.24810  -0.23469  -0.21594  -0.21000

 Mulliken charges and spin densities:
               1          2
     1  C   -0.086612   0.317174
     2  H    0.309889   0.017800
     3  H    0.269949   0.044451
     4  C    0.448979   1.297176
     5  C    0.929217   0.023423
     6  C    0.063418   0.141324
     7  C   -0.502560   0.160663
     8  H    0.281182   0.002286
     9  H    0.286538  -0.004297
 Sum of Mulliken charges =   2.00000   2.00000

 Dipole moment (field-independent basis, Debye):
    X=              1.6854    Y=             -2.5188    Z=             -0.0000  Tot=              3.0307
 Quadrupole moment (field-independent basis, Debye-Ang):
   XX=             -9.6462   YY=              2.7369   ZZ=            -24.8352
   XY=              9.8650   XZ=              0.0000   YZ=              0.0000

  Exact polarizability:  50.110   9.343  73.139   0.000   0.000  27.022
 Approx polarizability:  87.283   5.645 107.665  -0.000   0.000  41.395

 ******    1 imaginary frequencies (negative Signs) ******

                      1                      2                      3
                     A"                     A'                     A'
 Frequencies --   -177.9379               180.6820               224.4583
 Red. masses --      1.6570                 2.8326                 5.0619
 Frc consts  --      0.0309                 0.0545                 0.1503
 IR Inten    --      0.8191                 1.2033                13.3985

                      4                      5                      6
                     A"                     A'                     A"
 Frequencies --    269.7085               431.8091               479.6739
 Red. masses --      2.3568                 3.4326                 2.0584
 Frc consts  --      0.1010                 0.3771                 0.2790
 IR Inten    --      3.7480                 8.8077                 0.2904

                      7                      8                      9
                     A"                     A'                     A'
 Frequencies --    617.2820               748.6869               855.3201
 Red. masses --      1.3034                 4.1926                 1.6622
 Frc consts  --      0.2926                 1.3846                 0.7165
 IR Inten    --      0.1310                10.8464                45.2212

                     10                     11                     12
                     A'                     A"                     A"
 Frequencies --    995.6903              1053.4533              1082.4122
 Red. masses --      1.4918                 1.3621                 1.3641
 Frc consts  --      0.8714                 0.8906                 0.9416
 IR Inten    --      9.0752                17.9741                24.5586

                     13                     14                     15
                     A'                     A'                     A'
 Frequencies --   1234.4816              1357.7024              1430.9370
 Red. masses --      3.9645                 4.1401                 1.1783
 Frc consts  --      3.5597                 4.4964                 1.4215
 IR Inten    --    114.2796               221.8213                 5.9046

                     16                     17                     18
                     A'                     A'                     A'
 Frequencies --   1434.8335              1595.0105              2948.9879
 Red. masses --      1.2826                10.3666                 1.0623
 Frc consts  --      1.5557                15.5386                 5.4431
 IR Inten    --     25.6691                69.0639               224.9582

                     19                     20                     21
                     A'                     A'                     A'
 Frequencies --   3013.1030              3082.0510              3118.3495
 Red. masses --      1.0516                 1.1084                 1.1198
 Frc consts  --      5.6253                 6.2034                 6.4155
 IR Inten    --    125.3961               131.2244                99.5031

 - Thermochemistry -
 -------------------
 Temperature   298.150 Kelvin.  Pressure   1.00000 Atm.
 Atom     1 has atomic number  6 and mass  12.00000

 Molecular mass:    64.03130 amu.
 Principal axes and moments of inertia in atomic units:
                           1         2         3
     Eigenvalues --   117.58054 506.42307 624.00360
           X            0.34913   0.93707   0.00000
           Y            0.93707  -0.34913   0.00000
           Z            0.00000   0.00000   1.00000
 This molecule is an asymmetric top.
 Rotational symmetry number  1.
 Rotational temperatures (Kelvin)      0.73663     0.17103     0.13880
 Rotational constants (GHZ):          15.34898     3.56370     2.89220
    1 imaginary frequencies ignored.
 Zero-point vibrational energy     156439.4 (Joules/Mol)
                                   37.38992 (Kcal/Mol)
 Warning -- explicit consideration of   6 degrees of freedom as
           vibrations may cause significant error
 Vibrational temperatures:    259.96   322.95   388.05   621.28   690.14
          (Kelvin)            888.13  1077.19  1230.61  1432.57  1515.68
                             1557.35  1776.14  1953.43  2058.80  2064.40
                             2294.86  4242.93  4335.18  4434.38  4486.60

 Zero-point correction=                           0.059585 (Hartree/Particle)
 Thermal correction to Energy=                    0.064954
 Thermal correction to Enthalpy=                  0.065898
 Thermal correction to Gibbs Free Energy=         0.030607
 Sum of electronic and zero-point Energies=           -191.773573
 Sum of electronic and thermal Energies=              -191.768204
 Sum of electronic and thermal Enthalpies=            -191.767260
 Sum of electronic and thermal Free Energies=         -191.802550

                     E (Thermal)             CV                S
                      KCal/Mol        Cal/Mol-Kelvin    Cal/Mol-Kelvin
 Total                   40.759             17.903             74.275
 Electronic               0.000              0.000              2.183
 Translational            0.889              2.981             38.389
 Rotational               0.889              2.981             25.122
 Vibrational             38.982             11.941              8.581
 Vibration     1          0.630              1.866              2.321
 Vibration     2          0.649              1.804              1.923
 Vibration     3          0.674              1.729              1.598
 Vibration     4          0.793              1.401              0.853
 Vibration     5          0.836              1.295              0.711
 Vibration     6          0.977              0.995              0.421

 Optimization completed.
    -- Stationary point found.
 Normal termination of Gaussian 09 at Mon Jun 20 11:51:19 2016.
