 Gaussian 09, Revision E.01,
 Gaussian 09:  EM64L-G09RevE.01 30-Nov-2015

 ---------------------------------------------
 #p b3lyp/6-311++G(3df,2p) freq symmetry=Loose
 ---------------------------------------------

 ---------
 b3lyp opt
 ---------
 Symbolic Z-matrix:
 Charge =  2 Multiplicity = 1

                         Standard orientation:
 ---------------------------------------------------------------------
 Center     Atomic      Atomic             Coordinates (Angstroms)
 Number     Number       Type             X           Y           Z
 ---------------------------------------------------------------------
      1          6           0        0.000000    0.356099   -0.000000
      2          1           0       -1.686394   -1.107188    0.000000
      3          6           0       -0.556401   -0.985963    0.000000
      4          6           0       -0.214475   -2.194482    0.000000
      5          1           0       -0.056350   -3.273994    0.000000
      6          6           0        0.426875    1.450599   -0.684438
      7          1           0        0.622739    1.960040   -1.624575
      8          6           0        0.426875    1.450599    0.684438
      9          1           0        0.622739    1.960040    1.624575
 ---------------------------------------------------------------------

 SCF Done:  E(RB3LYP) =  -192.014650251     A.U. after   12 cycles

 The electronic state is 1-A'.
 Alpha  occ. eigenvalues --  -10.74812 -10.71554 -10.68874 -10.68685 -10.68622
 Alpha  occ. eigenvalues --   -1.40451  -1.29224  -1.10959  -1.02628  -1.00455
 Alpha  occ. eigenvalues --   -0.97418  -0.93885  -0.84621  -0.83258  -0.82426
 Alpha  occ. eigenvalues --   -0.76428
 Alpha virt. eigenvalues --   -0.57194  -0.48021  -0.46301  -0.45771  -0.32791
 Alpha virt. eigenvalues --   -0.29413  -0.28143  -0.27956  -0.27044  -0.26328
 Alpha virt. eigenvalues --   -0.25306  -0.23759  -0.22304  -0.21809  -0.19580

 Mulliken charges:
               1
     1  C    0.077066
     2  H    0.260356
     3  C   -0.063773
     4  C    0.157499
     5  H    0.427207
     6  C    0.211045
     7  H    0.359778
     8  C    0.211045
     9  H    0.359778
 Sum of Mulliken charges =   2.00000

 Dipole moment (field-independent basis, Debye):
    X=             -0.5334    Y=             -2.4742    Z=              0.0000  Tot=              2.5311
 Quadrupole moment (field-independent basis, Debye-Ang):
   XX=            -18.3081   YY=             14.5486   ZZ=            -18.2894
   XY=              7.3878   XZ=             -0.0000   YZ=             -0.0000

  Exact polarizability:  29.868   5.263  59.973   0.000   0.000  34.009
 Approx polarizability:  47.315   3.134  93.108  -0.000  -0.000  51.542

 ******    1 imaginary frequencies (negative Signs) ******

                      1                      2                      3
                     A"                     A'                     A"
 Frequencies --    -97.1493               174.3396               299.6271
 Red. masses --      1.8814                 2.9862                 2.0647
 Frc consts  --      0.0105                 0.0535                 0.1092
 IR Inten    --      0.9448                20.4679                31.4577

                      4                      5                      6
                     A'                     A"                     A"
 Frequencies --    415.9371               611.9900               679.1632
 Red. masses --      2.5865                 2.0412                 1.4427
 Frc consts  --      0.2636                 0.4504                 0.3921
 IR Inten    --      2.9095                57.6139                26.3559

                      7                      8                      9
                     A'                     A'                     A'
 Frequencies --    687.0628               837.2565               950.2508
 Red. masses --      4.0119                 1.1605                 1.4274
 Frc consts  --      1.1158                 0.4793                 0.7594
 IR Inten    --      8.9365                33.6084                 9.4068

                     10                     11                     12
                     A'                     A"                     A"
 Frequencies --    974.8066              1012.5126              1038.3774
 Red. masses --      1.2189                 1.4219                 1.3671
 Frc consts  --      0.6824                 0.8588                 0.8685
 IR Inten    --     41.1114                 0.0050                10.4497

                     13                     14                     15
                     A'                     A'                     A"
 Frequencies --   1042.3563              1293.0686              1302.8756
 Red. masses --      1.4239                 7.5315                 7.1445
 Frc consts  --      0.9115                 7.4195                 7.1454
 IR Inten    --      3.7853                47.7311                46.4532

                     16                     17                     18
                     A'                     A'                     A'
 Frequencies --   1728.7925              1907.5626              2711.3535
 Red. masses --      6.0138                 6.1506                 1.0725
 Frc consts  --     10.5897                13.1864                 4.6454
 IR Inten    --     30.8098                80.9764               285.8027

                     19                     20                     21
                     A"                     A'                     A'
 Frequencies --   3176.1149              3184.6248              3208.8940
 Red. masses --      1.1038                 1.1477                 1.1477
 Frc consts  --      6.5607                 6.8580                 6.9626
 IR Inten    --    185.5161               354.0021                68.0252

 - Thermochemistry -
 -------------------
 Temperature   298.150 Kelvin.  Pressure   1.00000 Atm.
 Atom     1 has atomic number  6 and mass  12.00000

 Molecular mass:    64.03130 amu.
 Principal axes and moments of inertia in atomic units:
                           1         2         3
     Eigenvalues --    76.83656 548.31622 589.77283
           X            0.22596   0.00000   0.97414
           Y            0.97414   0.00000  -0.22596
           Z           -0.00000   1.00000  -0.00000
 This molecule is an asymmetric top.
 Rotational symmetry number  1.
 Rotational temperatures (Kelvin)      1.12725     0.15796     0.14686
 Rotational constants (GHZ):          23.48805     3.29142     3.06006
    1 imaginary frequencies ignored.
 Zero-point vibrational energy     162913.2 (Joules/Mol)
                                   38.93720 (Kcal/Mol)
 Warning -- explicit consideration of   4 degrees of freedom as
           vibrations may cause significant error
 Vibrational temperatures:    250.84   431.10   598.44   880.52   977.16
          (Kelvin)            988.53  1204.62  1367.20  1402.53  1456.78
                             1493.99  1499.72  1860.44  1874.55  2487.34
                             2744.55  3901.03  4569.72  4581.96  4616.88

 Zero-point correction=                           0.062050 (Hartree/Particle)
 Thermal correction to Energy=                    0.066870
 Thermal correction to Enthalpy=                  0.067814
 Thermal correction to Gibbs Free Energy=         0.034738
 Sum of electronic and zero-point Energies=           -191.952600
 Sum of electronic and thermal Energies=              -191.947781
 Sum of electronic and thermal Enthalpies=            -191.946837
 Sum of electronic and thermal Free Energies=         -191.979912

                     E (Thermal)             CV                S
                      KCal/Mol        Cal/Mol-Kelvin    Cal/Mol-Kelvin
 Total                   41.961             16.491             69.614
 Electronic               0.000              0.000              0.000
 Translational            0.889              2.981             38.389
 Rotational               0.889              2.981             24.722
 Vibrational             40.184             10.529              6.502
 Vibration     1          0.627              1.874              2.388
 Vibration     2          0.692              1.674              1.419
 Vibration     3          0.779              1.436              0.906
 Vibration     4          0.971              1.006              0.429

 Optimization completed.
    -- Stationary point found.
 Normal termination of Gaussian 09 at Mon Jun 20 11:47:32 2016.
