 Gaussian 09, Revision E.01,
 Gaussian 09:  EM64L-G09RevE.01 30-Nov-2015

 ---------------------------------------------
 #p b3lyp/6-311++G(3df,2p) freq symmetry=Loose
 ---------------------------------------------

 ---------
 b3lyp opt
 ---------
 Symbolic Z-matrix:
 Charge =  2 Multiplicity = 3

                         Standard orientation:
 ---------------------------------------------------------------------
 Center     Atomic      Atomic             Coordinates (Angstroms)
 Number     Number       Type             X           Y           Z
 ---------------------------------------------------------------------
      1          6           0        0.900205    1.823408   -0.000000
      2          1           0        1.979494    1.669769   -0.000000
      3          1           0        0.500676    2.840981   -0.000000
      4          6           0        0.000000    0.739861   -0.000000
      5          6           0       -0.277813   -0.685826    0.000000
      6          6           0       -1.287124    0.250791    0.000000
      7          6           0        0.150279   -2.028033    0.000000
      8          1           0       -0.601821   -2.821173    0.000000
      9          1           0        1.208371   -2.290778    0.000000
 ---------------------------------------------------------------------

 SCF Done:  E(UB3LYP) =  -191.908394304     A.U. after   13 cycles

 The electronic state is 3-A".
 Alpha  occ. eigenvalues --  -10.75067 -10.73001 -10.72967 -10.71856 -10.71854
 Alpha  occ. eigenvalues --   -1.42255  -1.23816  -1.21325  -0.99940  -0.99541
 Alpha  occ. eigenvalues --   -0.94482  -0.91101  -0.88713  -0.87697  -0.84663
 Alpha  occ. eigenvalues --   -0.74368  -0.74153
 Alpha virt. eigenvalues --   -0.62737  -0.44789  -0.43353  -0.33856  -0.33516
 Alpha virt. eigenvalues --   -0.28426  -0.27678  -0.26901  -0.25842  -0.25298
 Alpha virt. eigenvalues --   -0.25196  -0.22177  -0.20760  -0.20272  -0.19780

  Beta  occ. eigenvalues --  -10.73650 -10.72481 -10.72448 -10.71293 -10.71291
  Beta  occ. eigenvalues --   -1.40828  -1.21364  -1.19217  -0.98580  -0.97180
  Beta  occ. eigenvalues --   -0.92969  -0.90211  -0.85985  -0.84166  -0.83523
  Beta virt. eigenvalues --   -0.64416  -0.59721  -0.57787  -0.41782  -0.39646
  Beta virt. eigenvalues --   -0.32889  -0.32099  -0.28099  -0.27305  -0.25492
  Beta virt. eigenvalues --   -0.25226  -0.24718  -0.24701  -0.21924  -0.19916

 Mulliken charges and spin densities:
               1          2
     1  C   -0.154860   0.323487
     2  H    0.296846  -0.005503
     3  H    0.305300   0.004333
     4  C    0.478876   0.282913
     5  C    0.478983   0.283323
     6  C    0.147608   0.788822
     7  C   -0.154924   0.323793
     8  H    0.305238   0.004332
     9  H    0.296932  -0.005501
 Sum of Mulliken charges =   2.00000   2.00000

 Dipole moment (field-independent basis, Debye):
    X=              2.0374    Y=             -0.3971    Z=             -0.0000  Tot=              2.0758
 Quadrupole moment (field-independent basis, Debye-Ang):
   XX=            -14.5098   YY=             10.7214   ZZ=            -24.1520
   XY=              5.1046   XZ=             -0.0000   YZ=             -0.0000

  Exact polarizability:  45.536  10.891  99.365  -0.000   0.000  25.384
 Approx polarizability:  75.969  20.287 176.230  -0.000  -0.000  38.406

 ******    1 imaginary frequencies (negative Signs) ******

                      1                      2                      3
                     A"                     A'                     A"
 Frequencies --   -384.0894               230.1435               283.3716
 Red. masses --      1.1120                 2.7306                 1.2308
 Frc consts  --      0.0967                 0.0852                 0.0582
 IR Inten    --      2.1948                 8.7834                 0.0002

                      4                      5                      6
                     A"                     A'                     A"
 Frequencies --    301.9702               448.6633               496.8940
 Red. masses --      4.6528                 3.0132                 2.7839
 Frc consts  --      0.2500                 0.3574                 0.4050
 IR Inten    --     11.3132                 0.6534                 0.0000

                      7                      8                      9
                     A'                     A'                     A'
 Frequencies --    724.8824               863.0507              1002.4111
 Red. masses --      3.4937                 4.7551                 1.7059
 Frc consts  --      1.0816                 2.0868                 1.0099
 IR Inten    --     31.8558                13.2079                 1.5141

                     10                     11                     12
                     A'                     A"                     A"
 Frequencies --   1056.7745              1078.3448              1088.9665
 Red. masses --      1.6350                 1.3480                 1.3859
 Frc consts  --      1.0758                 0.9236                 0.9683
 IR Inten    --     10.6571                27.6522                 0.0066

                     13                     14                     15
                     A'                     A'                     A'
 Frequencies --   1196.3905              1408.3127              1450.1238
 Red. masses --      4.8806                 1.8157                 1.1441
 Frc consts  --      4.1159                 2.1217                 1.4175
 IR Inten    --     51.2694               478.3908                14.6301

                     16                     17                     18
                     A'                     A'                     A'
 Frequencies --   1471.8378              1659.7094              3057.9607
 Red. masses --      2.2252                11.4135                 1.0551
 Frc consts  --      2.8401                18.5240                 5.8131
 IR Inten    --    194.9627                 6.8977               352.6448

                     19                     20                     21
                     A'                     A'                     A'
 Frequencies --   3062.3167              3181.0695              3181.9779
 Red. masses --      1.0524                 1.1242                 1.1241
 Frc consts  --      5.8147                 6.7028                 6.7055
 IR Inten    --     22.7696                21.8032               135.5292

 - Thermochemistry -
 -------------------
 Temperature   298.150 Kelvin.  Pressure   1.00000 Atm.
 Atom     1 has atomic number  6 and mass  12.00000

 Molecular mass:    64.03130 amu.
 Principal axes and moments of inertia in atomic units:
                           1         2         3
     Eigenvalues --   118.40434 464.26134 582.66569
           X            0.19111   0.98157   0.00000
           Y            0.98157  -0.19111   0.00000
           Z           -0.00000  -0.00000   1.00000
 This molecule is an asymmetric top.
 Rotational symmetry number  1.
 Rotational temperatures (Kelvin)      0.73151     0.18656     0.14865
 Rotational constants (GHZ):          15.24219     3.88734     3.09739
    1 imaginary frequencies ignored.
 Zero-point vibrational energy     162962.3 (Joules/Mol)
                                   38.94893 (Kcal/Mol)
 Warning -- explicit consideration of   5 degrees of freedom as
           vibrations may cause significant error
 Vibrational temperatures:    331.12   407.71   434.47   645.53   714.92
          (Kelvin)           1042.94  1241.74  1442.24  1520.46  1551.50
                             1566.78  1721.34  2026.25  2086.40  2117.64
                             2387.95  4399.72  4405.99  4576.84  4578.15

 Zero-point correction=                           0.062069 (Hartree/Particle)
 Thermal correction to Energy=                    0.067090
 Thermal correction to Enthalpy=                  0.068034
 Thermal correction to Gibbs Free Energy=         0.033519
 Sum of electronic and zero-point Energies=           -191.846325
 Sum of electronic and thermal Energies=              -191.841305
 Sum of electronic and thermal Enthalpies=            -191.840360
 Sum of electronic and thermal Free Energies=         -191.874875

                     E (Thermal)             CV                S
                      KCal/Mol        Cal/Mol-Kelvin    Cal/Mol-Kelvin
 Total                   42.099             16.894             72.643
 Electronic               0.000              0.000              2.183
 Translational            0.889              2.981             38.389
 Rotational               0.889              2.981             24.975
 Vibrational             40.322             10.932              7.096
 Vibration     1          0.652              1.795              1.878
 Vibration     2          0.682              1.704              1.513
 Vibration     3          0.694              1.670              1.406
 Vibration     4          0.808              1.364              0.800
 Vibration     5          0.852              1.257              0.666

 Optimization completed.
    -- Stationary point found.
 Normal termination of Gaussian 09 at Mon Jun 20 11:51:03 2016.
