 Gaussian 09, Revision E.01,
 Gaussian 09:  EM64L-G09RevE.01 30-Nov-2015

 ---------------------------------------------
 #p b3lyp/6-311++G(3df,2p) freq symmetry=Loose
 ---------------------------------------------

 ---------
 b3lyp opt
 ---------
 Symbolic Z-matrix:
 Charge =  1 Multiplicity = 2

                         Standard orientation:
 ---------------------------------------------------------------------
 Center     Atomic      Atomic             Coordinates (Angstroms)
 Number     Number       Type             X           Y           Z
 ---------------------------------------------------------------------
      1          6           0        0.859715    1.809218    0.000000
      2          1           0        1.932754    1.664756    0.000000
      3          1           0        0.474022    2.823759    0.000000
      4          6           0        0.000000    0.783879    0.000000
      5          6           0       -0.278329   -0.732787    0.000000
      6          6           0       -1.252905    0.229926    0.000000
      7          6           0        0.161101   -1.996567    0.000000
      8          1           0       -0.559746   -2.807792    0.000000
      9          1           0        1.215475   -2.242749    0.000000
 ---------------------------------------------------------------------

 SCF Done:  E(UB3LYP) =  -192.478591476     A.U. after   15 cycles

 The electronic state is 2-A'.
 Alpha  occ. eigenvalues --  -10.50095 -10.46532 -10.46513 -10.44423 -10.44420
 Alpha  occ. eigenvalues --   -1.16579  -0.99858  -0.97139  -0.76713  -0.75189
 Alpha  occ. eigenvalues --   -0.71064  -0.68448  -0.63857  -0.63673  -0.62119
 Alpha  occ. eigenvalues --   -0.49544  -0.48625
 Alpha virt. eigenvalues --   -0.37835  -0.19258  -0.17981  -0.15582  -0.14072
 Alpha virt. eigenvalues --   -0.12114  -0.10770  -0.09274  -0.08953  -0.08846
 Alpha virt. eigenvalues --   -0.06976  -0.06448  -0.05076  -0.04032  -0.03852

  Beta  occ. eigenvalues --  -10.48898 -10.46205 -10.46189 -10.44447 -10.44443
  Beta  occ. eigenvalues --   -1.15240  -0.99491  -0.96796  -0.76026  -0.73676
  Beta  occ. eigenvalues --   -0.69905  -0.67894  -0.63102  -0.61299  -0.59676
  Beta  occ. eigenvalues --   -0.49546
  Beta virt. eigenvalues --   -0.37256  -0.36231  -0.17968  -0.17798  -0.15398
  Beta virt. eigenvalues --   -0.12993  -0.11809  -0.10516  -0.09190  -0.08904
  Beta virt. eigenvalues --   -0.08660  -0.06796  -0.06221  -0.05115  -0.03727

 Mulliken charges and spin densities:
               1          2
     1  C   -0.328594  -0.010351
     2  H    0.236860   0.009966
     3  H    0.242156   0.023029
     4  C    0.405742   0.111091
     5  C    0.405942   0.111123
     6  C   -0.112108   0.732306
     7  C   -0.329058  -0.010160
     8  H    0.242147   0.023025
     9  H    0.236914   0.009971
 Sum of Mulliken charges =   1.00000   1.00000

 Dipole moment (field-independent basis, Debye):
    X=              1.6044    Y=             -0.2941    Z=              0.0000  Tot=              1.6312
 Quadrupole moment (field-independent basis, Debye-Ang):
   XX=            -21.6964   YY=             -6.9662   ZZ=            -28.0230
   XY=              2.7982   XZ=              0.0000   YZ=              0.0000

  Exact polarizability:  52.155   9.701 103.220   0.000   0.000  30.472
 Approx polarizability:  91.643  28.922 243.861  -0.000  -0.000  45.217

 ******    1 imaginary frequencies (negative Signs) ******

                      1                      2                      3
                     A"                     A'                     A"
 Frequencies --   -272.1542               218.9587               296.2720
 Red. masses --      1.0962                 2.6572                 5.3325
 Frc consts  --      0.0478                 0.0751                 0.2758
 IR Inten    --      2.4663                 4.9940                 7.2241

                      4                      5                      6
                     A"                     A'                     A"
 Frequencies --    320.9882               420.3844               622.9240
 Red. masses --      2.1433                 2.9324                 1.4484
 Frc consts  --      0.1301                 0.3053                 0.3311
 IR Inten    --      0.0003                 0.2116                 0.0000

                      7                      8                      9
                     A'                     A'                     A"
 Frequencies --    630.0643               952.2972              1010.0262
 Red. masses --      4.0435                 3.3313                 1.3553
 Frc consts  --      0.9457                 1.7800                 0.8146
 IR Inten    --     37.4910                10.5558                 0.2137

                     10                     11                     12
                     A'                     A"                     A'
 Frequencies --   1013.3047              1014.4845              1051.7805
 Red. masses --      1.6100                 1.3291                 1.8937
 Frc consts  --      0.9740                 0.8059                 1.2343
 IR Inten    --      9.0309                52.2571                 0.4671

                     13                     14                     15
                     A'                     A'                     A'
 Frequencies --   1153.9687              1431.1001              1457.8136
 Red. masses --      4.5450                 1.2325                 1.1873
 Frc consts  --      3.5659                 1.4872                 1.4866
 IR Inten    --     33.6294               196.2284                13.7271

                     16                     17                     18
                     A'                     A'                     A'
 Frequencies --   1581.2437              1741.8535              3124.3760
 Red. masses --      5.8427                10.3811                 1.0560
 Frc consts  --      8.6072                18.5573                 6.0733
 IR Inten    --    479.6165                 0.2509                20.3410

                     19                     20                     21
                     A'                     A'                     A'
 Frequencies --   3125.1399              3228.2425              3228.5835
 Red. masses --      1.0571                 1.1182                 1.1184
 Frc consts  --      6.0829                 6.8658                 6.8685
 IR Inten    --     55.2632                 7.0339                30.1879

 - Thermochemistry -
 -------------------
 Temperature   298.150 Kelvin.  Pressure   1.00000 Atm.
 Atom     1 has atomic number  6 and mass  12.00000

 Molecular mass:    64.03130 amu.
 Principal axes and moments of inertia in atomic units:
                           1         2         3
     Eigenvalues --   112.24809 459.13864 571.38673
           X            0.18055   0.98357   0.00000
           Y            0.98357  -0.18055   0.00000
           Z            0.00000  -0.00000   1.00000
 This molecule is an asymmetric top.
 Rotational symmetry number  1.
 Rotational temperatures (Kelvin)      0.77163     0.18864     0.15159
 Rotational constants (GHZ):          16.07815     3.93071     3.15853
    1 imaginary frequencies ignored.
 Zero-point vibrational energy     165227.1 (Joules/Mol)
                                   39.49021 (Kcal/Mol)
 Warning -- explicit consideration of   4 degrees of freedom as
           vibrations may cause significant error
 Vibrational temperatures:    315.03   426.27   461.83   604.84   896.25
          (Kelvin)            906.52  1370.14  1453.20  1457.92  1459.62
                             1513.28  1660.30  2059.03  2097.47  2275.05
                             2506.14  4495.27  4496.37  4644.72  4645.21

 Zero-point correction=                           0.062932 (Hartree/Particle)
 Thermal correction to Energy=                    0.067915
 Thermal correction to Enthalpy=                  0.068859
 Thermal correction to Gibbs Free Energy=         0.034830
 Sum of electronic and zero-point Energies=           -192.415660
 Sum of electronic and thermal Energies=              -192.410677
 Sum of electronic and thermal Enthalpies=            -192.409733
 Sum of electronic and thermal Free Energies=         -192.443762

                     E (Thermal)             CV                S
                      KCal/Mol        Cal/Mol-Kelvin    Cal/Mol-Kelvin
 Total                   42.617             16.820             71.620
 Electronic               0.000              0.000              1.377
 Translational            0.889              2.981             38.389
 Rotational               0.889              2.981             24.891
 Vibrational             40.840             10.859              6.962
 Vibration     1          0.647              1.812              1.968
 Vibration     2          0.690              1.681              1.438
 Vibration     3          0.706              1.633              1.305
 Vibration     4          0.783              1.426              0.891

 Optimization completed.
    -- Stationary point found.
 Normal termination of Gaussian 09 at Mon Jun 20 11:36:15 2016.
