 Gaussian 09, Revision E.01,
 Gaussian 09:  EM64L-G09RevE.01 30-Nov-2015

 ---------------------------------------------
 #p b3lyp/6-311++G(3df,2p) freq symmetry=Loose
 ---------------------------------------------

 ---------
 b3lyp opt
 ---------
 Symbolic Z-matrix:
 Charge =  1 Multiplicity = 2

                         Standard orientation:
 ---------------------------------------------------------------------
 Center     Atomic      Atomic             Coordinates (Angstroms)
 Number     Number       Type             X           Y           Z
 ---------------------------------------------------------------------
      1          6           0        0.625007   -1.102657   -0.000992
      2          6           0        1.192911    0.164468   -0.000168
      3          1           0        2.235052    0.453940    0.001813
      4          6           0       -1.192514    0.166518   -0.000011
      5          6           0       -0.627079   -1.101793    0.001071
      6          1           0       -2.234114    0.457944   -0.001976
      7          6           0        0.000994    1.122769    0.000047
      8          1           0        0.001340    1.796385   -0.868194
      9          1           0        0.001800    1.795902    0.868683
 ---------------------------------------------------------------------

 SCF Done:  E(UB3LYP) =  -192.462846014     A.U. after   21 cycles

 The electronic state is 2-A.
 Alpha  occ. eigenvalues --  -10.49197 -10.49193 -10.45432 -10.45274 -10.43283
 Alpha  occ. eigenvalues --   -1.14957  -0.97412  -0.96844  -0.83244  -0.74821
 Alpha  occ. eigenvalues --   -0.73872  -0.69359  -0.65070  -0.64047  -0.58418
 Alpha  occ. eigenvalues --   -0.50620  -0.50580
 Alpha virt. eigenvalues --   -0.36197  -0.32292  -0.15880  -0.15578  -0.12743
 Alpha virt. eigenvalues --   -0.12291  -0.12225  -0.10857  -0.08505  -0.07897
 Alpha virt. eigenvalues --   -0.06819  -0.06082  -0.05619  -0.04565  -0.02505

  Beta  occ. eigenvalues --  -10.48404 -10.48402 -10.45416 -10.45254 -10.43360
  Beta  occ. eigenvalues --   -1.13898  -0.96709  -0.94974  -0.82322  -0.74068
  Beta  occ. eigenvalues --   -0.73540  -0.67702  -0.64637  -0.63507  -0.57391
  Beta  occ. eigenvalues --   -0.50624
  Beta virt. eigenvalues --   -0.39604  -0.35827  -0.27870  -0.15802  -0.13771
  Beta virt. eigenvalues --   -0.12571  -0.12128  -0.12030  -0.10633  -0.08426
  Beta virt. eigenvalues --   -0.07868  -0.06705  -0.05518  -0.05368  -0.04359

 Mulliken charges and spin densities:
               1          2
     1  C    0.325752   0.012589
     2  C   -0.133732   0.552058
     3  H    0.259386  -0.015125
     4  C   -0.134210   0.552122
     5  C    0.324030   0.012693
     6  H    0.259293  -0.015120
     7  C   -0.280549  -0.102932
     8  H    0.190000   0.001859
     9  H    0.190033   0.001856
 Sum of Mulliken charges =   1.00000   1.00000

 Dipole moment (field-independent basis, Debye):
    X=              0.0029    Y=              1.8917    Z=              0.0001  Tot=              1.8917
 Quadrupole moment (field-independent basis, Debye-Ang):
   XX=            -16.7562   YY=            -21.4783   ZZ=            -26.4352
   XY=             -0.0058   XZ=              0.0097   YZ=              0.0003

  Exact polarizability:  61.000  -0.004  51.546  -0.001   0.002  30.788
 Approx polarizability: 137.837  -0.027  85.516  -0.071  -0.001  46.090

 ******    1 imaginary frequencies (negative Signs) ******

                      1                      2                      3
                      A                      A                      A
 Frequencies --   -141.3769               237.2754               336.1292
 Red. masses --      3.1152                 1.6246                10.4011
 Frc consts  --      0.0367                 0.0539                 0.6924
 IR Inten    --      0.0032                 0.0079               131.0254

                      4                      5                      6
                      A                      A                      A
 Frequencies --    591.3131               771.5839               793.3709
 Red. masses --      1.2101                 1.5128                 5.9703
 Frc consts  --      0.2493                 0.5306                 2.2141
 IR Inten    --     18.8589                 0.0035                 1.2832

                      7                      8                      9
                      A                      A                      A
 Frequencies --    871.3514               875.6990               948.2348
 Red. masses --      3.1696                 2.0840                 2.0312
 Frc consts  --      1.4179                 0.9416                 1.0761
 IR Inten    --     12.1691                 1.0425                 3.8019

                     10                     11                     12
                      A                      A                      A
 Frequencies --   1111.3377              1180.0785              1205.8442
 Red. masses --      1.1177                 2.0329                 2.1478
 Frc consts  --      0.8133                 1.6680                 1.8401
 IR Inten    --      0.0008                35.7887                 0.1624

                     13                     14                     15
                      A                      A                      A
 Frequencies --   1237.7737              1303.0127              1320.1220
 Red. masses --      1.8563                 1.9205                 2.0828
 Frc consts  --      1.6756                 1.9211                 2.1386
 IR Inten    --     16.9959                43.9644                20.7246

                     16                     17                     18
                      A                      A                      A
 Frequencies --   1384.3524              1909.7629              2999.2133
 Red. masses --      1.1773                11.1470                 1.0625
 Frc consts  --      1.3294                23.9535                 5.6314
 IR Inten    --     31.6272                22.9727                28.3958

                     19                     20                     21
                      A                      A                      A
 Frequencies --   3019.1916              3209.6389              3216.3700
 Red. masses --      1.0955                 1.0917                 1.0990
 Frc consts  --      5.8838                 6.6259                 6.6986
 IR Inten    --     15.8854                35.2374                 0.2123

 - Thermochemistry -
 -------------------
 Temperature   298.150 Kelvin.  Pressure   1.00000 Atm.
 Atom     1 has atomic number  6 and mass  12.00000

 Molecular mass:    64.03130 amu.
 Principal axes and moments of inertia in atomic units:
                           1         2         3
     Eigenvalues --   189.52483 196.88337 375.55069
           X            1.00000  -0.00125   0.00017
           Y            0.00125   1.00000   0.00001
           Z           -0.00017  -0.00001   1.00000
 This molecule is an asymmetric top.
 Rotational symmetry number  1.
 Rotational temperatures (Kelvin)      0.45701     0.43992     0.23063
 Rotational constants (GHZ):           9.52245     9.16655     4.80559
    1 imaginary frequencies ignored.
 Zero-point vibrational energy     170597.4 (Joules/Mol)
                                   40.77375 (Kcal/Mol)
 Warning -- explicit consideration of   3 degrees of freedom as
           vibrations may cause significant error
 Vibrational temperatures:    341.39   483.61   850.77  1110.14  1141.48
          (Kelvin)           1253.68  1259.93  1364.30  1598.97  1697.87
                             1734.94  1780.88  1874.74  1899.36  1991.77
                             2747.72  4315.19  4343.94  4617.95  4627.63

 Zero-point correction=                           0.064977 (Hartree/Particle)
 Thermal correction to Energy=                    0.069291
 Thermal correction to Enthalpy=                  0.070235
 Thermal correction to Gibbs Free Energy=         0.037659
 Sum of electronic and zero-point Energies=           -192.397869
 Sum of electronic and thermal Energies=              -192.393555
 Sum of electronic and thermal Enthalpies=            -192.392611
 Sum of electronic and thermal Free Energies=         -192.425187

                     E (Thermal)             CV                S
                      KCal/Mol        Cal/Mol-Kelvin    Cal/Mol-Kelvin
 Total                   43.480             14.556             68.562
 Electronic               0.000              0.000              1.377
 Translational            0.889              2.981             38.389
 Rotational               0.889              2.981             24.153
 Vibrational             41.703              8.595              4.642
 Vibration     1          0.656              1.784              1.823
 Vibration     2          0.717              1.603              1.230
 Vibration     3          0.949              1.050              0.465

 Normal termination of Gaussian 09 at Mon Jun 20 11:40:00 2016.
