 Gaussian 09, Revision E.01,
 Gaussian 09:  EM64L-G09RevE.01 30-Nov-2015

 ---------------------------------------------
 #p b3lyp/6-311++G(3df,2p) freq symmetry=Loose
 ---------------------------------------------

 ---------
 b3lyp opt
 ---------
 Symbolic Z-matrix:
 Charge =  1 Multiplicity = 1

                         Standard orientation:
 ---------------------------------------------------------------------
 Center     Atomic      Atomic             Coordinates (Angstroms)
 Number     Number       Type             X           Y           Z
 ---------------------------------------------------------------------
      1          1           0        0.000000   -0.000000    1.064944
      2          6           0        0.000000    0.634904   -0.088745
      3          6           0       -0.000000   -0.634904   -0.088745
 ---------------------------------------------------------------------

 SCF Done:  E(RB3LYP) =  -76.1276794833     A.U. after    9 cycles

 The electronic state is 1-A1.
 Alpha  occ. eigenvalues --  -10.66659 -10.66544  -1.20205  -0.78256  -0.74911
 Alpha  occ. eigenvalues --   -0.67422
 Alpha virt. eigenvalues --   -0.59495  -0.35465  -0.33056  -0.25446  -0.13111
 Alpha virt. eigenvalues --   -0.12147  -0.11889  -0.11680  -0.06990  -0.05116
 Alpha virt. eigenvalues --   -0.04536  -0.03983   0.00388   0.00765   0.09164

 Mulliken charges:
               1
     1  H    0.301777
     2  C    0.349112
     3  C    0.349112
 Sum of Mulliken charges =   1.00000

 Dipole moment (field-independent basis, Debye):
    X=             -0.0000    Y=             -0.0000    Z=              0.9131  Tot=              0.9131
 Quadrupole moment (field-independent basis, Debye-Ang):
   XX=            -10.7116   YY=             -5.6519   ZZ=             -7.5337
   XY=             -0.0000   XZ=              0.0000   YZ=             -0.0000

  Exact polarizability:  27.036  -0.000  26.850   0.000   0.000  16.280
 Approx polarizability:  24.072   0.000 115.347   0.000  -0.000  24.399

 ******    1 imaginary frequencies (negative Signs) ******

                      1                      2                      3
                     B2                     A1                     A1
 Frequencies --   -339.9324              1797.0454              2220.9961
 Red. masses --      1.1721                11.7330                 1.0485
 Frc consts  --      0.0798                22.3244                 3.0474
 IR Inten    --      6.4342                 0.3077                46.2318

 - Thermochemistry -
 -------------------
 Temperature   298.150 Kelvin.  Pressure   1.00000 Atm.
 Atom     1 has atomic number  1 and mass   1.00783

 Molecular mass:    25.00783 amu.
 Principal axes and moments of inertia in atomic units:
                           1         2         3
     Eigenvalues --     4.59722  34.54817  39.14540
           X            0.00000   0.00000   1.00000
           Y            1.00000   0.00000  -0.00000
           Z            0.00000   1.00000   0.00000
 This molecule is an asymmetric top.
 Rotational symmetry number  2.
 Rotational temperatures (Kelvin)     18.84046     2.50704     2.21262
 Rotational constants (GHZ):         392.57192    52.23840    46.10353
    1 imaginary frequencies ignored.
 Zero-point vibrational energy      24033.2 (Joules/Mol)
                                    5.74408 (Kcal/Mol)
 Vibrational temperatures:   2585.54  3195.51
          (Kelvin)

 Zero-point correction=                           0.009154 (Hartree/Particle)
 Thermal correction to Energy=                    0.011988
 Thermal correction to Enthalpy=                  0.012932
 Thermal correction to Gibbs Free Energy=        -0.011155
 Sum of electronic and zero-point Energies=            -76.118526
 Sum of electronic and thermal Energies=               -76.115692
 Sum of electronic and thermal Enthalpies=             -76.114747
 Sum of electronic and thermal Free Energies=          -76.138834

                     E (Thermal)             CV                S
                      KCal/Mol        Cal/Mol-Kelvin    Cal/Mol-Kelvin
 Total                    7.523              5.992             50.695
 Electronic               0.000              0.000              0.000
 Translational            0.889              2.981             35.587
 Rotational               0.889              2.981             15.105
 Vibrational              5.745              0.031              0.004

 Optimization completed.
    -- Stationary point found.
 Normal termination of Gaussian 09 at Mon Jun 20 11:59:57 2016.
