 Gaussian 09, Revision E.01,
 Gaussian 09:  EM64L-G09RevE.01 30-Nov-2015

 ---------------------------------------------
 #p b3lyp/6-311++G(3df,2p) freq symmetry=Loose
 ---------------------------------------------

 ---------
 b3lyp opt
 ---------
 Symbolic Z-matrix:
 Charge =  2 Multiplicity = 4

                         Standard orientation:
 ---------------------------------------------------------------------
 Center     Atomic      Atomic             Coordinates (Angstroms)
 Number     Number       Type             X           Y           Z
 ---------------------------------------------------------------------
      1          1           0        0.000000   -0.000000    1.206740
      2          6           0        0.000000    0.643916   -0.100562
      3          6           0       -0.000000   -0.643916   -0.100562
 ---------------------------------------------------------------------

 SCF Done:  E(UB3LYP) =  -75.3392268846     A.U. after   11 cycles

 The electronic state is 4-A2.
 Alpha  occ. eigenvalues --  -11.09805 -11.09683  -1.59899  -1.18706  -1.14222
 Alpha  occ. eigenvalues --   -1.09220  -1.08838
 Alpha virt. eigenvalues --   -0.74724  -0.73955  -0.62662  -0.35729  -0.33060
 Alpha virt. eigenvalues --   -0.31913  -0.31749  -0.28098  -0.27102  -0.27090
 Alpha virt. eigenvalues --   -0.22535  -0.22140  -0.21279  -0.13106  -0.13032

  Beta  occ. eigenvalues --  -11.06139 -11.06044  -1.52122  -1.10878
  Beta virt. eigenvalues --   -0.92652  -0.89501  -0.82209  -0.66084  -0.60945
  Beta virt. eigenvalues --   -0.59908  -0.33838  -0.31671  -0.31629  -0.29640
  Beta virt. eigenvalues --   -0.26842  -0.25544  -0.22705  -0.20829  -0.20669

 Mulliken charges and spin densities:
               1          2
     1  H    0.388235  -0.067063
     2  C    0.805882   1.533531
     3  C    0.805882   1.533531
 Sum of Mulliken charges =   2.00000   3.00000

 Dipole moment (field-independent basis, Debye):
    X=             -0.0000    Y=             -0.0000    Z=              1.4555  Tot=              1.4555
 Quadrupole moment (field-independent basis, Debye-Ang):
   XX=             -7.2556   YY=             -2.5162   ZZ=             -4.1738
   XY=              0.0000   XZ=              0.0000   YZ=              0.0000

  Exact polarizability:   7.848  -0.000  13.055  -0.000   0.000  12.474
 Approx polarizability:  10.077   0.000  25.403   0.000   0.000  17.418

 ******    1 imaginary frequencies (negative Signs) ******

                      1                      2                      3
                     B2                     A1                     A1
 Frequencies --  -1302.8832              1556.5705              1824.8582
 Red. masses --      1.2029                 1.0617                10.3005
 Frc consts  --      1.2030                 1.5157                20.2101
 IR Inten    --      8.1211               350.1911                 0.3330

 - Thermochemistry -
 -------------------
 Temperature   298.150 Kelvin.  Pressure   1.00000 Atm.
 Atom     1 has atomic number  1 and mass   1.00783

 Molecular mass:    25.00783 amu.
 Principal axes and moments of inertia in atomic units:
                           1         2         3
     Eigenvalues --     5.90296  35.53591  41.43887
           X            0.00000   0.00000   1.00000
           Y            1.00000   0.00000  -0.00000
           Z            0.00000   1.00000   0.00000
 This molecule is an asymmetric top.
 Rotational symmetry number  2.
 Rotational temperatures (Kelvin)     14.67294     2.43736     2.09016
 Rotational constants (GHZ):         305.73481    50.78641    43.55189
    1 imaginary frequencies ignored.
 Zero-point vibrational energy      20225.4 (Joules/Mol)
                                    4.83399 (Kcal/Mol)
 Vibrational temperatures:   2239.55  2625.56
          (Kelvin)

 Zero-point correction=                           0.007703 (Hartree/Particle)
 Thermal correction to Energy=                    0.010541
 Thermal correction to Enthalpy=                  0.011485
 Thermal correction to Gibbs Free Energy=        -0.014073
 Sum of electronic and zero-point Energies=            -75.331523
 Sum of electronic and thermal Energies=               -75.328686
 Sum of electronic and thermal Enthalpies=             -75.327742
 Sum of electronic and thermal Free Energies=          -75.353300

                     E (Thermal)             CV                S
                      KCal/Mol        Cal/Mol-Kelvin    Cal/Mol-Kelvin
 Total                    6.615              6.046             53.791
 Electronic               0.000              0.000              2.755
 Translational            0.889              2.981             35.587
 Rotational               0.889              2.981             15.438
 Vibrational              4.837              0.084              0.012

 Optimization completed.
    -- Stationary point found.
 Normal termination of Gaussian 09 at Mon Jun 20 12:00:01 2016.
