 Gaussian 09, Revision E.01,
 Gaussian 09:  EM64L-G09RevE.01 30-Nov-2015

 ---------------------------------------------
 #p b3lyp/6-311++G(3df,2p) freq symmetry=Loose
 ---------------------------------------------

 ---------
 b3lyp opt
 ---------
 Symbolic Z-matrix:
 Charge =  0 Multiplicity = 4

                         Standard orientation:
 ---------------------------------------------------------------------
 Center     Atomic      Atomic             Coordinates (Angstroms)
 Number     Number       Type             X           Y           Z
 ---------------------------------------------------------------------
      1          1           0        0.000000   -0.000000    1.002287
      2          6           0        0.000000    0.744354   -0.083524
      3          6           0       -0.000000   -0.744354   -0.083524
 ---------------------------------------------------------------------

 SCF Done:  E(UB3LYP) =  -76.4337434515     A.U. after   11 cycles

 The electronic state is 4-A2.
 Alpha  occ. eigenvalues --  -10.29106 -10.29081  -0.84215  -0.49196  -0.43902
 Alpha  occ. eigenvalues --   -0.35165  -0.35016  -0.17424
 Alpha virt. eigenvalues --   -0.09445  -0.00421   0.04400   0.05354   0.05863
 Alpha virt. eigenvalues --    0.07187   0.10109   0.10796   0.11067   0.12257
 Alpha virt. eigenvalues --    0.15883   0.22496   0.24860   0.33012   0.34786

  Beta  occ. eigenvalues --  -10.26707 -10.26692  -0.77119  -0.38131  -0.37617
  Beta virt. eigenvalues --   -0.20586  -0.19557  -0.03039  -0.01386   0.00551
  Beta virt. eigenvalues --    0.04955   0.05745   0.06765   0.07899   0.11444
  Beta virt. eigenvalues --    0.11937   0.12259   0.13406   0.16305   0.26779

 Mulliken charges and spin densities:
               1          2
     1  H    0.190164  -0.085032
     2  C   -0.095082   1.542516
     3  C   -0.095082   1.542516
 Sum of Mulliken charges =  -0.00000   3.00000

 Dipole moment (field-independent basis, Debye):
    X=              0.0000    Y=             -0.0000    Z=              0.9567  Tot=              0.9567
 Quadrupole moment (field-independent basis, Debye-Ang):
   XX=            -11.9892   YY=            -14.6730   ZZ=            -13.4257
   XY=             -0.0000   XZ=             -0.0000   YZ=              0.0000

  Exact polarizability:  18.171   0.000  44.336   0.000  -0.000  25.696
 Approx polarizability:  25.876   0.000  85.160   0.000   0.000  32.616

 ******    1 imaginary frequencies (negative Signs) ******

                      1                      2                      3
                     B2                     A1                     A1
 Frequencies --  -1977.6552              1070.8938              2175.5350
 Red. masses --      1.1278                10.6707                 1.0579
 Frc consts  --      2.5988                 7.2100                 2.9502
 IR Inten    --      1.8107                 3.0856                10.4775

 - Thermochemistry -
 -------------------
 Temperature   298.150 Kelvin.  Pressure   1.00000 Atm.
 Atom     1 has atomic number  1 and mass   1.00783

 Molecular mass:    25.00783 amu.
 Principal axes and moments of inertia in atomic units:
                           1         2         3
     Eigenvalues --     4.07218  47.48627  51.55844
           X            0.00000   0.00000   1.00000
           Y            1.00000   0.00000   0.00000
           Z            0.00000   1.00000   0.00000
 This molecule is an asymmetric top.
 Rotational symmetry number  2.
 Rotational temperatures (Kelvin)     21.26966     1.82398     1.67992
 Rotational constants (GHZ):         443.18827    38.00554    35.00379
    1 imaginary frequencies ignored.
 Zero-point vibrational energy      19418.0 (Joules/Mol)
                                    4.64100 (Kcal/Mol)
 Vibrational temperatures:   1540.78  3130.11
          (Kelvin)

 Zero-point correction=                           0.007396 (Hartree/Particle)
 Thermal correction to Energy=                    0.010257
 Thermal correction to Enthalpy=                  0.011201
 Thermal correction to Gibbs Free Energy=        -0.014450
 Sum of electronic and zero-point Energies=            -76.426348
 Sum of electronic and thermal Energies=               -76.423487
 Sum of electronic and thermal Enthalpies=             -76.422543
 Sum of electronic and thermal Free Energies=          -76.448193

                     E (Thermal)             CV                S
                      KCal/Mol        Cal/Mol-Kelvin    Cal/Mol-Kelvin
 Total                    6.436              6.273             53.986
 Electronic               0.000              0.000              2.755
 Translational            0.889              2.981             35.587
 Rotational               0.889              2.981             15.574
 Vibrational              4.659              0.312              0.071

 Optimization completed.
    -- Stationary point found.
 Normal termination of Gaussian 09 at Mon Jun 20 11:52:01 2016.
