 Gaussian 09, Revision E.01,
 Gaussian 09:  EM64L-G09RevE.01 30-Nov-2015

 ---------------------------------------------
 #p b3lyp/6-311++G(3df,2p) freq symmetry=Loose
 ---------------------------------------------

 ---------
 b3lyp opt
 ---------
 Symbolic Z-matrix:
 Charge =  1 Multiplicity = 3

                         Standard orientation:
 ---------------------------------------------------------------------
 Center     Atomic      Atomic             Coordinates (Angstroms)
 Number     Number       Type             X           Y           Z
 ---------------------------------------------------------------------
      1          1           0        0.000000   -0.000000    1.080380
      2          6           0        0.000000    0.671780   -0.090032
      3          6           0       -0.000000   -0.671780   -0.090032
 ---------------------------------------------------------------------

 SCF Done:  E(UB3LYP) =  -76.1574068290     A.U. after   11 cycles

 The electronic state is 3-B1.
 Alpha  occ. eigenvalues --  -10.67100 -10.67020  -1.22699  -0.79581  -0.78307
 Alpha  occ. eigenvalues --   -0.71215  -0.69041
 Alpha virt. eigenvalues --   -0.38810  -0.38164  -0.26904  -0.13737  -0.12358
 Alpha virt. eigenvalues --   -0.12247  -0.11875  -0.07627  -0.05241  -0.04981
 Alpha virt. eigenvalues --   -0.04301  -0.01460  -0.00321   0.04059   0.10887

  Beta  occ. eigenvalues --  -10.65316 -10.65262  -1.16749  -0.76656  -0.70109
  Beta virt. eigenvalues --   -0.55517  -0.53008  -0.35355  -0.30093  -0.25813
  Beta virt. eigenvalues --   -0.12797  -0.12167  -0.11358  -0.11323  -0.06836
  Beta virt. eigenvalues --   -0.05061  -0.04310  -0.03922  -0.00158   0.00865

 Mulliken charges and spin densities:
               1          2
     1  H    0.267941  -0.017407
     2  C    0.366029   1.008703
     3  C    0.366029   1.008703
 Sum of Mulliken charges =   1.00000   2.00000

 Dipole moment (field-independent basis, Debye):
    X=             -0.0000    Y=              0.0000    Z=              0.9281  Tot=              0.9281
 Quadrupole moment (field-independent basis, Debye-Ang):
   XX=             -9.3647   YY=             -8.4757   ZZ=             -7.8578
   XY=             -0.0000   XZ=              0.0000   YZ=              0.0000

  Exact polarizability:  11.929   0.000  32.688  -0.000  -0.000  16.187
 Approx polarizability:  16.955   0.000  66.361   0.000  -0.000  24.120

 ******    1 imaginary frequencies (negative Signs) ******

                      1                      2                      3
                     B2                     A1                     A1
 Frequencies --   -786.6749              1528.8301              2097.5288
 Red. masses --      1.1621                11.1858                 1.0531
 Frc consts  --      0.4237                15.4041                 2.7299
 IR Inten    --      6.0135                 2.8424                77.1207

 - Thermochemistry -
 -------------------
 Temperature   298.150 Kelvin.  Pressure   1.00000 Atm.
 Atom     1 has atomic number  1 and mass   1.00783

 Molecular mass:    25.00783 amu.
 Principal axes and moments of inertia in atomic units:
                           1         2         3
     Eigenvalues --     4.73147  38.67792  43.40939
           X           -0.00000   0.00000   1.00000
           Y            1.00000   0.00000   0.00000
           Z           -0.00000   1.00000   0.00000
 This molecule is an asymmetric top.
 Rotational symmetry number  2.
 Rotational temperatures (Kelvin)     18.30591     2.23936     1.99528
 Rotational constants (GHZ):         381.43382    46.66076    41.57491
    1 imaginary frequencies ignored.
 Zero-point vibrational energy      21690.4 (Joules/Mol)
                                    5.18414 (Kcal/Mol)
 Vibrational temperatures:   2199.64  3017.87
          (Kelvin)

 Zero-point correction=                           0.008261 (Hartree/Particle)
 Thermal correction to Energy=                    0.011099
 Thermal correction to Enthalpy=                  0.012043
 Thermal correction to Gibbs Free Energy=        -0.013201
 Sum of electronic and zero-point Energies=            -76.149145
 Sum of electronic and thermal Energies=               -76.146308
 Sum of electronic and thermal Enthalpies=             -76.145364
 Sum of electronic and thermal Free Energies=          -76.170607

                     E (Thermal)             CV                S
                      KCal/Mol        Cal/Mol-Kelvin    Cal/Mol-Kelvin
 Total                    6.965              6.037             53.129
 Electronic               0.000              0.000              2.183
 Translational            0.889              2.981             35.587
 Rotational               0.889              2.981             15.348
 Vibrational              5.187              0.076              0.011

 Optimization completed.
    -- Stationary point found.
 Normal termination of Gaussian 09 at Mon Jun 20 12:00:02 2016.
