 Gaussian 09, Revision E.01,
 Gaussian 09:  EM64L-G09RevE.01 30-Nov-2015

 ---------------------------------------------
 #p b3lyp/6-311++G(3df,2p) freq symmetry=Loose
 ---------------------------------------------

 ---------
 b3lyp opt
 ---------
 Symbolic Z-matrix:
 Charge =  1 Multiplicity = 1

                         Standard orientation:
 ---------------------------------------------------------------------
 Center     Atomic      Atomic             Coordinates (Angstroms)
 Number     Number       Type             X           Y           Z
 ---------------------------------------------------------------------
      1          1           0        0.000000    0.000000    3.241756
      2          6           0        0.000000    0.000000    2.168223
      3          6           0        0.000000    0.000000    0.955026
      4          6           0        0.000000   -0.000000   -0.387318
      5          6           0        0.000000    0.641860   -1.638112
      6          6           0       -0.000000   -0.641860   -1.638112
 ---------------------------------------------------------------------

 SCF Done:  E(RB3LYP) =  -190.553911502     A.U. after   13 cycles

 The electronic state is 1-A1.
 Alpha  occ. eigenvalues --  -10.58797 -10.50505 -10.50375 -10.50155 -10.46649
 Alpha  occ. eigenvalues --   -1.23032  -1.06776  -0.95436  -0.79528  -0.75312
 Alpha  occ. eigenvalues --   -0.72536  -0.68474  -0.58020  -0.57203  -0.54098
 Alpha virt. eigenvalues --   -0.42878  -0.35455  -0.24031  -0.23258  -0.15337
 Alpha virt. eigenvalues --   -0.14976  -0.13188  -0.10425  -0.10216  -0.10156
 Alpha virt. eigenvalues --   -0.07566  -0.06329  -0.05816  -0.05305  -0.03960

 Mulliken charges:
               1
     1  H    0.381409
     2  C    0.476123
     3  C   -0.175978
     4  C    0.359687
     5  C   -0.020621
     6  C   -0.020621
 Sum of Mulliken charges =   1.00000

 Dipole moment (field-independent basis, Debye):
    X=              0.0000    Y=             -0.0000    Z=              2.5177  Tot=              2.5177
 Quadrupole moment (field-independent basis, Debye-Ang):
   XX=            -25.2397   YY=            -26.2929   ZZ=             -1.3081
   XY=             -0.0000   XZ=             -0.0000   YZ=             -0.0000

  Exact polarizability:  26.255   0.000  39.842  -0.000   0.000  92.961
 Approx polarizability:  38.011   0.000  90.706   0.000  -0.000 238.736

 ******    1 imaginary frequencies (negative Signs) ******

                      1                      2                      3
                     B2                     B1                     B2
 Frequencies --   -375.1707               198.8728               207.3938
 Red. masses --     11.8246                 4.8654                 4.6460
 Frc consts  --      0.9806                 0.1134                 0.1177
 IR Inten    --    231.6655                 6.5246                34.6120

                      4                      5                      6
                     B2                     B1                     A1
 Frequencies --    559.9950               560.3053               779.7566
 Red. masses --      9.3108                10.0274                 8.9412
 Frc consts  --      1.7203                 1.8548                 3.2030
 IR Inten    --      0.0001                 8.7098                 2.5737

                      7                      8                      9
                     B1                     B2                     A1
 Frequencies --    782.4930               810.7518              1552.0928
 Red. masses --      1.2994                 1.3238                10.4299
 Frc consts  --      0.4688                 0.5127                14.8036
 IR Inten    --     24.6165                18.6765               190.1452

                     10                     11                     12
                     A1                     A1                     A1
 Frequencies --   1738.3015              2198.4960              3364.2954
 Red. masses --     11.5929                 6.2066                 1.1690
 Frc consts  --     20.6392                17.6748                 7.7954
 IR Inten    --     52.6316               975.2514               106.4694

 - Thermochemistry -
 -------------------
 Temperature   298.150 Kelvin.  Pressure   1.00000 Atm.
 Atom     1 has atomic number  1 and mass   1.00783

 Molecular mass:    61.00783 amu.
 Principal axes and moments of inertia in atomic units:
                           1         2         3
     Eigenvalues --    35.30934 514.17219 549.48153
           X            0.00000  -0.00000   1.00000
           Y            0.00000   1.00000   0.00000
           Z            1.00000  -0.00000   0.00000
 This molecule is an asymmetric top.
 Rotational symmetry number  2.
 Rotational temperatures (Kelvin)      2.45300     0.16845     0.15763
 Rotational constants (GHZ):          51.11229     3.50999     3.28444
    1 imaginary frequencies ignored.
 Zero-point vibrational energy      76278.4 (Joules/Mol)
                                   18.23098 (Kcal/Mol)
 Warning -- explicit consideration of   4 degrees of freedom as
           vibrations may cause significant error
 Vibrational temperatures:    286.13   298.39   805.71   806.15  1121.89
          (Kelvin)           1125.83  1166.49  2233.11  2501.02  3163.14
                             4840.46

 Zero-point correction=                           0.029053 (Hartree/Particle)
 Thermal correction to Energy=                    0.033613
 Thermal correction to Enthalpy=                  0.034557
 Thermal correction to Gibbs Free Energy=         0.002914
 Sum of electronic and zero-point Energies=           -190.524859
 Sum of electronic and thermal Energies=              -190.520298
 Sum of electronic and thermal Enthalpies=            -190.519354
 Sum of electronic and thermal Free Energies=         -190.550998

                     E (Thermal)             CV                S
                      KCal/Mol        Cal/Mol-Kelvin    Cal/Mol-Kelvin
 Total                   21.093             13.965             66.600
 Electronic               0.000              0.000              0.000
 Translational            0.889              2.981             38.245
 Rotational               0.889              2.981             22.438
 Vibrational             19.315              8.004              5.917
 Vibration     1          0.637              1.841              2.144
 Vibration     2          0.641              1.829              2.066
 Vibration     3          0.916              1.118              0.524
 Vibration     4          0.916              1.117              0.523

 Optimization completed.
    -- Stationary point found.
 Normal termination of Gaussian 09 at Mon Jun 20 12:04:29 2016.
