 Gaussian 09, Revision E.01,
 Gaussian 09:  EM64L-G09RevE.01 30-Nov-2015

 ---------------------------------------------------------
 #p ccsd(t)/6-311++G(3df,2p) scf(MaxCyc=300) guess(Huckel)
 ---------------------------------------------------------

 -------------
 ccsd(t) iener
 -------------
 Symbolic Z-matrix:
 Charge =  0 Multiplicity = 3

                         Standard orientation:
 ---------------------------------------------------------------------
 Center     Atomic      Atomic             Coordinates (Angstroms)
 Number     Number       Type             X           Y           Z
 ---------------------------------------------------------------------
      1         16           0        0.000000    0.000000    0.000000
 ---------------------------------------------------------------------

 SCF Done:  E(UHF) =  -397.502849332     A.U. after   11 cycles
 E2 =    -0.1147286188D+00 EUMP2 =    -0.39761757795061D+03
 CCSD(T)
 CCSD(T)= -0.39764537260D+03

 Unable to determine electronic state:  an orbital has unidentified symmetry.
 Alpha  occ. eigenvalues --  -92.01278  -9.01250  -6.70608  -6.70608  -6.68551
 Alpha  occ. eigenvalues --   -0.98969  -0.48684  -0.48684  -0.41581
 Alpha virt. eigenvalues --    0.08482   0.09276   0.09276   0.10038   0.31884
 Alpha virt. eigenvalues --    0.31884   0.34847   0.34847   0.35956   0.41299
 Alpha virt. eigenvalues --    0.41299   0.43958   0.71909   1.18373   1.18373

  Beta  occ. eigenvalues --  -91.99354  -8.99395  -6.67538  -6.65947  -6.65947
  Beta  occ. eigenvalues --   -0.77358  -0.37860
  Beta virt. eigenvalues --    0.00168   0.00168   0.09442   0.10182   0.11545
  Beta virt. eigenvalues --    0.11545   0.39562   0.39983   0.39983   0.41765
  Beta virt. eigenvalues --    0.41765   0.44847   0.47528   0.47528   0.76418

 Mulliken charges and spin densities:
               1          2
     1  S    0.000000   2.000000
 Sum of Mulliken charges =   0.00000   2.00000

 Dipole moment (field-independent basis, Debye):
    X=              0.0000    Y=              0.0000    Z=              0.0000  Tot=              0.0000
 Quadrupole moment (field-independent basis, Debye-Ang):
   XX=            -15.1860   YY=            -12.1069   ZZ=            -12.1069
   XY=             -0.0000   XZ=              0.0000   YZ=             -0.0000

 7.6405433\CCSD=-397.6406819\CCSD(T)=-397.6453726\S2=2.012436\S2-1=2.00
 Normal termination of Gaussian 09 at Thu Oct 27 13:08:42 2016.
