 Gaussian 09, Revision E.01,
 Gaussian 09:  EM64L-G09RevE.01 30-Nov-2015

 ---------------------------------------------------------
 #p ccsd(t)/6-311++G(3df,2p) scf(MaxCyc=300) guess(Huckel)
 ---------------------------------------------------------

 -------------
 ccsd(t) iener
 -------------
 Symbolic Z-matrix:
 Charge =  0 Multiplicity = 1

                         Standard orientation:
 ---------------------------------------------------------------------
 Center     Atomic      Atomic             Coordinates (Angstroms)
 Number     Number       Type             X           Y           Z
 ---------------------------------------------------------------------
      1         16           0        0.000000    0.000000    0.000000
 ---------------------------------------------------------------------

 SCF Done:  E(RHF) =  -397.418565437     A.U. after   10 cycles
 E2 =    -0.1319098683D+00 EUMP2 =    -0.39755047530576D+03
 CCSD(T)
 CCSD(T)= -0.39759580065D+03

 Unable to determine electronic state:  an orbital has unidentified symmetry.
 Alpha  occ. eigenvalues --  -92.02317  -9.02121  -6.70293  -6.69815  -6.69815
 Alpha  occ. eigenvalues --   -0.88883  -0.40595  -0.40595
 Alpha virt. eigenvalues --   -0.07355   0.08790   0.09824   0.10029   0.10029
 Alpha virt. eigenvalues --    0.36104   0.36347   0.36347   0.37524   0.37524
 Alpha virt. eigenvalues --    0.43428   0.44026   0.44026   0.73425   1.21535

 Mulliken charges:
               1
     1  S   -0.000000
 Sum of Mulliken charges =  -0.00000

 Dipole moment (field-independent basis, Debye):
    X=              0.0000    Y=              0.0000    Z=              0.0000  Tot=              0.0000
 Quadrupole moment (field-independent basis, Debye-Ang):
   XX=            -15.2524   YY=            -15.2524   ZZ=             -9.6806
   XY=             -0.0000   XZ=              0.0000   YZ=             -0.0000

 \MP4SDQ=-397.5796248\CCSD=-397.5868822\CCSD(T)=-397.5958007\RMSD=1.924
 Normal termination of Gaussian 09 at Thu Oct 27 13:08:41 2016.
