 Gaussian 09, Revision E.01,
 Gaussian 09:  EM64L-G09RevE.01 30-Nov-2015

 ---------------------------------------------------------
 #p ccsd(t)/6-311++G(3df,2p) scf(MaxCyc=300) guess(Huckel)
 ---------------------------------------------------------

 -------------
 ccsd(t) iener
 -------------
 Symbolic Z-matrix:
 Charge =  1 Multiplicity = 2

                         Standard orientation:
 ---------------------------------------------------------------------
 Center     Atomic      Atomic             Coordinates (Angstroms)
 Number     Number       Type             X           Y           Z
 ---------------------------------------------------------------------
      1         16           0        0.000000    0.000000    0.000000
 ---------------------------------------------------------------------

 SCF Done:  E(UHF) =  -397.054461273     A.U. after   11 cycles
 E2 =    -0.9650972385D-01 EUMP2 =    -0.39715097099651D+03
 CCSD(T)
 CCSD(T)= -0.39719522783D+03

 Unable to determine electronic state:  an orbital has unidentified symmetry.
 Alpha  occ. eigenvalues --  -92.45971  -9.45095  -7.14630  -7.12732  -7.12265
 Alpha  occ. eigenvalues --   -1.30993  -0.85234  -0.77655
 Alpha virt. eigenvalues --   -0.41485  -0.11713  -0.07261  -0.07033  -0.06474
 Alpha virt. eigenvalues --    0.03837   0.04042   0.05228   0.06941   0.07227
 Alpha virt. eigenvalues --    0.17487   0.18713   0.19628   0.41725   0.82611

  Beta  occ. eigenvalues --  -92.44859  -9.44034  -7.12224  -7.11708  -7.09782
  Beta  occ. eigenvalues --   -1.19459  -0.75779
  Beta virt. eigenvalues --   -0.39706  -0.32993  -0.11252  -0.06922  -0.06408
  Beta virt. eigenvalues --   -0.05988   0.07155   0.07158   0.09129   0.10348
  Beta virt. eigenvalues --    0.10832   0.19087   0.19935   0.21640   0.43741

 Mulliken charges and spin densities:
               1          2
     1  S    1.000000   1.000000
 Sum of Mulliken charges =   1.00000   1.00000

 Dipole moment (field-independent basis, Debye):
    X=              0.0000    Y=              0.0000    Z=              0.0000  Tot=              0.0000
 Quadrupole moment (field-independent basis, Debye-Ang):
   XX=            -11.8701   YY=             -9.4996   ZZ=             -7.2385
   XY=             -0.0000   XZ=              0.0000   YZ=             -0.0000

 =-397.1781012\CCSD=-397.1868204\CCSD(T)=-397.1952278\S2=0.761256\S2-1=
 Normal termination of Gaussian 09 at Sat Oct 29 13:38:14 2016.
