 Gaussian 09, Revision E.01,
 Gaussian 09:  EM64L-G09RevE.01 30-Nov-2015

 ---------------------------------------------------------
 #p ccsd(t)/6-311++G(3df,2p) scf(MaxCyc=300) guess(Huckel)
 ---------------------------------------------------------

 -------------
 ccsd(t) iener
 -------------
 Symbolic Z-matrix:
 Charge =  1 Multiplicity = 4

                         Standard orientation:
 ---------------------------------------------------------------------
 Center     Atomic      Atomic             Coordinates (Angstroms)
 Number     Number       Type             X           Y           Z
 ---------------------------------------------------------------------
      1         16           0        0.000000    0.000000    0.000000
 ---------------------------------------------------------------------

 SCF Done:  E(UHF) =  -397.163756485     A.U. after    9 cycles
 E2 =    -0.8839195580D-01 EUMP2 =    -0.39725214844072D+03
 CCSD(T)
 CCSD(T)= -0.39727491886D+03

 The electronic state is 4-A1G.
 Alpha  occ. eigenvalues --  -92.44817  -9.44217  -7.13235  -7.13235  -7.13235
 Alpha  occ. eigenvalues --   -1.41208  -0.86231  -0.86231  -0.86231
 Alpha virt. eigenvalues --   -0.12006  -0.07271  -0.07271  -0.07271   0.02282
 Alpha virt. eigenvalues --    0.02282   0.02282   0.02282   0.02282   0.17422
 Alpha virt. eigenvalues --    0.17422   0.17422   0.40371   0.82495   0.82495

  Beta  occ. eigenvalues --  -92.41525  -9.41071  -7.07387  -7.07387  -7.07387
  Beta  occ. eigenvalues --   -1.06753
  Beta virt. eigenvalues --   -0.30704  -0.30704  -0.30704  -0.10616  -0.05769
  Beta virt. eigenvalues --   -0.05769  -0.05769   0.12675   0.12675   0.12675
  Beta virt. eigenvalues --    0.12675   0.12675   0.22355   0.22355   0.22355

 Mulliken charges and spin densities:
               1          2
     1  S    1.000000   3.000000
 Sum of Mulliken charges =   1.00000   3.00000

 Dipole moment (field-independent basis, Debye):
    X=              0.0000    Y=              0.0000    Z=              0.0000  Tot=              0.0000
 Quadrupole moment (field-independent basis, Debye-Ang):
   XX=             -9.3309   YY=             -9.3309   ZZ=             -9.3309
   XY=              0.0000   XZ=              0.0000   YZ=             -0.0000

 7\MP4SDQ=-397.2719177\CCSD=-397.2715323\CCSD(T)=-397.2749189\S2=3.7507
 Normal termination of Gaussian 09 at Mon Oct 24 14:14:26 2016.
