 Gaussian 09, Revision E.01,
 Gaussian 09:  EM64L-G09RevE.01 30-Nov-2015

 ---------------------------------------------------------
 #p ccsd(t)/6-311++G(3df,2p) scf(MaxCyc=300) guess(Huckel)
 ---------------------------------------------------------

 -------------
 ccsd(t) iener
 -------------
 Symbolic Z-matrix:
 Charge =  1 Multiplicity = 4

                         Standard orientation:
 ---------------------------------------------------------------------
 Center     Atomic      Atomic             Coordinates (Angstroms)
 Number     Number       Type             X           Y           Z
 ---------------------------------------------------------------------
      1         16           0        0.000000    0.000000    1.029760
      2         16           0        0.000000    0.000000   -1.029760
 ---------------------------------------------------------------------

 SCF Done:  E(UHF) =  -794.628567203     A.U. after   13 cycles
 E2 =    -0.2792177633D+00 EUMP2 =    -0.79490778496584D+03
 CCSD(T)
 CCSD(T)= -0.79496114201D+03

 The electronic state is 4-SGG.
 Alpha  occ. eigenvalues --  -92.36198 -92.36198  -9.35504  -9.35489  -7.04116
 Alpha  occ. eigenvalues --   -7.04116  -7.04114  -7.04114  -7.04054  -7.04012
 Alpha  occ. eigenvalues --   -1.39135  -1.21576  -0.86360  -0.80820  -0.80820
 Alpha  occ. eigenvalues --   -0.69691  -0.69691
 Alpha virt. eigenvalues --   -0.20641  -0.09258  -0.05993  -0.05571  -0.05571
 Alpha virt. eigenvalues --   -0.04808  -0.02117  -0.02117   0.03873   0.04498
 Alpha virt. eigenvalues --    0.04498   0.05405   0.05405   0.12365   0.16246

  Beta  occ. eigenvalues --  -92.34327 -92.34327  -9.33679  -9.33667  -7.01140
  Beta  occ. eigenvalues --   -7.01100  -7.00665  -7.00665  -7.00663  -7.00663
  Beta  occ. eigenvalues --   -1.25202  -0.96554  -0.65990  -0.65990
  Beta virt. eigenvalues --   -0.39722  -0.27322  -0.27322  -0.11964  -0.08542
  Beta virt. eigenvalues --   -0.05265  -0.05265  -0.03784  -0.02884  -0.01404
  Beta virt. eigenvalues --   -0.01404   0.04272   0.08857   0.08857   0.12255

 Mulliken charges and spin densities:
               1          2
     1  S    0.500000   1.500000
     2  S    0.500000   1.500000
 Sum of Mulliken charges =   1.00000   3.00000

 Dipole moment (field-independent basis, Debye):
    X=              0.0000    Y=             -0.0000    Z=             -0.0000  Tot=              0.0000
 Quadrupole moment (field-independent basis, Debye-Ang):
   XX=            -23.2796   YY=            -23.2796   ZZ=             -9.8678
   XY=             -0.0000   XZ=             -0.0000   YZ=              0.0000

 124\PMP3-0=-794.9415838\MP4SDQ=-794.9410894\CCSD=-794.9414701\CCSD(T)=
 Normal termination of Gaussian 09 at Mon Oct 24 08:44:09 2016.
