 Gaussian 09, Revision E.01,
 Gaussian 09:  EM64L-G09RevE.01 30-Nov-2015

 ---------------------------------------------------------
 #p ccsd(t)/6-311++G(3df,2p) scf(MaxCyc=300) guess(Huckel)
 ---------------------------------------------------------

 -------------
 ccsd(t) iener
 -------------
 Symbolic Z-matrix:
 Charge =  0 Multiplicity = 1

                         Standard orientation:
 ---------------------------------------------------------------------
 Center     Atomic      Atomic             Coordinates (Angstroms)
 Number     Number       Type             X           Y           Z
 ---------------------------------------------------------------------
      1         16           0        0.000000    0.000000    0.951648
      2         16           0        0.000000    0.000000   -0.951648
 ---------------------------------------------------------------------

 SCF Done:  E(RHF) =  -795.032320628     A.U. after   11 cycles
 E2 =    -0.3330801021D+00 EUMP2 =    -0.79536540073008D+03
 CCSD(T)
 CCSD(T)= -0.79541450332D+03

 Unable to determine electronic state:  an orbital has unidentified symmetry.
 Alpha  occ. eigenvalues --  -92.02234 -92.02234  -9.02098  -9.02062  -6.70172
 Alpha  occ. eigenvalues --   -6.70162  -6.70153  -6.70074  -6.69906  -6.69900
 Alpha  occ. eigenvalues --   -1.08036  -0.80150  -0.51851  -0.49650  -0.45219
 Alpha  occ. eigenvalues --   -0.33009
 Alpha virt. eigenvalues --   -0.04769   0.06371   0.08006   0.08975   0.09692
 Alpha virt. eigenvalues --    0.11951   0.12469   0.12546   0.16406   0.20046
 Alpha virt. eigenvalues --    0.30356   0.30372   0.32872   0.33334   0.34925

 Mulliken charges:
               1
     1  S   -0.000000
     2  S   -0.000000
 Sum of Mulliken charges =  -0.00000

 Dipole moment (field-independent basis, Debye):
    X=             -0.0000    Y=              0.0000    Z=              0.0000  Tot=              0.0000
 Quadrupole moment (field-independent basis, Debye-Ang):
   XX=            -24.0362   YY=            -29.0043   ZZ=            -24.3551
   XY=              0.0000   XZ=              0.0000   YZ=              0.0000

 8\MP4DQ=-795.3894364\MP4SDQ=-795.3928115\CCSD=-795.392447\CCSD(T)=-795
 Normal termination of Gaussian 09 at Mon Oct 24 08:42:28 2016.
