 Gaussian 09, Revision E.01,
 Gaussian 09:  EM64L-G09RevE.01 30-Nov-2015

 ---------------------------------------------------------
 #p ccsd(t)/6-311++G(3df,2p) scf(MaxCyc=300) guess(Huckel)
 ---------------------------------------------------------

 -------------
 ccsd(t) iener
 -------------
 Symbolic Z-matrix:
 Charge =  1 Multiplicity = 2

                         Standard orientation:
 ---------------------------------------------------------------------
 Center     Atomic      Atomic             Coordinates (Angstroms)
 Number     Number       Type             X           Y           Z
 ---------------------------------------------------------------------
      1         16           0        0.000000    0.000000    0.911345
      2         16           0        0.000000    0.000000   -0.911345
 ---------------------------------------------------------------------

 SCF Done:  E(UHF) =  -794.746421641     A.U. after   13 cycles
 E2 =    -0.3103519855D+00 EUMP2 =    -0.79505677362682D+03
 CCSD(T)
 CCSD(T)= -0.79510204487D+03

 Unable to determine electronic state:  an orbital has unidentified symmetry.
 Alpha  occ. eigenvalues --  -92.34542 -92.34542  -9.34127  -9.34073  -7.02964
 Alpha  occ. eigenvalues --   -7.02954  -7.01929  -7.01891  -7.01876  -7.01776
 Alpha  occ. eigenvalues --   -1.41603  -1.11205  -0.83237  -0.82334  -0.75270
 Alpha  occ. eigenvalues --   -0.65510
 Alpha virt. eigenvalues --   -0.31085  -0.11189  -0.09689  -0.06414  -0.06082
 Alpha virt. eigenvalues --   -0.04529  -0.03360  -0.01857  -0.01688   0.04203
 Alpha virt. eigenvalues --    0.04223   0.04330   0.07076   0.09031   0.13228

  Beta  occ. eigenvalues --  -92.33883 -92.33882  -9.33484  -9.33423  -7.01652
  Beta  occ. eigenvalues --   -7.01559  -7.01544  -7.01495  -7.00201  -7.00185
  Beta  occ. eigenvalues --   -1.38610  -1.03789  -0.80101  -0.74641  -0.71393
  Beta virt. eigenvalues --   -0.29846  -0.25603  -0.10192  -0.09709  -0.06403
  Beta virt. eigenvalues --   -0.05889  -0.04428  -0.02811  -0.01622  -0.01142
  Beta virt. eigenvalues --    0.04582   0.05933   0.05947   0.09079   0.11120

 Mulliken charges and spin densities:
               1          2
     1  S    0.500000   0.500000
     2  S    0.500000   0.500000
 Sum of Mulliken charges =   1.00000   1.00000

 Dipole moment (field-independent basis, Debye):
    X=              0.0000    Y=             -0.0000    Z=              0.0000  Tot=              0.0000
 Quadrupole moment (field-independent basis, Debye-Ang):
   XX=            -22.8804   YY=            -20.7072   ZZ=            -14.5304
   XY=              0.0000   XZ=             -0.0000   YZ=              0.0000

 0=-795.0810444\MP4SDQ=-795.0811246\CCSD=-795.0807853\CCSD(T)=-795.1020
 Normal termination of Gaussian 09 at Mon Oct 24 08:44:09 2016.
