 Gaussian 09, Revision E.01,
 Gaussian 09:  EM64L-G09RevE.01 30-Nov-2015

 ---------------------------------------------------------
 #p ccsd(t)/6-311++G(3df,2p) scf(MaxCyc=300) guess(Huckel)
 ---------------------------------------------------------

 -------------
 ccsd(t) iener
 -------------
 Symbolic Z-matrix:
 Charge =  0 Multiplicity = 3

                         Standard orientation:
 ---------------------------------------------------------------------
 Center     Atomic      Atomic             Coordinates (Angstroms)
 Number     Number       Type             X           Y           Z
 ---------------------------------------------------------------------
      1         16           0        0.000000    0.000000    0.951409
      2         16           0        0.000000    0.000000   -0.951409
 ---------------------------------------------------------------------

 SCF Done:  E(UHF) =  -795.086882045     A.U. after   13 cycles
 E2 =    -0.3086681651D+00 EUMP2 =    -0.79539555020976D+03
 CCSD(T)
 CCSD(T)= -0.79544275900D+03

 The electronic state is 3-SGG.
 Alpha  occ. eigenvalues --  -92.02137 -92.02137  -9.02048  -9.02018  -6.70839
 Alpha  occ. eigenvalues --   -6.70839  -6.70833  -6.70833  -6.69795  -6.69699
 Alpha  occ. eigenvalues --   -1.11067  -0.87018  -0.53594  -0.53594  -0.53406
 Alpha  occ. eigenvalues --   -0.38327  -0.38327
 Alpha virt. eigenvalues --    0.06118   0.07984   0.09252   0.09252   0.12115
 Alpha virt. eigenvalues --    0.12115   0.12134   0.15805   0.19696   0.28909
 Alpha virt. eigenvalues --    0.28909   0.31821   0.31821   0.34418   0.36949

  Beta  occ. eigenvalues --  -92.00912 -92.00912  -9.00843  -9.00802  -6.69260
  Beta  occ. eigenvalues --   -6.69160  -6.67950  -6.67950  -6.67940  -6.67940
  Beta  occ. eigenvalues --   -1.04524  -0.72723  -0.49467  -0.41079  -0.41079
  Beta virt. eigenvalues --    0.00420   0.00420   0.06688   0.08130   0.09490
  Beta virt. eigenvalues --    0.09490   0.11948   0.13248   0.13248   0.17400
  Beta virt. eigenvalues --    0.20753   0.32230   0.32230   0.34881   0.34881

 Mulliken charges and spin densities:
               1          2
     1  S    0.000000   1.000000
     2  S    0.000000   1.000000
 Sum of Mulliken charges =   0.00000   2.00000

 Dipole moment (field-independent basis, Debye):
    X=              0.0000    Y=              0.0000    Z=             -0.0000  Tot=              0.0000
 Quadrupole moment (field-independent basis, Debye-Ang):
   XX=            -26.3383   YY=            -26.3383   ZZ=            -24.0611
   XY=              0.0000   XZ=              0.0000   YZ=              0.0000

 355\PMP3-0=-795.425058\MP4SDQ=-795.4236896\CCSD=-795.4234104\CCSD(T)=-
 Normal termination of Gaussian 09 at Mon Oct 24 08:42:26 2016.
