 Gaussian 09, Revision E.01,
 Gaussian 09:  EM64L-G09RevE.01 30-Nov-2015

 ---------------------------------------------------------
 #p ccsd(t)/6-311++G(3df,2p) scf(MaxCyc=300) guess(Huckel)
 ---------------------------------------------------------

 -------------
 ccsd(t) iener
 -------------
 Symbolic Z-matrix:
 Charge =  1 Multiplicity = 4

                         Standard orientation:
 ---------------------------------------------------------------------
 Center     Atomic      Atomic             Coordinates (Angstroms)
 Number     Number       Type             X           Y           Z
 ---------------------------------------------------------------------
      1         16           0       -0.000000    0.000000    1.005471
      2         16           0        0.000000   -1.358919   -0.502735
      3         16           0        0.000000    1.358919   -0.502735
 ---------------------------------------------------------------------

 SCF Done:  E(UHF) =  -1192.28975137     A.U. after   20 cycles
 E2 =    -0.4422889290D+00 EUMP2 =    -0.11927320402983D+04
 CCSD(T)
 CCSD(T)= -0.11928063285D+04

 The electronic state is 4-A1.
 Alpha  occ. eigenvalues --  -92.29507 -92.29507 -92.28466  -9.29171  -9.29169
 Alpha  occ. eigenvalues --   -9.28100  -6.98470  -6.98470  -6.97867  -6.97866
 Alpha  occ. eigenvalues --   -6.96646  -6.96645  -6.96592  -6.96021  -6.95875
 Alpha  occ. eigenvalues --   -1.39755  -1.24526  -1.09665  -0.81549  -0.81533
 Alpha  occ. eigenvalues --   -0.78348  -0.72246  -0.69914  -0.64622  -0.61911
 Alpha virt. eigenvalues --   -0.15079  -0.13457  -0.07711  -0.05430  -0.04698
 Alpha virt. eigenvalues --   -0.04480  -0.03122  -0.02929  -0.01936  -0.01697
 Alpha virt. eigenvalues --   -0.01441   0.02295   0.03613   0.04671   0.05357

  Beta  occ. eigenvalues --  -92.28133 -92.27820 -92.27820  -9.27769  -9.27507
  Beta  occ. eigenvalues --   -9.27506  -6.95923  -6.95921  -6.95789  -6.95789
  Beta  occ. eigenvalues --   -6.94985  -6.94460  -6.94458  -6.93927  -6.93926
  Beta  occ. eigenvalues --   -1.33152  -1.09524  -0.99039  -0.74984  -0.73865
  Beta  occ. eigenvalues --   -0.66862  -0.59174
  Beta virt. eigenvalues --   -0.24682  -0.24263  -0.20891  -0.13061  -0.11552
  Beta virt. eigenvalues --   -0.07382  -0.04791  -0.04179  -0.03841  -0.02489
  Beta virt. eigenvalues --   -0.02448  -0.01421  -0.00795  -0.00401   0.02777

 Mulliken charges and spin densities:
               1          2
     1  S    0.255339   0.131032
     2  S    0.372330   1.434484
     3  S    0.372330   1.434484
 Sum of Mulliken charges =   1.00000   3.00000

 Dipole moment (field-independent basis, Debye):
    X=              0.0000    Y=              0.0000    Z=             -0.3487  Tot=              0.3487
 Quadrupole moment (field-independent basis, Debye-Ang):
   XX=            -34.5161   YY=            -24.4836   ZZ=            -31.1562
   XY=              0.0000   XZ=             -0.0000   YZ=             -0.0000

 0=-1192.775417\MP4SDQ=-1192.7756112\CCSD=-1192.7760424\CCSD(T)=-1192.8
 Normal termination of Gaussian 09 at Mon Oct 24 09:44:50 2016.
