 Gaussian 09, Revision E.01,
 Gaussian 09:  EM64L-G09RevE.01 30-Nov-2015

 ---------------------------------------------------------
 #p ccsd(t)/6-311++G(3df,2p) scf(MaxCyc=300) guess(Huckel)
 ---------------------------------------------------------

 -------------
 ccsd(t) iener
 -------------
 Symbolic Z-matrix:
 Charge =  0 Multiplicity = 3

                         Standard orientation:
 ---------------------------------------------------------------------
 Center     Atomic      Atomic             Coordinates (Angstroms)
 Number     Number       Type             X           Y           Z
 ---------------------------------------------------------------------
      1         16           0        0.000000    0.907166    0.000000
      2         16           0        1.462038   -0.453569    0.000000
      3         16           0       -1.462038   -0.453596    0.000000
 ---------------------------------------------------------------------

 SCF Done:  E(UHF) =  -1192.57829062     A.U. after   24 cycles
 E2 =    -0.4925998033D+00 EUMP2 =    -0.11930708904257D+04
 CCSD(T)
 CCSD(T)= -0.11931418127D+04

 The electronic state is 3-A".
 Alpha  occ. eigenvalues --  -92.08527 -92.00720 -92.00720  -9.07999  -9.00670
 Alpha  occ. eigenvalues --   -9.00668  -6.77147  -6.75958  -6.75746  -6.69642
 Alpha  occ. eigenvalues --   -6.69641  -6.68870  -6.68869  -6.68399  -6.68398
 Alpha  occ. eigenvalues --   -1.15462  -0.97478  -0.84702  -0.57342  -0.57260
 Alpha  occ. eigenvalues --   -0.55708  -0.43975  -0.42341  -0.40871  -0.36774
 Alpha virt. eigenvalues --    0.05286   0.05796   0.07201   0.09150   0.10744
 Alpha virt. eigenvalues --    0.10854   0.10898   0.11896   0.12132   0.12590
 Alpha virt. eigenvalues --    0.14033   0.15842   0.18532   0.20331   0.27572

  Beta  occ. eigenvalues --  -92.07767 -91.99810 -91.99810  -9.07254  -8.99774
  Beta  occ. eigenvalues --   -8.99774  -6.75451  -6.75429  -6.74060  -6.68130
  Beta  occ. eigenvalues --   -6.68130  -6.67305  -6.67305  -6.66734  -6.66733
  Beta  occ. eigenvalues --   -1.10536  -0.90360  -0.75474  -0.53009  -0.51380
  Beta  occ. eigenvalues --   -0.47061  -0.33989  -0.33537
  Beta virt. eigenvalues --   -0.03968  -0.02617   0.06074   0.06587   0.07443
  Beta virt. eigenvalues --    0.09329   0.10936   0.11079   0.11869   0.12116
  Beta virt. eigenvalues --    0.12835   0.12957   0.15250   0.16235   0.19151

 Mulliken charges and spin densities:
               1          2
     1  S    0.223116   0.505904
     2  S   -0.111543   0.747073
     3  S   -0.111572   0.747023
 Sum of Mulliken charges =  -0.00000   2.00000

 Dipole moment (field-independent basis, Debye):
    X=              0.0002    Y=              1.1736    Z=              0.0000  Tot=              1.1736
 Quadrupole moment (field-independent basis, Debye-Ang):
   XX=            -37.9927   YY=            -37.7644   ZZ=            -40.7629
   XY=             -0.0000   XZ=              0.0000   YZ=              0.0000

 4SDQ=-1193.106657\CCSD=-1193.1067139\CCSD(T)=-1193.1418127\S2=2.077634
 Normal termination of Gaussian 09 at Mon Oct 24 08:55:32 2016.
