 Gaussian 09, Revision E.01,
 Gaussian 09:  EM64L-G09RevE.01 30-Nov-2015

 ---------------------------------------------------------
 #p ccsd(t)/6-311++G(3df,2p) scf(MaxCyc=300) guess(Huckel)
 ---------------------------------------------------------

 -------------
 ccsd(t) iener
 -------------
 Symbolic Z-matrix:
 Charge =  0 Multiplicity = 3

                         Standard orientation:
 ---------------------------------------------------------------------
 Center     Atomic      Atomic             Coordinates (Angstroms)
 Number     Number       Type             X           Y           Z
 ---------------------------------------------------------------------
      1         16           0        0.000000   -0.000000    0.572427
      2         16           0       -0.000000   -1.765793   -0.286213
      3         16           0        0.000000    1.765793   -0.286213
 ---------------------------------------------------------------------

 SCF Done:  E(UHF) =  -1192.56338490     A.U. after   20 cycles
 E2 =    -0.4961646797D+00 EUMP2 =    -0.11930595495750D+04
 CCSD(T)
 CCSD(T)= -0.11931300477D+04

 The electronic state is 3-B1.
 Alpha  occ. eigenvalues --  -92.09595 -92.00901 -92.00901  -9.09027  -9.00864
 Alpha  occ. eigenvalues --   -9.00862  -6.78086  -6.77413  -6.76696  -6.69719
 Alpha  occ. eigenvalues --   -6.69719  -6.69188  -6.69188  -6.68542  -6.68542
 Alpha  occ. eigenvalues --   -1.15671  -1.00340  -0.83520  -0.58925  -0.57657
 Alpha  occ. eigenvalues --   -0.55875  -0.44212  -0.42521  -0.41814  -0.35735
 Alpha virt. eigenvalues --    0.04578   0.06688   0.07279   0.08571   0.09046
 Alpha virt. eigenvalues --    0.11031   0.11583   0.12184   0.13006   0.13596
 Alpha virt. eigenvalues --    0.14300   0.16561   0.18019   0.21099   0.27317

  Beta  occ. eigenvalues --  -92.08595 -92.00086 -92.00086  -9.07968  -9.00080
  Beta  occ. eigenvalues --   -9.00077  -6.76483  -6.75771  -6.75045  -6.68433
  Beta  occ. eigenvalues --   -6.68433  -6.67500  -6.67500  -6.67216  -6.67216
  Beta  occ. eigenvalues --   -1.10291  -0.94590  -0.72146  -0.53693  -0.50499
  Beta  occ. eigenvalues --   -0.47620  -0.35008  -0.33709
  Beta virt. eigenvalues --   -0.07118  -0.01679   0.05940   0.07060   0.07498
  Beta virt. eigenvalues --    0.09319   0.09530   0.10988   0.11716   0.13074
  Beta virt. eigenvalues --    0.13604   0.13771   0.14477   0.18243   0.18781

 Mulliken charges and spin densities:
               1          2
     1  S    0.256130   0.619062
     2  S   -0.128065   0.690469
     3  S   -0.128065   0.690469
 Sum of Mulliken charges =  -0.00000   2.00000

 Dipole moment (field-independent basis, Debye):
    X=             -0.0000    Y=              0.0000    Z=              0.1676  Tot=              0.1676
 Quadrupole moment (field-independent basis, Debye-Ang):
   XX=            -40.5029   YY=            -39.0853   ZZ=            -37.9872
   XY=             -0.0000   XZ=             -0.0000   YZ=             -0.0000

 MP3-0=-1193.0965427\MP4SDQ=-1193.0938016\CCSD=-1193.0938302\CCSD(T)=-1
 Normal termination of Gaussian 09 at Mon Oct 24 08:53:47 2016.
