 Gaussian 09, Revision E.01,
 Gaussian 09:  EM64L-G09RevE.01 30-Nov-2015

 ---------------------------------------------------------
 #p ccsd(t)/6-311++G(3df,2p) scf(MaxCyc=300) guess(Huckel)
 ---------------------------------------------------------

 -------------
 ccsd(t) iener
 -------------
 Symbolic Z-matrix:
 Charge =  0 Multiplicity = 1

                         Standard orientation:
 ---------------------------------------------------------------------
 Center     Atomic      Atomic             Coordinates (Angstroms)
 Number     Number       Type             X           Y           Z
 ---------------------------------------------------------------------
      1         16           0        0.000000    0.655678    0.000000
      2         16           0        1.650665   -0.327733    0.000000
      3         16           0       -1.650665   -0.327945    0.000000
 ---------------------------------------------------------------------

 SCF Done:  E(RHF) =  -1192.58662321     A.U. after   15 cycles
 E2 =    -0.5282956594D+00 EUMP2 =    -0.11931149188676D+04
 CCSD(T)
 CCSD(T)= -0.11931767435D+04

 The electronic state is 1-A'.
 Alpha  occ. eigenvalues --  -92.11540 -91.99528 -91.99527  -9.10614  -8.99623
 Alpha  occ. eigenvalues --   -8.99619  -6.78702  -6.78682  -6.78558  -6.67733
 Alpha  occ. eigenvalues --   -6.67731  -6.67615  -6.67613  -6.67494  -6.67492
 Alpha  occ. eigenvalues --   -1.15323  -0.97796  -0.77753  -0.56929  -0.55460
 Alpha  occ. eigenvalues --   -0.52651  -0.38656  -0.38284  -0.36463
 Alpha virt. eigenvalues --   -0.05744   0.06480   0.06982   0.07242   0.08900
 Alpha virt. eigenvalues --    0.09721   0.11246   0.11546   0.12790   0.13002
 Alpha virt. eigenvalues --    0.13878   0.14104   0.17394   0.17878   0.20874

 Mulliken charges:
               1
     1  S    0.319069
     2  S   -0.159495
     3  S   -0.159574
 Sum of Mulliken charges =  -0.00000

 Dipole moment (field-independent basis, Debye):
    X=              0.0007    Y=              0.6240    Z=              0.0000  Tot=              0.6240
 Quadrupole moment (field-independent basis, Debye-Ang):
   XX=            -39.5842   YY=            -39.9620   ZZ=            -38.2341
   XY=             -0.0001   XZ=              0.0000   YZ=              0.0000

 1322872\MP4SDQ=-1193.1396075\CCSD=-1193.137773\CCSD(T)=-1193.1767435\R
 Normal termination of Gaussian 09 at Mon Oct 24 08:53:16 2016.
