 Gaussian 09, Revision E.01,
 Gaussian 09:  EM64L-G09RevE.01 30-Nov-2015

 ---------------------------------------------------------
 #p ccsd(t)/6-311++G(3df,2p) scf(MaxCyc=300) guess(Huckel)
 ---------------------------------------------------------

 -------------
 ccsd(t) iener
 -------------
 Symbolic Z-matrix:
 Charge =  1 Multiplicity = 2

                         Standard orientation:
 ---------------------------------------------------------------------
 Center     Atomic      Atomic             Coordinates (Angstroms)
 Number     Number       Type             X           Y           Z
 ---------------------------------------------------------------------
      1         16           0       -0.000000    0.506754   -0.000000
      2         16           0        1.728504   -0.253370    0.000000
      3         16           0       -1.728504   -0.253384    0.000000
 ---------------------------------------------------------------------

 SCF Done:  E(UHF) =  -1192.24900665     A.U. after   27 cycles
 E2 =    -0.5160387713D+00 EUMP2 =    -0.11927650454175D+04
 CCSD(T)
 CCSD(T)= -0.11928262476D+04

 The electronic state is 2-A'.
 Alpha  occ. eigenvalues --  -92.37253 -92.27257 -92.27257  -9.36236  -9.27037
 Alpha  occ. eigenvalues --   -9.27034  -7.04738  -7.04260  -7.04018  -6.95899
 Alpha  occ. eigenvalues --   -6.95899  -6.94773  -6.94773  -6.94744  -6.94743
 Alpha  occ. eigenvalues --   -1.41852  -1.25985  -1.03461  -0.83525  -0.81083
 Alpha  occ. eigenvalues --   -0.77268  -0.65927  -0.65081  -0.61467
 Alpha virt. eigenvalues --   -0.28368  -0.14471  -0.08886  -0.07264  -0.05460
 Alpha virt. eigenvalues --   -0.05195  -0.03204  -0.03010  -0.01842  -0.01228
 Alpha virt. eigenvalues --   -0.00656  -0.00337   0.00350   0.02470   0.06641

  Beta  occ. eigenvalues --  -92.36956 -92.26742 -92.26742  -9.35873  -9.26546
  Beta  occ. eigenvalues --   -9.26542  -7.04182  -7.04076  -7.03418  -6.94696
  Beta  occ. eigenvalues --   -6.94696  -6.94507  -6.94507  -6.93466  -6.93466
  Beta  occ. eigenvalues --   -1.39559  -1.22140  -0.97310  -0.79556  -0.76764
  Beta  occ. eigenvalues --   -0.76525  -0.60780  -0.58085
  Beta virt. eigenvalues --   -0.29431  -0.27202  -0.13741  -0.08519  -0.06501
  Beta virt. eigenvalues --   -0.05158  -0.05080  -0.03159  -0.02834  -0.01822
  Beta virt. eigenvalues --   -0.00565  -0.00290  -0.00218   0.01584   0.03129

 Mulliken charges and spin densities:
               1          2
     1  S    0.472271   0.128194
     2  S    0.263866   0.435905
     3  S    0.263863   0.435901
 Sum of Mulliken charges =   1.00000   1.00000

 Dipole moment (field-independent basis, Debye):
    X=              0.0000    Y=             -0.2212    Z=             -0.0000  Tot=              0.2212
 Quadrupole moment (field-independent basis, Debye-Ang):
   XX=            -20.5827   YY=            -33.5610   ZZ=            -34.4585
   XY=              0.0001   XZ=              0.0000   YZ=              0.0000

 \PMP3-0=-1192.7875021\MP4SDQ=-1192.7848831\CCSD=-1192.7840377\CCSD(T)=
 Normal termination of Gaussian 09 at Mon Oct 24 10:01:33 2016.
