 Gaussian 09, Revision E.01,
 Gaussian 09:  EM64L-G09RevE.01 30-Nov-2015

 ---------------------------------------------------------
 #p ccsd(t)/6-311++G(3df,2p) scf(MaxCyc=300) guess(Huckel)
 ---------------------------------------------------------

 -------------
 ccsd(t) iener
 -------------
 Symbolic Z-matrix:
 Charge =  1 Multiplicity = 2

                         Standard orientation:
 ---------------------------------------------------------------------
 Center     Atomic      Atomic             Coordinates (Angstroms)
 Number     Number       Type             X           Y           Z
 ---------------------------------------------------------------------
      1         16           0        0.000000   -0.000000    1.130249
      2         16           0       -0.000000    1.089593   -0.565124
      3         16           0       -0.000000   -1.089593   -0.565124
 ---------------------------------------------------------------------

 SCF Done:  E(UHF) =  -1192.28928402     A.U. after   20 cycles
 E2 =    -0.4785336528D+00 EUMP2 =    -0.11927678176710D+04
 CCSD(T)
 CCSD(T)= -0.11928377174D+04

 The electronic state is 2-B1.
 Alpha  occ. eigenvalues --  -92.34638 -92.27851 -92.27851  -9.34083  -9.27493
 Alpha  occ. eigenvalues --   -9.27481  -7.03484  -7.01855  -7.01761  -6.95499
 Alpha  occ. eigenvalues --   -6.95498  -6.95433  -6.95411  -6.95354  -6.95352
 Alpha  occ. eigenvalues --   -1.44047  -1.13624  -1.13010  -0.83764  -0.80451
 Alpha  occ. eigenvalues --   -0.76101  -0.70642  -0.64404  -0.61384
 Alpha virt. eigenvalues --   -0.19825  -0.16537  -0.14614  -0.07801  -0.05590
 Alpha virt. eigenvalues --   -0.03935  -0.03565  -0.03330  -0.02768  -0.02358
 Alpha virt. eigenvalues --   -0.01505  -0.01131   0.02614   0.02661   0.05523

  Beta  occ. eigenvalues --  -92.33595 -92.27732 -92.27732  -9.33042  -9.27372
  Beta  occ. eigenvalues --   -9.27362  -7.01243  -7.01090  -6.99393  -6.95499
  Beta  occ. eigenvalues --   -6.95492  -6.95352  -6.95335  -6.94855  -6.94854
  Beta  occ. eigenvalues --   -1.41099  -1.12376  -1.06896  -0.79183  -0.74679
  Beta  occ. eigenvalues --   -0.74010  -0.70216  -0.57927
  Beta virt. eigenvalues --   -0.25747  -0.19304  -0.16076  -0.13439  -0.07721
  Beta virt. eigenvalues --   -0.05317  -0.03764  -0.03493  -0.02904  -0.02689
  Beta virt. eigenvalues --   -0.02035  -0.00983  -0.00838   0.02661   0.03082

 Mulliken charges and spin densities:
               1          2
     1  S    0.476984   0.849029
     2  S    0.261508   0.075485
     3  S    0.261508   0.075485
 Sum of Mulliken charges =   1.00000   1.00000

 Dipole moment (field-independent basis, Debye):
    X=             -0.0000    Y=             -0.0000    Z=              1.0163  Tot=              1.0163
 Quadrupole moment (field-independent basis, Debye-Ang):
   XX=            -36.5917   YY=            -27.7663   ZZ=            -26.8246
   XY=              0.0000   XZ=              0.0000   YZ=             -0.0000

 -1192.8026411\MP4SDQ=-1192.8037152\CCSD=-1192.804349\CCSD(T)=-1192.837
 Normal termination of Gaussian 09 at Mon Oct 24 09:32:20 2016.
