 Gaussian 09, Revision E.01,
 Gaussian 09:  EM64L-G09RevE.01 30-Nov-2015

 ---------------------------------------------------------
 #p ccsd(t)/6-311++G(3df,2p) scf(MaxCyc=300) guess(Huckel)
 ---------------------------------------------------------

 -------------
 ccsd(t) iener
 -------------
 Symbolic Z-matrix:
 Charge =  0 Multiplicity = 1

                         Standard orientation:
 ---------------------------------------------------------------------
 Center     Atomic      Atomic             Coordinates (Angstroms)
 Number     Number       Type             X           Y           Z
 ---------------------------------------------------------------------
      1         16           0        0.000000    1.207182    0.000000
      2         16           0        1.045450   -0.603591    0.000000
      3         16           0       -1.045450   -0.603591   -0.000000
 ---------------------------------------------------------------------

 SCF Done:  E(RHF) =  -1192.59537564     A.U. after   13 cycles
 E2 =    -0.5053168023D+00 EUMP2 =    -0.11931006924393D+04
 CCSD(T)
 CCSD(T)= -0.11931654360D+04

 The electronic state is 1-A1'.
 Alpha  occ. eigenvalues --  -92.02461 -92.02461 -92.02461  -9.02257  -9.02234
 Alpha  occ. eigenvalues --   -9.02234  -6.70350  -6.70315  -6.70315  -6.70280
 Alpha  occ. eigenvalues --   -6.70280  -6.70269  -6.70075  -6.70073  -6.70073
 Alpha  occ. eigenvalues --   -1.15030  -0.86414  -0.86414  -0.54372  -0.53802
 Alpha  occ. eigenvalues --   -0.47785  -0.47785  -0.35793  -0.35793
 Alpha virt. eigenvalues --    0.03810   0.04134   0.04134   0.07176   0.09554
 Alpha virt. eigenvalues --    0.10694   0.10694   0.12396   0.12396   0.13214
 Alpha virt. eigenvalues --    0.13214   0.14218   0.15213   0.20579   0.20579

 Mulliken charges:
               1
     1  S   -0.000000
     2  S   -0.000000
     3  S   -0.000000
 Sum of Mulliken charges =  -0.00000

 Dipole moment (field-independent basis, Debye):
    X=              0.0000    Y=             -0.0000    Z=             -0.0000  Tot=              0.0000
 Quadrupole moment (field-independent basis, Debye-Ang):
   XX=            -35.9794   YY=            -35.9794   ZZ=            -42.7339
   XY=             -0.0000   XZ=             -0.0000   YZ=             -0.0000

 Normal termination of Gaussian 09 at Mon Oct 24 08:46:09 2016.
