 Gaussian 09, Revision E.01,
 Gaussian 09:  EM64L-G09RevE.01 30-Nov-2015

 ---------------------------------------------------------
 #p ccsd(t)/6-311++G(3df,2p) scf(MaxCyc=300) guess(Huckel)
 ---------------------------------------------------------

 -------------
 ccsd(t) iener
 -------------
 Symbolic Z-matrix:
 Charge =  1 Multiplicity = 4

                         Standard orientation:
 ---------------------------------------------------------------------
 Center     Atomic      Atomic             Coordinates (Angstroms)
 Number     Number       Type             X           Y           Z
 ---------------------------------------------------------------------
      1         16           0       -0.000000    0.000000    0.772902
      2         16           0        0.000000   -1.638750   -0.386451
      3         16           0        0.000000    1.638750   -0.386451
 ---------------------------------------------------------------------

 SCF Done:  E(UHF) =  -1192.28288495     A.U. after   20 cycles
 E2 =    -0.4279391773D+00 EUMP2 =    -0.11927108241302D+04
 CCSD(T)
 CCSD(T)= -0.11927892154D+04

 The electronic state is 4-A2.
 Alpha  occ. eigenvalues --  -92.31509 -92.27764 -92.27764  -9.31122  -9.27541
 Alpha  occ. eigenvalues --   -9.27539  -7.00316  -6.98863  -6.98857  -6.97002
 Alpha  occ. eigenvalues --   -6.97002  -6.95517  -6.95517  -6.95293  -6.95293
 Alpha  occ. eigenvalues --   -1.39530  -1.25715  -1.09065  -0.81577  -0.80723
 Alpha  occ. eigenvalues --   -0.80407  -0.70011  -0.69098  -0.67882  -0.60048
 Alpha virt. eigenvalues --   -0.15644  -0.12256  -0.08094  -0.05639  -0.04884
 Alpha virt. eigenvalues --   -0.04469  -0.02909  -0.02817  -0.01430  -0.01169
 Alpha virt. eigenvalues --   -0.01130   0.01186   0.02074   0.05676   0.06093

  Beta  occ. eigenvalues --  -92.30742 -92.26391 -92.26391  -9.30316  -9.26190
  Beta  occ. eigenvalues --   -9.26188  -6.98669  -6.98557  -6.97002  -6.94363
  Beta  occ. eigenvalues --   -6.94363  -6.93688  -6.93688  -6.92538  -6.92538
  Beta  occ. eigenvalues --   -1.32195  -1.13693  -0.96226  -0.76214  -0.72600
  Beta  occ. eigenvalues --   -0.69305  -0.58498
  Beta virt. eigenvalues --   -0.25700  -0.23957  -0.23413  -0.11429  -0.08548
  Beta virt. eigenvalues --   -0.07332  -0.04888  -0.04634  -0.03845  -0.02055
  Beta virt. eigenvalues --   -0.01956  -0.01220  -0.00338  -0.00275   0.01966

 Mulliken charges and spin densities:
               1          2
     1  S    0.421212   0.529274
     2  S    0.289394   1.235363
     3  S    0.289394   1.235363
 Sum of Mulliken charges =   1.00000   3.00000

 Dipole moment (field-independent basis, Debye):
    X=              0.0000    Y=              0.0000    Z=             -0.1248  Tot=              0.1248
 Quadrupole moment (field-independent basis, Debye-Ang):
   XX=            -36.9906   YY=            -21.5231   ZZ=            -30.7601
   XY=              0.0000   XZ=              0.0000   YZ=             -0.0000

 MP3-0=-1192.7579348\MP4SDQ=-1192.7598424\CCSD=-1192.7611637\CCSD(T)=-1
 Normal termination of Gaussian 09 at Mon Oct 24 09:33:31 2016.
