 Gaussian 09, Revision E.01,
 Gaussian 09:  EM64L-G09RevE.01 30-Nov-2015

 ---------------------------------------------------------
 #p ccsd(t)/6-311++G(3df,2p) scf(MaxCyc=300) guess(Huckel)
 ---------------------------------------------------------

 -------------
 ccsd(t) iener
 -------------
 Symbolic Z-matrix:
 Charge =  1 Multiplicity = 4

                         Standard orientation:
 ---------------------------------------------------------------------
 Center     Atomic      Atomic             Coordinates (Angstroms)
 Number     Number       Type             X           Y           Z
 ---------------------------------------------------------------------
      1         16           0        1.193467    0.580399    0.568616
      2         16           0        2.394985   -0.580437   -0.283359
      3         16           0       -1.193420    0.580505   -0.568556
      4         16           0       -2.395031   -0.580467    0.283299
 ---------------------------------------------------------------------

 SCF Done:  E(UHF) =  -1589.86106210     A.U. after   29 cycles
 E2 =    -0.6149379919D+00 EUMP2 =    -0.15904760000874D+04
 CCSD(T)
 CCSD(T)= -0.15905777484D+04

 The electronic state is 4-A.
 Alpha  occ. eigenvalues --  -92.25275 -92.25273 -92.23554 -92.23553  -9.25058
 Alpha  occ. eigenvalues --   -9.25057  -9.23286  -9.23282  -6.94008  -6.94007
 Alpha  occ. eigenvalues --   -6.93965  -6.93964  -6.92651  -6.92650  -6.92003
 Alpha  occ. eigenvalues --   -6.92003  -6.91211  -6.91210  -6.90871  -6.90867
 Alpha  occ. eigenvalues --   -1.33339  -1.31849  -1.08387  -1.03455  -0.76706
 Alpha  occ. eigenvalues --   -0.75230  -0.75050  -0.73207  -0.72869  -0.69973
 Alpha  occ. eigenvalues --   -0.58236  -0.57858  -0.55727
 Alpha virt. eigenvalues --   -0.21860  -0.07393  -0.07381  -0.06989  -0.04355
 Alpha virt. eigenvalues --   -0.03447  -0.02739  -0.02049  -0.01913  -0.00714
 Alpha virt. eigenvalues --   -0.00097   0.00362   0.00607   0.01066   0.02238

  Beta  occ. eigenvalues --  -92.23755 -92.23754 -92.23282 -92.23281  -9.23561
  Beta  occ. eigenvalues --   -9.23560  -9.23054  -9.23053  -6.91912  -6.91911
  Beta  occ. eigenvalues --   -6.91450  -6.91448  -6.91075  -6.91075  -6.90470
  Beta  occ. eigenvalues --   -6.90470  -6.90381  -6.90380  -6.90064  -6.90063
  Beta  occ. eigenvalues --   -1.29147  -1.27220  -0.97487  -0.92866  -0.74081
  Beta  occ. eigenvalues --   -0.70060  -0.67783  -0.62575  -0.62508  -0.59810
  Beta virt. eigenvalues --   -0.22240  -0.19099  -0.18599  -0.16364  -0.06913
  Beta virt. eigenvalues --   -0.06499  -0.06212  -0.04296  -0.02864  -0.02216
  Beta virt. eigenvalues --   -0.01574  -0.01519  -0.00104   0.00471   0.01073

 Mulliken charges and spin densities:
               1          2
     1  S    0.288442   0.187962
     2  S    0.211568   1.312007
     3  S    0.288386   0.187903
     4  S    0.211604   1.312128
 Sum of Mulliken charges =   1.00000   3.00000

 Dipole moment (field-independent basis, Debye):
    X=             -0.0001    Y=             -0.8690    Z=              0.0001  Tot=              0.8690
 Quadrupole moment (field-independent basis, Debye-Ang):
   XX=            -22.1286   YY=            -44.5292   ZZ=            -45.7411
   XY=              0.0006   XZ=             -1.4340   YZ=             -0.0000

 156\CCSD=-1590.5340869\CCSD(T)=-1590.5777484\S2=4.135459\S2-1=4.032186
 Normal termination of Gaussian 09 at Mon Oct 24 15:14:19 2016.
