 Gaussian 09, Revision E.01,
 Gaussian 09:  EM64L-G09RevE.01 30-Nov-2015

 ---------------------------------------------------------
 #p ccsd(t)/6-311++G(3df,2p) scf(MaxCyc=300) guess(Huckel)
 ---------------------------------------------------------

 -------------
 ccsd(t) iener
 -------------
 Symbolic Z-matrix:
 Charge =  0 Multiplicity = 1

                         Standard orientation:
 ---------------------------------------------------------------------
 Center     Atomic      Atomic             Coordinates (Angstroms)
 Number     Number       Type             X           Y           Z
 ---------------------------------------------------------------------
      1         16           0        0.966818    2.303171   -0.000000
      2         16           0        0.966818    0.374303   -0.000000
      3         16           0       -0.966818   -0.374303   -0.000000
      4         16           0       -0.966818   -2.303171   -0.000000
 ---------------------------------------------------------------------

 SCF Done:  E(RHF) =  -1590.09441937     A.U. after   15 cycles
 E2 =    -0.7310921645D+00 EUMP2 =    -0.15908255115322D+04
 CCSD(T)
 CCSD(T)= -0.15909015022D+04

 The electronic state is 1-AG.
 Alpha  occ. eigenvalues --  -92.10191 -92.10191 -91.98515 -91.98515  -9.09522
 Alpha  occ. eigenvalues --   -9.09503  -8.98594  -8.98593  -6.77578  -6.77543
 Alpha  occ. eigenvalues --   -6.77511  -6.77509  -6.77464  -6.77459  -6.66744
 Alpha  occ. eigenvalues --   -6.66744  -6.66550  -6.66550  -6.66491  -6.66491
 Alpha  occ. eigenvalues --   -1.16170  -1.06965  -0.89394  -0.78381  -0.59712
 Alpha  occ. eigenvalues --   -0.56314  -0.54552  -0.49496  -0.45628  -0.41262
 Alpha  occ. eigenvalues --   -0.36010  -0.30564
 Alpha virt. eigenvalues --   -0.08718   0.04766   0.05782   0.06966   0.07954
 Alpha virt. eigenvalues --    0.08029   0.08438   0.10872   0.11195   0.11642
 Alpha virt. eigenvalues --    0.12220   0.12719   0.13361   0.14086   0.14648

 Mulliken charges:
               1
     1  S   -0.202726
     2  S    0.202726
     3  S    0.202726
     4  S   -0.202726
 Sum of Mulliken charges =  -0.00000

 Dipole moment (field-independent basis, Debye):
    X=             -0.0000    Y=             -0.0000    Z=              0.0000  Tot=              0.0000
 Quadrupole moment (field-independent basis, Debye-Ang):
   XX=            -52.8618   YY=            -56.7000   ZZ=            -52.5677
   XY=             -1.9869   XZ=              0.0000   YZ=              0.0000

 MP4SDQ=-1590.8444088\CCSD=-1590.8417568\CCSD(T)=-1590.9015022\RMSD=9.2
 Normal termination of Gaussian 09 at Mon Oct 24 09:59:35 2016.
