 Gaussian 09, Revision E.01,
 Gaussian 09:  EM64L-G09RevE.01 30-Nov-2015

 ---------------------------------------------------------
 #p ccsd(t)/6-311++G(3df,2p) scf(MaxCyc=300) guess(Huckel)
 ---------------------------------------------------------

 -------------
 ccsd(t) iener
 -------------
 Symbolic Z-matrix:
 Charge =  1 Multiplicity = 2

                         Standard orientation:
 ---------------------------------------------------------------------
 Center     Atomic      Atomic             Coordinates (Angstroms)
 Number     Number       Type             X           Y           Z
 ---------------------------------------------------------------------
      1         16           0        1.793522   -1.702502   -0.000000
      2         16           0       -0.000189   -1.092412   -0.000000
      3         16           0        0.000000    1.091972    0.000000
      4         16           0       -1.793334    1.702943    0.000000
 ---------------------------------------------------------------------

 SCF Done:  E(UHF) =  -1589.77988446     A.U. after   89 cycles
 E2 =    -0.6979089501D+00 EUMP2 =    -0.15904777934082D+04
 CCSD(T)
 CCSD(T)= -0.15905714915D+04

 The electronic state is 2-A'.
 Alpha  occ. eigenvalues --  -92.28780 -92.28773 -92.23322 -92.23322  -9.28192
 Alpha  occ. eigenvalues --   -9.28177  -9.23193  -9.23191  -6.96208  -6.96202
 Alpha  occ. eigenvalues --   -6.96054  -6.96028  -6.95975  -6.95969  -6.92283
 Alpha  occ. eigenvalues --   -6.92281  -6.91060  -6.91060  -6.90991  -6.90990
 Alpha  occ. eigenvalues --   -1.35324  -1.29946  -1.10910  -1.00187  -0.79785
 Alpha  occ. eigenvalues --   -0.77043  -0.72509  -0.71814  -0.67502  -0.67300
 Alpha  occ. eigenvalues --   -0.60662  -0.52145
 Alpha virt. eigenvalues --   -0.27459  -0.14928  -0.09308  -0.07716  -0.05656
 Alpha virt. eigenvalues --   -0.05063  -0.04388  -0.02355  -0.02334  -0.01912
 Alpha virt. eigenvalues --   -0.01380  -0.00965  -0.00291  -0.00005   0.01991

  Beta  occ. eigenvalues --  -92.29135 -92.29128 -92.22452 -92.22452  -9.28625
  Beta  occ. eigenvalues --   -9.28615  -9.22335  -9.22334  -6.96745  -6.96726
  Beta  occ. eigenvalues --   -6.96632  -6.96626  -6.96404  -6.96398  -6.90584
  Beta  occ. eigenvalues --   -6.90583  -6.90147  -6.90146  -6.89075  -6.89075
  Beta  occ. eigenvalues --   -1.35653  -1.28702  -1.05900  -0.96672  -0.78896
  Beta  occ. eigenvalues --   -0.75101  -0.73924  -0.68846  -0.66783  -0.55474
  Beta  occ. eigenvalues --   -0.49059
  Beta virt. eigenvalues --   -0.28590  -0.25418  -0.14107  -0.08916  -0.07277
  Beta virt. eigenvalues --   -0.05201  -0.05102  -0.04419  -0.02286  -0.02253
  Beta virt. eigenvalues --   -0.01459  -0.01206  -0.00824  -0.00140   0.00326

 Mulliken charges and spin densities:
               1          2
     1  S    0.232889   0.772237
     2  S    0.267154  -0.272342
     3  S    0.267089  -0.272533
     4  S    0.232868   0.772638
 Sum of Mulliken charges =   1.00000   1.00000

 Dipole moment (field-independent basis, Debye):
    X=             -0.0009    Y=             -0.0001    Z=              0.0000  Tot=              0.0009
 Quadrupole moment (field-independent basis, Debye-Ang):
   XX=            -35.6633   YY=            -34.0748   ZZ=            -48.8366
   XY=             -9.0292   XZ=             -0.0000   YZ=             -0.0000

 90.5181485\MP4SDQ=-1590.5048543\CCSD=-1590.5079032\CCSD(T)=-1590.57149
 Normal termination of Gaussian 09 at Mon Oct 24 14:11:02 2016.
