 Gaussian 09, Revision E.01,
 Gaussian 09:  EM64L-G09RevE.01 30-Nov-2015

 ---------------------------------------------------------
 #p ccsd(t)/6-311++G(3df,2p) scf(MaxCyc=300) guess(Huckel)
 ---------------------------------------------------------

 -------------
 ccsd(t) iener
 -------------
 Symbolic Z-matrix:
 Charge =  1 Multiplicity = 4

                         Standard orientation:
 ---------------------------------------------------------------------
 Center     Atomic      Atomic             Coordinates (Angstroms)
 Number     Number       Type             X           Y           Z
 ---------------------------------------------------------------------
      1         16           0       -0.000000    1.304856    0.980758
      2         16           0       -0.000000   -1.304856    0.980758
      3         16           0        0.000000    1.146164   -0.980758
      4         16           0       -0.000000   -1.146164   -0.980758
 ---------------------------------------------------------------------

 SCF Done:  E(UHF) =  -1589.82686157     A.U. after   22 cycles
 E2 =    -0.6286285904D+00 EUMP2 =    -0.15904554901565D+04
 CCSD(T)
 CCSD(T)= -0.15905575094D+04

 The electronic state is 4-A1.
 Alpha  occ. eigenvalues --  -92.26670 -92.26670 -92.26136 -92.26136  -9.26412
 Alpha  occ. eigenvalues --   -9.26411  -9.25748  -9.25741  -6.95523  -6.95522
 Alpha  occ. eigenvalues --   -6.95000  -6.94998  -6.94228  -6.94228  -6.93970
 Alpha  occ. eigenvalues --   -6.93969  -6.93736  -6.93725  -6.93511  -6.93509
 Alpha  occ. eigenvalues --   -1.37510  -1.29482  -1.14906  -1.03602  -0.83253
 Alpha  occ. eigenvalues --   -0.79066  -0.77432  -0.72890  -0.71631  -0.64361
 Alpha  occ. eigenvalues --   -0.63869  -0.60812  -0.57177
 Alpha virt. eigenvalues --   -0.17246  -0.14039  -0.06790  -0.06639  -0.04746
 Alpha virt. eigenvalues --   -0.04615  -0.03860  -0.03267  -0.02932  -0.01575
 Alpha virt. eigenvalues --   -0.01258   0.00518   0.01458   0.01849   0.02744

  Beta  occ. eigenvalues --  -92.25698 -92.25698 -92.25174 -92.25174  -9.25288
  Beta  occ. eigenvalues --   -9.25280  -9.24894  -9.24890  -6.93499  -6.93499
  Beta  occ. eigenvalues --   -6.93319  -6.93305  -6.93226  -6.93226  -6.92522
  Beta  occ. eigenvalues --   -6.92522  -6.92085  -6.92081  -6.91555  -6.91555
  Beta  occ. eigenvalues --   -1.31755  -1.21888  -1.05211  -0.93900  -0.76408
  Beta  occ. eigenvalues --   -0.73740  -0.69427  -0.67363  -0.59085  -0.57677
  Beta virt. eigenvalues --   -0.25179  -0.24116  -0.17705  -0.12078  -0.11038
  Beta virt. eigenvalues --   -0.06597  -0.04710  -0.04376  -0.04208  -0.03631
  Beta virt. eigenvalues --   -0.02705  -0.02529  -0.01131  -0.00437   0.01535

 Mulliken charges and spin densities:
               1          2
     1  S    0.292140   1.200892
     2  S    0.292140   1.200892
     3  S    0.207860   0.299108
     4  S    0.207860   0.299108
 Sum of Mulliken charges =   1.00000   3.00000

 Dipole moment (field-independent basis, Debye):
    X=             -0.0000    Y=             -0.0000    Z=              0.5655  Tot=              0.5655
 Quadrupole moment (field-independent basis, Debye-Ang):
   XX=            -48.4038   YY=            -37.6356   ZZ=            -38.1964
   XY=             -0.0000   XZ=              0.0000   YZ=             -0.0000

 Normal termination of Gaussian 09 at Mon Oct 24 10:24:13 2016.
