 Gaussian 09, Revision E.01,
 Gaussian 09:  EM64L-G09RevE.01 30-Nov-2015

 ---------------------------------------------------------
 #p ccsd(t)/6-311++G(3df,2p) scf(MaxCyc=300) guess(Huckel)
 ---------------------------------------------------------

 -------------
 ccsd(t) iener
 -------------
 Symbolic Z-matrix:
 Charge =  0 Multiplicity = 1

                         Standard orientation:
 ---------------------------------------------------------------------
 Center     Atomic      Atomic             Coordinates (Angstroms)
 Number     Number       Type             X           Y           Z
 ---------------------------------------------------------------------
      1         16           0        0.000000    1.440141    0.312449
      2         16           0       -1.440141   -0.000000   -0.312449
      3         16           0        1.440141    0.000000   -0.312449
      4         16           0        0.000000   -1.440141    0.312449
 ---------------------------------------------------------------------

 SCF Done:  E(RHF) =  -1590.12702999     A.U. after   13 cycles
 E2 =    -0.6698580296D+00 EUMP2 =    -0.15907968880236D+04
 CCSD(T)
 CCSD(T)= -0.15908877734D+04

 The electronic state is 1-A1.
 Alpha  occ. eigenvalues --  -92.02652 -92.02652 -92.02652 -92.02652  -9.02418
 Alpha  occ. eigenvalues --   -9.02406  -9.02406  -9.02391  -6.70511  -6.70500
 Alpha  occ. eigenvalues --   -6.70500  -6.70482  -6.70465  -6.70445  -6.70445
 Alpha  occ. eigenvalues --   -6.70433  -6.70284  -6.70283  -6.70283  -6.70282
 Alpha  occ. eigenvalues --   -1.14186  -0.95706  -0.95706  -0.77537  -0.56381
 Alpha  occ. eigenvalues --   -0.55658  -0.53439  -0.47226  -0.47226  -0.39009
 Alpha  occ. eigenvalues --   -0.39009  -0.32907
 Alpha virt. eigenvalues --    0.01595   0.01595   0.06754   0.06945   0.08374
 Alpha virt. eigenvalues --    0.09321   0.09321   0.10098   0.10134   0.11709
 Alpha virt. eigenvalues --    0.11709   0.12214   0.15012   0.15012   0.15113

 Mulliken charges:
               1
     1  S    0.000000
     2  S    0.000000
     3  S    0.000000
     4  S    0.000000
 Sum of Mulliken charges =   0.00000

 Dipole moment (field-independent basis, Debye):
    X=             -0.0000    Y=              0.0000    Z=             -0.0000  Tot=              0.0000
 Quadrupole moment (field-independent basis, Debye-Ang):
   XX=            -49.6280   YY=            -49.6280   ZZ=            -55.6294
   XY=             -0.0000   XZ=             -0.0000   YZ=              0.0000

 4DQ=-1590.8397856\MP4SDQ=-1590.8463192\CCSD=-1590.844663\CCSD(T)=-1590
 Normal termination of Gaussian 09 at Mon Oct 24 09:46:07 2016.
