 Gaussian 09, Revision E.01,
 Gaussian 09:  EM64L-G09RevE.01 30-Nov-2015

 ---------------------------------------------------------
 #p ccsd(t)/6-311++G(3df,2p) scf(MaxCyc=300) guess(Huckel)
 ---------------------------------------------------------

 -------------
 ccsd(t) iener
 -------------
 Symbolic Z-matrix:
 Charge =  0 Multiplicity = 3

                         Standard orientation:
 ---------------------------------------------------------------------
 Center     Atomic      Atomic             Coordinates (Angstroms)
 Number     Number       Type             X           Y           Z
 ---------------------------------------------------------------------
      1         16           0        0.000000   -1.240963    1.003346
      2         16           0       -0.000000    1.240963    1.003346
      3         16           0        0.000000   -1.084019   -1.003346
      4         16           0       -0.000000    1.084019   -1.003346
 ---------------------------------------------------------------------

 SCF Done:  E(UHF) =  -1590.10369340     A.U. after   24 cycles
 E2 =    -0.6887909763D+00 EUMP2 =    -0.15907924843739D+04
 CCSD(T)
 CCSD(T)= -0.15908783827D+04

 The electronic state is 3-B1.
 Alpha  occ. eigenvalues --  -92.04925 -92.04925 -92.01622 -92.01622  -9.04601
 Alpha  occ. eigenvalues --   -9.04590  -9.01479  -9.01479  -6.73021  -6.73020
 Alpha  occ. eigenvalues --   -6.72671  -6.72649  -6.72450  -6.72447  -6.70159
 Alpha  occ. eigenvalues --   -6.70155  -6.69877  -6.69875  -6.69231  -6.69230
 Alpha  occ. eigenvalues --   -1.15144  -1.04137  -0.93862  -0.80552  -0.61429
 Alpha  occ. eigenvalues --   -0.56154  -0.56084  -0.48677  -0.47599  -0.44277
 Alpha  occ. eigenvalues --   -0.41832  -0.34737  -0.33861
 Alpha virt. eigenvalues --    0.02981   0.04566   0.07087   0.08031   0.09201
 Alpha virt. eigenvalues --    0.09307   0.09996   0.10337   0.11607   0.11779
 Alpha virt. eigenvalues --    0.13170   0.14174   0.14896   0.14926   0.16146

  Beta  occ. eigenvalues --  -92.04538 -92.04538 -92.00605 -92.00604  -9.04188
  Beta  occ. eigenvalues --   -9.04174  -9.00418  -9.00412  -6.72396  -6.72395
  Beta  occ. eigenvalues --   -6.72272  -6.72248  -6.71604  -6.71602  -6.68740
  Beta  occ. eigenvalues --   -6.68739  -6.67799  -6.67798  -6.67688  -6.67682
  Beta  occ. eigenvalues --   -1.11554  -0.98463  -0.88025  -0.73387  -0.55996
  Beta  occ. eigenvalues --   -0.53747  -0.50463  -0.47188  -0.38424  -0.38288
  Beta  occ. eigenvalues --   -0.30712
  Beta virt. eigenvalues --   -0.04053  -0.01853   0.03963   0.07244   0.07668
  Beta virt. eigenvalues --    0.08622   0.09289   0.10203   0.10789   0.11838
  Beta virt. eigenvalues --    0.12054   0.12570   0.12986   0.14495   0.15323

 Mulliken charges and spin densities:
               1          2
     1  S   -0.052261   0.741945
     2  S   -0.052261   0.741945
     3  S    0.052261   0.258055
     4  S    0.052261   0.258055
 Sum of Mulliken charges =  -0.00000   2.00000

 Dipole moment (field-independent basis, Debye):
    X=             -0.0000    Y=             -0.0000    Z=             -0.8099  Tot=              0.8099
 Quadrupole moment (field-independent basis, Debye-Ang):
   XX=            -54.9136   YY=            -51.7529   ZZ=            -48.9831
   XY=              0.0000   XZ=              0.0000   YZ=             -0.0000

 -0=-1590.8315539\MP4SDQ=-1590.8284353\CCSD=-1590.8280568\CCSD(T)=-1590
 Normal termination of Gaussian 09 at Mon Oct 24 11:06:18 2016.
