 Gaussian 09, Revision E.01,
 Gaussian 09:  EM64L-G09RevE.01 30-Nov-2015

 ---------------------------------------------------------
 #p ccsd(t)/6-311++G(3df,2p) scf(MaxCyc=300) guess(Huckel)
 ---------------------------------------------------------

 -------------
 ccsd(t) iener
 -------------
 Symbolic Z-matrix:
 Charge =  0 Multiplicity = 3

                         Standard orientation:
 ---------------------------------------------------------------------
 Center     Atomic      Atomic             Coordinates (Angstroms)
 Number     Number       Type             X           Y           Z
 ---------------------------------------------------------------------
      1         16           0       -1.866862   -1.641245   -0.000000
      2         16           0       -0.000006   -1.120913   -0.000000
      3         16           0        0.000000    1.120754    0.000000
      4         16           0        1.866868    1.641404    0.000000
 ---------------------------------------------------------------------

 SCF Done:  E(UHF) =  -1590.15641625     A.U. after   20 cycles
 E2 =    -0.6409990532D+00 EUMP2 =    -0.15907974153062D+04
 CCSD(T)
 CCSD(T)= -0.15908950855D+04

 The electronic state is 3-A'.
 Alpha  occ. eigenvalues --  -92.04368 -92.04367 -92.00997 -92.00996  -9.04073
 Alpha  occ. eigenvalues --   -9.04064  -9.01028  -9.01027  -6.72534  -6.72533
 Alpha  occ. eigenvalues --   -6.72079  -6.72067  -6.71941  -6.71935  -6.70377
 Alpha  occ. eigenvalues --   -6.70377  -6.68899  -6.68898  -6.68725  -6.68724
 Alpha  occ. eigenvalues --   -1.13190  -1.07967  -0.90002  -0.81595  -0.57277
 Alpha  occ. eigenvalues --   -0.56327  -0.54910  -0.52256  -0.49210  -0.43318
 Alpha  occ. eigenvalues --   -0.41052  -0.36385  -0.35750
 Alpha virt. eigenvalues --    0.03312   0.05592   0.07186   0.07879   0.08359
 Alpha virt. eigenvalues --    0.08569   0.10716   0.10726   0.11893   0.13124
 Alpha virt. eigenvalues --    0.13308   0.13590   0.14064   0.14346   0.14866

  Beta  occ. eigenvalues --  -92.04046 -92.04045 -92.00140 -92.00139  -9.03751
  Beta  occ. eigenvalues --   -9.03742  -9.00178  -9.00177  -6.71932  -6.71924
  Beta  occ. eigenvalues --   -6.71864  -6.71854  -6.71133  -6.71132  -6.68477
  Beta  occ. eigenvalues --   -6.68477  -6.68237  -6.68236  -6.66813  -6.66812
  Beta  occ. eigenvalues --   -1.10344  -1.04145  -0.82870  -0.75233  -0.55986
  Beta  occ. eigenvalues --   -0.53188  -0.47976  -0.47175  -0.41574  -0.39678
  Beta  occ. eigenvalues --   -0.34877
  Beta virt. eigenvalues --   -0.01099   0.00681   0.03984   0.05991   0.07301
  Beta virt. eigenvalues --    0.08130   0.08362   0.09066   0.10786   0.11601
  Beta virt. eigenvalues --    0.12690   0.13242   0.13464   0.14360   0.14712

 Mulliken charges and spin densities:
               1          2
     1  S   -0.051214   0.789824
     2  S    0.051222   0.210185
     3  S    0.051213   0.210093
     4  S   -0.051220   0.789898
 Sum of Mulliken charges =  -0.00000   2.00000

 Dipole moment (field-independent basis, Debye):
    X=              0.0002    Y=             -0.0002    Z=             -0.0000  Tot=              0.0002
 Quadrupole moment (field-independent basis, Debye-Ang):
   XX=            -51.0931   YY=            -53.0799   ZZ=            -52.0254
   XY=              0.7652   XZ=              0.0000   YZ=              0.0000

 0.8498599\MP4SDQ=-1590.8514148\CCSD=-1590.8522954\CCSD(T)=-1590.895085
 Normal termination of Gaussian 09 at Mon Oct 24 14:05:09 2016.
