 Gaussian 09, Revision E.01,
 Gaussian 09:  EM64L-G09RevE.01 30-Nov-2015

 ---------------------------------------------------------
 #p ccsd(t)/6-311++G(3df,2p) scf(MaxCyc=300) guess(Huckel)
 ---------------------------------------------------------

 -------------
 ccsd(t) iener
 -------------
 Symbolic Z-matrix:
 Charge =  0 Multiplicity = 1

                         Standard orientation:
 ---------------------------------------------------------------------
 Center     Atomic      Atomic             Coordinates (Angstroms)
 Number     Number       Type             X           Y           Z
 ---------------------------------------------------------------------
      1         16           0        0.000000    1.643396    0.910524
      2         16           0       -0.000000    1.057479   -0.910524
      3         16           0       -0.000000   -1.057479   -0.910524
      4         16           0       -0.000000   -1.643396    0.910524
 ---------------------------------------------------------------------

 SCF Done:  E(RHF) =  -1590.10339693     A.U. after   16 cycles
 E2 =    -0.7412213404D+00 EUMP2 =    -0.15908446182692D+04
 CCSD(T)
 CCSD(T)= -0.15909147685D+04

 The electronic state is 1-A1.
 Alpha  occ. eigenvalues --  -92.08493 -92.08493 -91.98841 -91.98841  -9.07915
 Alpha  occ. eigenvalues --   -9.07900  -8.98877  -8.98876  -6.75985  -6.75958
 Alpha  occ. eigenvalues --   -6.75902  -6.75900  -6.75874  -6.75868  -6.67001
 Alpha  occ. eigenvalues --   -6.67001  -6.66842  -6.66842  -6.66767  -6.66767
 Alpha  occ. eigenvalues --   -1.15364  -1.06284  -0.89274  -0.76845  -0.59556
 Alpha  occ. eigenvalues --   -0.55811  -0.54036  -0.49844  -0.44477  -0.38294
 Alpha  occ. eigenvalues --   -0.37217  -0.30721
 Alpha virt. eigenvalues --   -0.07429   0.05045   0.05219   0.06969   0.07908
 Alpha virt. eigenvalues --    0.08757   0.10319   0.10404   0.11371   0.11747
 Alpha virt. eigenvalues --    0.12203   0.12390   0.13984   0.14635   0.14931

 Mulliken charges:
               1
     1  S   -0.132432
     2  S    0.132432
     3  S    0.132432
     4  S   -0.132432
 Sum of Mulliken charges =  -0.00000

 Dipole moment (field-independent basis, Debye):
    X=              0.0000    Y=             -0.0000    Z=             -1.8269  Tot=              1.8269
 Quadrupole moment (field-independent basis, Debye-Ang):
   XX=            -52.8184   YY=            -54.5375   ZZ=            -49.5846
   XY=             -0.0000   XZ=              0.0000   YZ=              0.0000

 85\MP4DQ=-1590.8465335\MP4SDQ=-1590.8574844\CCSD=-1590.855012\CCSD(T)=
 Normal termination of Gaussian 09 at Mon Oct 24 10:00:47 2016.
