 Gaussian 09, Revision E.01,
 Gaussian 09:  EM64L-G09RevE.01 30-Nov-2015

 ---------------------------------------------------------
 #p ccsd(t)/6-311++G(3df,2p) scf(MaxCyc=300) guess(Huckel)
 ---------------------------------------------------------

 -------------
 ccsd(t) iener
 -------------
 Symbolic Z-matrix:
 Charge =  0 Multiplicity = 1

                         Standard orientation:
 ---------------------------------------------------------------------
 Center     Atomic      Atomic             Coordinates (Angstroms)
 Number     Number       Type             X           Y           Z
 ---------------------------------------------------------------------
      1         16           0        0.000000    1.440143    0.312293
      2         16           0       -1.440143   -0.000000   -0.312293
      3         16           0        1.440143   -0.000000   -0.312293
      4         16           0       -0.000000   -1.440143    0.312293
 ---------------------------------------------------------------------

 SCF Done:  E(RHF) =  -1590.12704036     A.U. after   13 cycles
 E2 =    -0.6698505131D+00 EUMP2 =    -0.15907968908683D+04
 CCSD(T)
 CCSD(T)= -0.15908877738D+04

 The electronic state is 1-A1.
 Alpha  occ. eigenvalues --  -92.02651 -92.02651 -92.02651 -92.02651  -9.02417
 Alpha  occ. eigenvalues --   -9.02405  -9.02405  -9.02390  -6.70511  -6.70500
 Alpha  occ. eigenvalues --   -6.70500  -6.70482  -6.70465  -6.70445  -6.70445
 Alpha  occ. eigenvalues --   -6.70433  -6.70284  -6.70282  -6.70282  -6.70281
 Alpha  occ. eigenvalues --   -1.14190  -0.95708  -0.95708  -0.77535  -0.56386
 Alpha  occ. eigenvalues --   -0.55660  -0.53442  -0.47226  -0.47226  -0.39011
 Alpha  occ. eigenvalues --   -0.39011  -0.32904
 Alpha virt. eigenvalues --    0.01595   0.01595   0.06754   0.06946   0.08378
 Alpha virt. eigenvalues --    0.09321   0.09321   0.10097   0.10133   0.11710
 Alpha virt. eigenvalues --    0.11710   0.12215   0.15012   0.15012   0.15116

 Mulliken charges:
               1
     1  S    0.000000
     2  S    0.000000
     3  S    0.000000
     4  S    0.000000
 Sum of Mulliken charges =   0.00000

 Dipole moment (field-independent basis, Debye):
    X=              0.0000    Y=             -0.0000    Z=             -0.0000  Tot=              0.0000
 Quadrupole moment (field-independent basis, Debye-Ang):
   XX=            -49.6274   YY=            -49.6274   ZZ=            -55.6303
   XY=             -0.0000   XZ=             -0.0000   YZ=              0.0000

 2\MP4DQ=-1590.8397893\MP4SDQ=-1590.8463222\CCSD=-1590.844666\CCSD(T)=-
 Normal termination of Gaussian 09 at Mon Oct 24 10:41:55 2016.
