 Gaussian 09, Revision E.01,
 Gaussian 09:  EM64L-G09RevE.01 30-Nov-2015

 ---------------------------------------------------------
 #p ccsd(t)/6-311++G(3df,2p) scf(MaxCyc=300) guess(Huckel)
 ---------------------------------------------------------

 -------------
 ccsd(t) iener
 -------------
 Symbolic Z-matrix:
 Charge =  0 Multiplicity = 3

                         Standard orientation:
 ---------------------------------------------------------------------
 Center     Atomic      Atomic             Coordinates (Angstroms)
 Number     Number       Type             X           Y           Z
 ---------------------------------------------------------------------
      1         16           0       -0.000000   -1.588190    0.938233
      2         16           0       -0.000000   -1.252356   -0.938233
      3         16           0        0.000000    1.252356   -0.938233
      4         16           0        0.000000    1.588190    0.938233
 ---------------------------------------------------------------------

 SCF Done:  E(UHF) =  -1590.13963312     A.U. after   23 cycles
 E2 =    -0.6665936108D+00 EUMP2 =    -0.15908062267341D+04
 CCSD(T)
 CCSD(T)= -0.15908995789D+04

 The electronic state is 3-B2.
 Alpha  occ. eigenvalues --  -92.03473 -92.03473 -92.01035 -92.01035  -9.03166
 Alpha  occ. eigenvalues --   -9.03162  -9.01038  -9.01037  -6.71708  -6.71708
 Alpha  occ. eigenvalues --   -6.71132  -6.71129  -6.71005  -6.71003  -6.70308
 Alpha  occ. eigenvalues --   -6.70308  -6.68890  -6.68890  -6.68812  -6.68812
 Alpha  occ. eigenvalues --   -1.12120  -1.08147  -0.87608  -0.81225  -0.56311
 Alpha  occ. eigenvalues --   -0.55434  -0.53689  -0.52041  -0.51110  -0.40257
 Alpha  occ. eigenvalues --   -0.39920  -0.35715  -0.35433
 Alpha virt. eigenvalues --    0.00030   0.05230   0.07402   0.07842   0.08833
 Alpha virt. eigenvalues --    0.09277   0.10340   0.11239   0.11547   0.12873
 Alpha virt. eigenvalues --    0.13066   0.13876   0.14607   0.15770   0.16450

  Beta  occ. eigenvalues --  -92.03129 -92.03129 -92.00188 -92.00188  -9.02828
  Beta  occ. eigenvalues --   -9.02824  -9.00199  -9.00198  -6.71009  -6.71006
  Beta  occ. eigenvalues --   -6.70953  -6.70951  -6.70129  -6.70129  -6.68480
  Beta  occ. eigenvalues --   -6.68480  -6.68234  -6.68234  -6.66890  -6.66890
  Beta  occ. eigenvalues --   -1.09132  -1.04669  -0.80717  -0.74225  -0.55471
  Beta  occ. eigenvalues --   -0.52160  -0.49284  -0.45205  -0.40188  -0.38522
  Beta  occ. eigenvalues --   -0.33826
  Beta virt. eigenvalues --   -0.01608   0.00785   0.02260   0.05608   0.07475
  Beta virt. eigenvalues --    0.07908   0.09167   0.09427   0.10341   0.11589
  Beta virt. eigenvalues --    0.12638   0.12931   0.13382   0.13953   0.15390

 Mulliken charges and spin densities:
               1          2
     1  S   -0.002996   0.762481
     2  S    0.002996   0.237519
     3  S    0.002996   0.237519
     4  S   -0.002996   0.762481
 Sum of Mulliken charges =  -0.00000   2.00000

 Dipole moment (field-independent basis, Debye):
    X=             -0.0000    Y=              0.0000    Z=             -0.1611  Tot=              0.1611
 Quadrupole moment (field-independent basis, Debye-Ang):
   XX=            -52.2450   YY=            -53.7450   ZZ=            -49.0144
   XY=             -0.0000   XZ=             -0.0000   YZ=             -0.0000

 0=-1590.8507045\MP4SDQ=-1590.8504427\CCSD=-1590.8511816\CCSD(T)=-1590.
 Normal termination of Gaussian 09 at Mon Oct 24 12:52:05 2016.
