 Gaussian 09, Revision E.01,
 Gaussian 09:  EM64L-G09RevE.01 30-Nov-2015

 ---------------------------------------------------------
 #p ccsd(t)/6-311++G(3df,2p) scf(MaxCyc=300) guess(Huckel)
 ---------------------------------------------------------

 -------------
 ccsd(t) iener
 -------------
 Symbolic Z-matrix:
 Charge =  1 Multiplicity = 2

                         Standard orientation:
 ---------------------------------------------------------------------
 Center     Atomic      Atomic             Coordinates (Angstroms)
 Number     Number       Type             X           Y           Z
 ---------------------------------------------------------------------
      1         16           0       -0.000003   -1.220524    0.450527
      2         16           0        1.491409   -0.000000   -0.450525
      3         16           0       -0.000003    1.220525    0.450526
      4         16           0       -1.491403   -0.000001   -0.450528
 ---------------------------------------------------------------------

 SCF Done:  E(UHF) =  -1589.80623923     A.U. after   24 cycles
 E2 =    -0.6601405084D+00 EUMP2 =    -0.15904663797402D+04
 CCSD(T)
 CCSD(T)= -0.15905548485D+04

 The electronic state is 2-A.
 Alpha  occ. eigenvalues --  -92.29502 -92.29502 -92.25237 -92.25237  -9.28921
 Alpha  occ. eigenvalues --   -9.28920  -9.24899  -9.24897  -6.97856  -6.97852
 Alpha  occ. eigenvalues --   -6.96744  -6.96743  -6.96650  -6.96649  -6.92942
 Alpha  occ. eigenvalues --   -6.92942  -6.92844  -6.92844  -6.92664  -6.92664
 Alpha  occ. eigenvalues --   -1.40862  -1.19154  -1.18891  -1.02757  -0.81768
 Alpha  occ. eigenvalues --   -0.77434  -0.77410  -0.73146  -0.69536  -0.60838
 Alpha  occ. eigenvalues --   -0.60007  -0.59000
 Alpha virt. eigenvalues --   -0.18860  -0.16038  -0.15259  -0.12449  -0.06951
 Alpha virt. eigenvalues --   -0.04091  -0.04011  -0.03565  -0.03299  -0.02495
 Alpha virt. eigenvalues --   -0.01908  -0.01693  -0.01239   0.01185   0.02469

  Beta  occ. eigenvalues --  -92.28826 -92.28826 -92.25227 -92.25227  -9.28250
  Beta  occ. eigenvalues --   -9.28244  -9.24884  -9.24882  -6.96331  -6.96330
  Beta  occ. eigenvalues --   -6.96330  -6.96328  -6.95118  -6.95114  -6.92911
  Beta  occ. eigenvalues --   -6.92911  -6.92843  -6.92843  -6.92661  -6.92661
  Beta  occ. eigenvalues --   -1.38405  -1.18534  -1.13396  -1.00264  -0.77782
  Beta  occ. eigenvalues --   -0.76121  -0.72734  -0.70623  -0.68033  -0.59972
  Beta  occ. eigenvalues --   -0.55478
  Beta virt. eigenvalues --   -0.23884  -0.17705  -0.15582  -0.14456  -0.11746
  Beta virt. eigenvalues --   -0.06889  -0.03936  -0.03523  -0.03401  -0.03214
  Beta virt. eigenvalues --   -0.02220  -0.01681  -0.01537  -0.01022   0.01409

 Mulliken charges and spin densities:
               1          2
     1  S    0.320989   0.503696
     2  S    0.179013  -0.003693
     3  S    0.320986   0.503690
     4  S    0.179013  -0.003693
 Sum of Mulliken charges =   1.00000   1.00000

 Dipole moment (field-independent basis, Debye):
    X=              0.0000    Y=             -0.0000    Z=              0.0252  Tot=              0.0252
 Quadrupole moment (field-independent basis, Debye-Ang):
   XX=            -39.1060   YY=            -38.2419   ZZ=            -48.1731
   XY=             -0.0000   XZ=             -0.0000   YZ=             -0.0000

 29\CCSD=-1590.5087819\CCSD(T)=-1590.5548485\S2=0.778868\S2-1=0.756701\
 Normal termination of Gaussian 09 at Mon Oct 24 14:14:23 2016.
