 Gaussian 09, Revision E.01,
 Gaussian 09:  EM64L-G09RevE.01 30-Nov-2015

 ---------------------------------------------------------
 #p ccsd(t)/6-311++G(3df,2p) scf(MaxCyc=300) guess(Huckel)
 ---------------------------------------------------------

 -------------
 ccsd(t) iener
 -------------
 Symbolic Z-matrix:
 Charge =  1 Multiplicity = 2

                         Standard orientation:
 ---------------------------------------------------------------------
 Center     Atomic      Atomic             Coordinates (Angstroms)
 Number     Number       Type             X           Y           Z
 ---------------------------------------------------------------------
      1         16           0       -0.000000    1.472763    0.000050
      2         16           0        1.472763   -0.000000   -0.000050
      3         16           0       -0.000000   -1.472763    0.000050
      4         16           0       -1.472763    0.000000   -0.000050
 ---------------------------------------------------------------------

 SCF Done:  E(UHF) =  -1589.85019798     A.U. after   15 cycles
 E2 =    -0.6622578889D+00 EUMP2 =    -0.15905124558724D+04
 CCSD(T)
 CCSD(T)= -0.15905975842D+04

 The electronic state is 2-A.
 Alpha  occ. eigenvalues --  -92.27347 -92.27347 -92.27347 -92.27347  -9.26951
 Alpha  occ. eigenvalues --   -9.26938  -9.26938  -9.26921  -6.95402  -6.95400
 Alpha  occ. eigenvalues --   -6.95400  -6.95399  -6.94915  -6.94898  -6.94898
 Alpha  occ. eigenvalues --   -6.94875  -6.94803  -6.94780  -6.94780  -6.94765
 Alpha  occ. eigenvalues --   -1.39475  -1.21241  -1.21241  -1.00427  -0.82436
 Alpha  occ. eigenvalues --   -0.79457  -0.78686  -0.68259  -0.68259  -0.66947
 Alpha  occ. eigenvalues --   -0.66947  -0.54753
 Alpha virt. eigenvalues --   -0.19549  -0.19549  -0.08111  -0.07374  -0.06921
 Alpha virt. eigenvalues --   -0.04600  -0.04121  -0.04121  -0.03958  -0.03363
 Alpha virt. eigenvalues --   -0.01210  -0.01210   0.01143   0.01843   0.01843

  Beta  occ. eigenvalues --  -92.26952 -92.26952 -92.26952 -92.26952  -9.26556
  Beta  occ. eigenvalues --   -9.26541  -9.26541  -9.26521  -6.94683  -6.94677
  Beta  occ. eigenvalues --   -6.94677  -6.94675  -6.94642  -6.94640  -6.94640
  Beta  occ. eigenvalues --   -6.94636  -6.93788  -6.93785  -6.93785  -6.93782
  Beta  occ. eigenvalues --   -1.38014  -1.18805  -1.18805  -0.95797  -0.82148
  Beta  occ. eigenvalues --   -0.77853  -0.74298  -0.67345  -0.67345  -0.57764
  Beta  occ. eigenvalues --   -0.57764
  Beta virt. eigenvalues --   -0.24505  -0.18942  -0.18942  -0.07279  -0.07038
  Beta virt. eigenvalues --   -0.06611  -0.04547  -0.04107  -0.04107  -0.03996
  Beta virt. eigenvalues --   -0.03320  -0.01038  -0.01038   0.01608   0.01955

 Mulliken charges and spin densities:
               1          2
     1  S    0.250000   0.250000
     2  S    0.250000   0.250000
     3  S    0.250000   0.250000
     4  S    0.250000   0.250000
 Sum of Mulliken charges =   1.00000   1.00000

 Dipole moment (field-independent basis, Debye):
    X=             -0.0000    Y=             -0.0000    Z=             -0.0000  Tot=              0.0000
 Quadrupole moment (field-independent basis, Debye-Ang):
   XX=            -37.3545   YY=            -37.3545   ZZ=            -50.4449
   XY=             -0.0000   XZ=              0.0000   YZ=             -0.0000

 8\CCSD=-1590.5518799\CCSD(T)=-1590.5975842\S2=0.779037\S2-1=0.756788\S
 Normal termination of Gaussian 09 at Mon Oct 24 13:02:21 2016.
