 Gaussian 09, Revision E.01,
 Gaussian 09:  EM64L-G09RevE.01 30-Nov-2015

 ---------------------------------------------------------
 #p ccsd(t)/6-311++G(3df,2p) scf(MaxCyc=300) guess(Huckel)
 ---------------------------------------------------------

 -------------
 ccsd(t) iener
 -------------
 Symbolic Z-matrix:
 Charge =  1 Multiplicity = 2

                         Standard orientation:
 ---------------------------------------------------------------------
 Center     Atomic      Atomic             Coordinates (Angstroms)
 Number     Number       Type             X           Y           Z
 ---------------------------------------------------------------------
      1         16           0        0.000000   -1.612803    0.907888
      2         16           0        0.000000   -1.164117   -0.907888
      3         16           0        0.000000    1.164117   -0.907888
      4         16           0        0.000000    1.612803    0.907888
 ---------------------------------------------------------------------

 SCF Done:  E(UHF) =  -1589.83383020     A.U. after   22 cycles
 E2 =    -0.6548647056D+00 EUMP2 =    -0.15904886949099D+04
 CCSD(T)
 CCSD(T)= -0.15905929735D+04

 The electronic state is 2-B1.
 Alpha  occ. eigenvalues --  -92.27814 -92.27814 -92.23481 -92.23481  -9.27312
 Alpha  occ. eigenvalues --   -9.27303  -9.23483  -9.23482  -6.95378  -6.95375
 Alpha  occ. eigenvalues --   -6.95259  -6.95250  -6.94702  -6.94702  -6.92714
 Alpha  occ. eigenvalues --   -6.92714  -6.91316  -6.91316  -6.91175  -6.91175
 Alpha  occ. eigenvalues --   -1.35698  -1.30769  -1.09470  -0.99265  -0.79686
 Alpha  occ. eigenvalues --   -0.76094  -0.74846  -0.72172  -0.70605  -0.62168
 Alpha  occ. eigenvalues --   -0.57431  -0.53798
 Alpha virt. eigenvalues --   -0.27537  -0.16934  -0.10168  -0.06995  -0.04932
 Alpha virt. eigenvalues --   -0.04805  -0.04150  -0.03460  -0.03125  -0.01753
 Alpha virt. eigenvalues --   -0.01542  -0.01223   0.01154   0.01464   0.02381

  Beta  occ. eigenvalues --  -92.28230 -92.28229 -92.22618 -92.22618  -9.27733
  Beta  occ. eigenvalues --   -9.27727  -9.22627  -9.22626  -6.96177  -6.96176
  Beta  occ. eigenvalues --   -6.95696  -6.95689  -6.95572  -6.95568  -6.90849
  Beta  occ. eigenvalues --   -6.90849  -6.90540  -6.90540  -6.89286  -6.89285
  Beta  occ. eigenvalues --   -1.35191  -1.29224  -1.04870  -0.96794  -0.79581
  Beta  occ. eigenvalues --   -0.75119  -0.72835  -0.71441  -0.66376  -0.60439
  Beta  occ. eigenvalues --   -0.55873
  Beta virt. eigenvalues --   -0.21969  -0.18420  -0.17827  -0.09773  -0.06787
  Beta virt. eigenvalues --   -0.04714  -0.04678  -0.03934  -0.03438  -0.02657
  Beta virt. eigenvalues --   -0.01525  -0.01458  -0.00476   0.01417   0.01523

 Mulliken charges and spin densities:
               1          2
     1  S    0.252648   0.808017
     2  S    0.247352  -0.308017
     3  S    0.247352  -0.308017
     4  S    0.252648   0.808017
 Sum of Mulliken charges =   1.00000   1.00000

 Dipole moment (field-independent basis, Debye):
    X=              0.0000    Y=              0.0000    Z=             -0.0757  Tot=              0.0757
 Quadrupole moment (field-independent basis, Debye-Ang):
   XX=            -46.2525   YY=            -36.5968   ZZ=            -39.7658
   XY=              0.0000   XZ=              0.0000   YZ=             -0.0000

 1608\CCSD=-1590.5397679\CCSD(T)=-1590.5929735\S2=1.211106\S2-1=1.13529
 Normal termination of Gaussian 09 at Mon Oct 24 11:48:30 2016.
