 Gaussian 09, Revision E.01,
 Gaussian 09:  EM64L-G09RevE.01 30-Nov-2015

 ---------------------------------------------------------
 #p ccsd(t)/6-311++G(3df,2p) scf(MaxCyc=300) guess(Huckel)
 ---------------------------------------------------------

 -------------
 ccsd(t) iener
 -------------
 Symbolic Z-matrix:
 Charge =  0 Multiplicity = 1

                         Standard orientation:
 ---------------------------------------------------------------------
 Center     Atomic      Atomic             Coordinates (Angstroms)
 Number     Number       Type             X           Y           Z
 ---------------------------------------------------------------------
      1         16           0       -1.282046   -1.586152    0.000000
      2         16           0       -0.081762   -0.728712    1.481631
      3         16           0        1.527333    2.028326   -0.000000
      4         16           0       -0.081762   -0.728712   -1.481631
      5         16           0       -0.081762    1.015251   -0.000000
 ---------------------------------------------------------------------

 SCF Done:  E(RHF) =  -1987.63999680     A.U. after   18 cycles
 E2 =    -0.8721273045D+00 EUMP2 =    -0.19885121241027D+04
 CCSD(T)
 CCSD(T)= -0.19886191089D+04

 The electronic state is 1-A'.
 Alpha  occ. eigenvalues --  -92.12412 -92.03710 -92.03297 -92.03297 -91.96770
 Alpha  occ. eigenvalues --   -9.11296  -9.03500  -9.03081  -9.03080  -8.96985
 Alpha  occ. eigenvalues --   -6.79360  -6.79323  -6.79212  -6.71604  -6.71549
 Alpha  occ. eigenvalues --   -6.71393  -6.71145  -6.71145  -6.71089  -6.71089
 Alpha  occ. eigenvalues --   -6.70932  -6.70932  -6.65166  -6.64946  -6.64895
 Alpha  occ. eigenvalues --   -1.16411  -1.07362  -0.96454  -0.87640  -0.78052
 Alpha  occ. eigenvalues --   -0.58487  -0.58149  -0.55623  -0.51357  -0.50376
 Alpha  occ. eigenvalues --   -0.46706  -0.40471  -0.37658  -0.36684  -0.33491
 Alpha virt. eigenvalues --   -0.01158  -0.00327   0.05629   0.05631   0.05974
 Alpha virt. eigenvalues --    0.07274   0.08625   0.09061   0.10380   0.10519
 Alpha virt. eigenvalues --    0.11071   0.11167   0.12622   0.13441   0.13654

 Mulliken charges:
               1
     1  S    0.151296
     2  S   -0.259424
     3  S   -0.514732
     4  S   -0.259424
     5  S    0.882283
 Sum of Mulliken charges =  -0.00000

 Dipole moment (field-independent basis, Debye):
    X=             -1.1691    Y=             -1.0554    Z=             -0.0000  Tot=              1.5750
 Quadrupole moment (field-independent basis, Debye-Ang):
   XX=            -67.8917   YY=            -66.4976   ZZ=            -63.6182
   XY=              0.4863   XZ=              0.0000   YZ=             -0.0000

 DQ=-1988.5601024\CCSD=-1988.5564681\CCSD(T)=-1988.6191089\RMSD=8.327e-
 Normal termination of Gaussian 09 at Tue Oct 25 00:39:29 2016.
