 Gaussian 09, Revision E.01,
 Gaussian 09:  EM64L-G09RevE.01 30-Nov-2015

 ---------------------------------------------------------
 #p ccsd(t)/6-311++G(3df,2p) scf(MaxCyc=300) guess(Huckel)
 ---------------------------------------------------------

 -------------
 ccsd(t) iener
 -------------
 Symbolic Z-matrix:
 Charge =  1 Multiplicity = 4

                         Standard orientation:
 ---------------------------------------------------------------------
 Center     Atomic      Atomic             Coordinates (Angstroms)
 Number     Number       Type             X           Y           Z
 ---------------------------------------------------------------------
      1         16           0       -0.144851    1.370284    1.406996
      2         16           0       -0.144851   -0.578474    1.690376
      3         16           0        0.579403   -1.583618    0.000000
      4         16           0       -0.144851   -0.578474   -1.690376
      5         16           0       -0.144851    1.370284   -1.406996
 ---------------------------------------------------------------------

 SCF Done:  E(UHF) =  -1987.38577054     A.U. after   25 cycles
 E2 =    -0.8045323208D+00 EUMP2 =    -0.19881903028603D+04
 CCSD(T)
 CCSD(T)= -0.19883100572D+04

 The electronic state is 4-A'.
 Alpha  occ. eigenvalues --  -92.24912 -92.24912 -92.24727 -92.24727 -92.22497
 Alpha  occ. eigenvalues --   -9.24595  -9.24593  -9.24510  -9.24508  -9.22292
 Alpha  occ. eigenvalues --   -6.93555  -6.93555  -6.93204  -6.93203  -6.93164
 Alpha  occ. eigenvalues --   -6.93164  -6.92511  -6.92510  -6.92448  -6.92448
 Alpha  occ. eigenvalues --   -6.92081  -6.92080  -6.90529  -6.90244  -6.90158
 Alpha  occ. eigenvalues --   -1.35528  -1.30800  -1.21892  -1.09454  -1.01323
 Alpha  occ. eigenvalues --   -0.79262  -0.78424  -0.76226  -0.74029  -0.72837
 Alpha  occ. eigenvalues --   -0.69294  -0.66927  -0.63559  -0.60980  -0.56272
 Alpha  occ. eigenvalues --   -0.54659
 Alpha virt. eigenvalues --   -0.13823  -0.13072  -0.10256  -0.06490  -0.05005
 Alpha virt. eigenvalues --   -0.04177  -0.03384  -0.03304  -0.02386  -0.01738
 Alpha virt. eigenvalues --   -0.01553  -0.00488  -0.00428   0.00581   0.01487

  Beta  occ. eigenvalues --  -92.24502 -92.24502 -92.23224 -92.23224 -92.22353
  Beta  occ. eigenvalues --   -9.24163  -9.24161  -9.22998  -9.22996  -9.22154
  Beta  occ. eigenvalues --   -6.92413  -6.92413  -6.92276  -6.92276  -6.91409
  Beta  occ. eigenvalues --   -6.91409  -6.91341  -6.91341  -6.90181  -6.90088
  Beta  occ. eigenvalues --   -6.90074  -6.90072  -6.89885  -6.89735  -6.89735
  Beta  occ. eigenvalues --   -1.31806  -1.25288  -1.15543  -0.99236  -0.94465
  Beta  occ. eigenvalues --   -0.75071  -0.73467  -0.71757  -0.66684  -0.66634
  Beta  occ. eigenvalues --   -0.60698  -0.56447  -0.54665
  Beta virt. eigenvalues --   -0.23502  -0.21246  -0.18737  -0.12734  -0.11291
  Beta virt. eigenvalues --   -0.08479  -0.06299  -0.04408  -0.03768  -0.02953
  Beta virt. eigenvalues --   -0.02065  -0.01520  -0.01049  -0.01029   0.00101

 Mulliken charges and spin densities:
               1          2
     1  S    0.231164   1.182474
     2  S    0.190288   0.257573
     3  S    0.157097   0.119906
     4  S    0.190288   0.257573
     5  S    0.231164   1.182474
 Sum of Mulliken charges =   1.00000   3.00000

 Dipole moment (field-independent basis, Debye):
    X=             -0.1386    Y=              1.1148    Z=             -0.0000  Tot=              1.1234
 Quadrupole moment (field-independent basis, Debye-Ang):
   XX=            -61.0223   YY=            -48.5668   ZZ=            -47.4602
   XY=             -1.6824   XZ=             -0.0000   YZ=              0.0000

 88.2506252\CCSD=-1988.2515872\CCSD(T)=-1988.3100572\S2=3.835966\S2-1=3
 Normal termination of Gaussian 09 at Wed Oct 26 05:18:41 2016.
