 Gaussian 09, Revision E.01,
 Gaussian 09:  EM64L-G09RevE.01 30-Nov-2015

 ------------------------------------------
 #p ccsd(t)/6-311+G(3df) scf(QC,MaxCyc=300)
 ------------------------------------------

 -------------
 ccsd(t) iener
 -------------
 Symbolic Z-matrix:
 Charge =  0 Multiplicity = 3

                         Standard orientation:
 ---------------------------------------------------------------------
 Center     Atomic      Atomic             Coordinates (Angstroms)
 Number     Number       Type             X           Y           Z
 ---------------------------------------------------------------------
      1         16           0       -1.450021    0.042270    0.867624
      2         16           0        0.000184    1.330960   -0.003619
      3         16           0        2.646213   -0.702638    0.477166
      4         16           0       -2.645204   -0.706382   -0.473498
      5         16           0        1.448827    0.035789   -0.867672
 ---------------------------------------------------------------------

 SCF Done:  E(UHF) =  -1987.70389741     a.u. after   14 cycles
 E2 =    -0.8077448315D+00 EUMP2 =    -0.19885116422458D+04
 CCSD(T)
 CCSD(T)= -0.19886320771D+04

 The electronic state is 3-A.
 Alpha  occ. eigenvalues --  -92.04381 -92.04380 -92.02304 -92.00898 -92.00898
 Alpha  occ. eigenvalues --   -9.04083  -9.04082  -9.02132  -9.00962  -9.00962
 Alpha  occ. eigenvalues --   -6.72436  -6.72436  -6.72184  -6.72184  -6.71991
 Alpha  occ. eigenvalues --   -6.71991  -6.70360  -6.70360  -6.70176  -6.70068
 Alpha  occ. eigenvalues --   -6.70034  -6.68824  -6.68824  -6.68652  -6.68652
 Alpha  occ. eigenvalues --   -1.13613  -1.10233  -0.99041  -0.87876  -0.79319
 Alpha  occ. eigenvalues --   -0.58849  -0.56686  -0.54820  -0.52475  -0.52359
 Alpha  occ. eigenvalues --   -0.50553  -0.41174  -0.40318  -0.39658  -0.37114
 Alpha  occ. eigenvalues --   -0.36735
 Alpha virt. eigenvalues --    0.04223   0.05411   0.06175   0.06534   0.06825
 Alpha virt. eigenvalues --    0.08738   0.09027   0.10335   0.10797   0.11153
 Alpha virt. eigenvalues --    0.11666   0.13005   0.13022   0.13263   0.13557

  Beta  occ. eigenvalues --  -92.04092 -92.04091 -92.02393 -91.99998 -91.99998
  Beta  occ. eigenvalues --   -9.03793  -9.03792  -9.02213  -9.00070  -9.00069
  Beta  occ. eigenvalues --   -6.71982  -6.71982  -6.71825  -6.71825  -6.71338
  Beta  occ. eigenvalues --   -6.71338  -6.70372  -6.70281  -6.70103  -6.68360
  Beta  occ. eigenvalues --   -6.68360  -6.68109  -6.68109  -6.66658  -6.66658
  Beta  occ. eigenvalues --   -1.11516  -1.06811  -0.95904  -0.81084  -0.74562
  Beta  occ. eigenvalues --   -0.57173  -0.53373  -0.53307  -0.50506  -0.44282
  Beta  occ. eigenvalues --   -0.42760  -0.39312  -0.37500  -0.36847
  Beta virt. eigenvalues --   -0.00818  -0.00612   0.04949   0.05895   0.06287
  Beta virt. eigenvalues --    0.06719   0.07133   0.08831   0.09998   0.10546
  Beta virt. eigenvalues --    0.11105   0.11805   0.11949   0.13233   0.13579

 Mulliken charges and spin densities:
               1          2
     1  S    0.136397   0.176938
     2  S    0.082338  -0.070434
     3  S   -0.178149   0.858423
     4  S   -0.177870   0.858290
     5  S    0.137284   0.176783
 Sum of Mulliken charges =   0.00000   2.00000

 Dipole moment (field-independent basis, Debye):
    X=              0.0001    Y=              0.0715    Z=             -0.0002  Tot=              0.0715
 Quadrupole moment (field-independent basis, Debye-Ang):
   XX=            -64.4516   YY=            -64.6592   ZZ=            -65.8136
   XY=              0.0020   XZ=              0.5891   YZ=             -0.0029

 4SDQ=-1988.5776675\CCSD=-1988.5785369\CCSD(T)=-1988.6320771\S2=2.04930
 Normal termination of Gaussian 09 at Thu Nov  3 07:41:01 2016.
