 Gaussian 09, Revision E.01,
 Gaussian 09:  EM64L-G09RevE.01 30-Nov-2015

 -------------------------------------------
 #p ccsd(t)/6-311++G(3df,2p) scf(MaxCyc=300)
 -------------------------------------------

 -------------
 ccsd(t) iener
 -------------
 Symbolic Z-matrix:
 Charge =  0 Multiplicity = 1

                         Standard orientation:
 ---------------------------------------------------------------------
 Center     Atomic      Atomic             Coordinates (Angstroms)
 Number     Number       Type             X           Y           Z
 ---------------------------------------------------------------------
      1         16           0       -0.002593   -0.002363    0.642694
      2         16           0       -1.276824    1.103259   -0.507421
      3         16           0       -2.265679   -0.620871    0.186463
      4         16           0        1.276233   -1.099177   -0.509977
      5         16           0        2.268863    0.619152    0.188241
 ---------------------------------------------------------------------

 SCF Done:  E(RHF) =  -1987.60804687     A.U. after   17 cycles
 E2 =    -0.8869238657D+00 EUMP2 =    -0.19884949707348D+04
 CCSD(T)
 CCSD(T)= -0.19885947036D+04

 The electronic state is 1-A.
 Alpha  occ. eigenvalues --  -92.14783 -92.04488 -92.04418 -91.98936 -91.98704
 Alpha  occ. eigenvalues --   -9.13618  -9.04306  -9.04237  -8.98844  -8.98617
 Alpha  occ. eigenvalues --   -6.81645  -6.81468  -6.81401  -6.72404  -6.72337
 Alpha  occ. eigenvalues --   -6.72307  -6.72237  -6.72157  -6.72090  -6.66953
 Alpha  occ. eigenvalues --   -6.66818  -6.66729  -6.66692  -6.66590  -6.66466
 Alpha  occ. eigenvalues --   -1.19787  -1.07936  -0.90147  -0.86779  -0.83526
 Alpha  occ. eigenvalues --   -0.61495  -0.58365  -0.55030  -0.50546  -0.46977
 Alpha  occ. eigenvalues --   -0.45836  -0.44701  -0.35361  -0.34829  -0.34024
 Alpha virt. eigenvalues --   -0.00237   0.02272   0.03820   0.04916   0.05513
 Alpha virt. eigenvalues --    0.05997   0.08786   0.09338   0.10657   0.10682
 Alpha virt. eigenvalues --    0.10945   0.11220   0.12100   0.12364   0.13400

 Mulliken charges:
               1
     1  S    0.868561
     2  S   -0.175116
     3  S   -0.255386
     4  S   -0.175785
     5  S   -0.262273
 Sum of Mulliken charges =  -0.00000

 Dipole moment (field-independent basis, Debye):
    X=             -0.0866    Y=             -0.0151    Z=             -0.0902  Tot=              0.1259
 Quadrupole moment (field-independent basis, Debye-Ang):
   XX=            -69.3460   YY=            -63.2203   ZZ=            -66.2189
   XY=             -2.6202   XZ=             -0.0090   YZ=             -0.0159

 4\MP4SDQ=-1988.5338433\CCSD=-1988.5302243\CCSD(T)=-1988.5947036\RMSD=5
 Normal termination of Gaussian 09 at Wed Nov  2 00:37:10 2016.
