 Gaussian 09, Revision E.01,
 Gaussian 09:  EM64L-G09RevE.01 30-Nov-2015

 ----------------------------------------------
 #p ccsd(t)/6-311++G(3df,2p) scf(QC,MaxCyc=300)
 ----------------------------------------------

 -------------
 ccsd(t) iener
 -------------
 Symbolic Z-matrix:
 Charge =  1 Multiplicity = 4

                         Standard orientation:
 ---------------------------------------------------------------------
 Center     Atomic      Atomic             Coordinates (Angstroms)
 Number     Number       Type             X           Y           Z
 ---------------------------------------------------------------------
      1         16           0       -1.525754    0.824927   -0.451443
      2         16           0       -0.001748   -0.002601    0.804019
      3         16           0        2.930464    0.428817    0.052012
      4         16           0       -2.929551   -0.429066    0.049857
      5         16           0        1.526588   -0.822076   -0.454444
 ---------------------------------------------------------------------

 SCF Done:  E(UHF) =  -1987.38551702     a.u. after   25 cycles
 E2 =    -0.7772667094D+00 EUMP2 =    -0.19881627837306D+04
 CCSD(T)
 CCSD(T)= -0.19883001466D+04

 The electronic state is 4-A.
 Alpha  occ. eigenvalues --  -92.29223 -92.24120 -92.24108 -92.20224 -92.20191
 Alpha  occ. eigenvalues --   -9.28816  -9.23810  -9.23797  -9.20173  -9.20141
 Alpha  occ. eigenvalues --   -6.98322  -6.96511  -6.96382  -6.92071  -6.92057
 Alpha  occ. eigenvalues --   -6.91809  -6.91796  -6.91638  -6.91625  -6.89576
 Alpha  occ. eigenvalues --   -6.89544  -6.88137  -6.88101  -6.87839  -6.87807
 Alpha  occ. eigenvalues --   -1.35730  -1.30057  -1.20948  -1.06435  -1.01325
 Alpha  occ. eigenvalues --   -0.79623  -0.77711  -0.76598  -0.72095  -0.71747
 Alpha  occ. eigenvalues --   -0.68860  -0.66324  -0.61252  -0.57732  -0.56722
 Alpha  occ. eigenvalues --   -0.55740
 Alpha virt. eigenvalues --   -0.15701  -0.13279  -0.08636  -0.07991  -0.05982
 Alpha virt. eigenvalues --   -0.04319  -0.03996  -0.02816  -0.02126  -0.01731
 Alpha virt. eigenvalues --   -0.01560  -0.01169   0.00251   0.00317   0.01748

  Beta  occ. eigenvalues --  -92.28236 -92.23921 -92.23910 -92.19116 -92.19085
  Beta  occ. eigenvalues --   -9.27833  -9.23613  -9.23601  -9.19076  -9.19046
  Beta  occ. eigenvalues --   -6.95960  -6.95920  -6.94189  -6.91782  -6.91771
  Beta  occ. eigenvalues --   -6.91675  -6.91663  -6.91067  -6.91056  -6.87364
  Beta  occ. eigenvalues --   -6.87334  -6.86859  -6.86835  -6.85530  -6.85501
  Beta  occ. eigenvalues --   -1.31291  -1.26440  -1.12343  -0.98796  -0.94182
  Beta  occ. eigenvalues --   -0.77269  -0.73203  -0.69984  -0.67978  -0.62782
  Beta  occ. eigenvalues --   -0.62659  -0.55084  -0.54982
  Beta virt. eigenvalues --   -0.24502  -0.17821  -0.16452  -0.13198  -0.12281
  Beta virt. eigenvalues --   -0.07752  -0.06657  -0.05444  -0.04154  -0.03828
  Beta virt. eigenvalues --   -0.02339  -0.01484  -0.01159  -0.00942  -0.00826

 Mulliken charges and spin densities:
               1          2
     1  S    0.171799   0.077031
     2  S    0.482249   0.860013
     3  S    0.085984   0.992245
     4  S    0.087134   0.994413
     5  S    0.172834   0.076297
 Sum of Mulliken charges =   1.00000   3.00000

 Dipole moment (field-independent basis, Debye):
    X=             -0.0109    Y=              0.0007    Z=              0.4412  Tot=              0.4413
 Quadrupole moment (field-independent basis, Debye-Ang):
   XX=            -36.1249   YY=            -57.0998   ZZ=            -59.3059
   XY=              0.9225   XZ=              0.0054   YZ=              0.0029

 2284779\MP4SDQ=-1988.2332408\CCSD=-1988.2411847\CCSD(T)=-1988.3001466\
 Normal termination of Gaussian 09 at Wed Nov  2 22:14:07 2016.
