 Gaussian 09, Revision E.01,
 Gaussian 09:  EM64L-G09RevE.01 30-Nov-2015

 ---------------------------------------------------------
 #p ccsd(t)/6-311++G(3df,2p) scf(MaxCyc=300) guess(Huckel)
 ---------------------------------------------------------

 -------------
 ccsd(t) iener
 -------------
 Symbolic Z-matrix:
 Charge =  0 Multiplicity = 1

                         Standard orientation:
 ---------------------------------------------------------------------
 Center     Atomic      Atomic             Coordinates (Angstroms)
 Number     Number       Type             X           Y           Z
 ---------------------------------------------------------------------
      1         16           0       -0.000000    1.344443   -0.262153
      2         16           0        0.000000   -0.000000    1.378152
      3         16           0       -1.596673   -2.398833   -0.426923
      4         16           0        1.596673    2.398833   -0.426923
      5         16           0       -0.000000   -1.344443   -0.262153
 ---------------------------------------------------------------------

 SCF Done:  E(RHF) =  -1987.61617664     A.U. after   20 cycles
 E2 =    -0.9188272172D+00 EUMP2 =    -0.19885350038557D+04
 CCSD(T)
 CCSD(T)= -0.19886284696D+04

 The electronic state is 1-A.
 Alpha  occ. eigenvalues --  -92.10356 -92.10356 -92.05072 -91.98181 -91.98181
 Alpha  occ. eigenvalues --   -9.09541  -9.09539  -9.04893  -8.98285  -8.98285
 Alpha  occ. eigenvalues --   -6.77606  -6.77604  -6.77503  -6.77502  -6.77446
 Alpha  occ. eigenvalues --   -6.77446  -6.72934  -6.72894  -6.72762  -6.66432
 Alpha  occ. eigenvalues --   -6.66432  -6.66250  -6.66250  -6.66188  -6.66188
 Alpha  occ. eigenvalues --   -1.16692  -1.09708  -0.99301  -0.82968  -0.80269
 Alpha  occ. eigenvalues --   -0.58868  -0.58174  -0.56385  -0.51795  -0.50627
 Alpha  occ. eigenvalues --   -0.45874  -0.41166  -0.38309  -0.37034  -0.29597
 Alpha virt. eigenvalues --   -0.08280   0.02107   0.03903   0.05902   0.06304
 Alpha virt. eigenvalues --    0.07335   0.08035   0.08952   0.10355   0.10456
 Alpha virt. eigenvalues --    0.10988   0.11027   0.12252   0.13173   0.13573

 Mulliken charges:
               1
     1  S    0.269239
     2  S    0.022470
     3  S   -0.280474
     4  S   -0.280474
     5  S    0.269239
 Sum of Mulliken charges =  -0.00000

 Dipole moment (field-independent basis, Debye):
    X=             -0.0000    Y=              0.0000    Z=              0.8740  Tot=              0.8740
 Quadrupole moment (field-independent basis, Debye-Ang):
   XX=            -68.5634   YY=            -68.6602   ZZ=            -65.0443
   XY=             -3.6951   XZ=              0.0000   YZ=              0.0000

 Q=-1988.5560866\CCSD=-1988.5534403\CCSD(T)=-1988.6284696\RMSD=2.687e-0
 Normal termination of Gaussian 09 at Mon Oct 24 15:09:34 2016.
