 Gaussian 09, Revision E.01,
 Gaussian 09:  EM64L-G09RevE.01 30-Nov-2015

 ---------------------------------------------------------
 #p ccsd(t)/6-311++G(3df,2p) scf(MaxCyc=300) guess(Huckel)
 ---------------------------------------------------------

 -------------
 ccsd(t) iener
 -------------
 Symbolic Z-matrix:
 Charge =  1 Multiplicity = 2

                         Standard orientation:
 ---------------------------------------------------------------------
 Center     Atomic      Atomic             Coordinates (Angstroms)
 Number     Number       Type             X           Y           Z
 ---------------------------------------------------------------------
      1         16           0       -0.775218   -1.869464   -0.000000
      2         16           0       -0.190133   -0.690201    1.549082
      3         16           0        1.345617    2.149721    0.000000
      4         16           0       -0.190133   -0.690201   -1.549082
      5         16           0       -0.190133    1.100144    0.000000
 ---------------------------------------------------------------------

 SCF Done:  E(UHF) =  -1987.34817050     A.U. after   37 cycles
 E2 =    -0.8666321925D+00 EUMP2 =    -0.19882148026881D+04
 CCSD(T)
 CCSD(T)= -0.19883206676D+04

 The electronic state is 2-A'.
 Alpha  occ. eigenvalues --  -92.32777 -92.29043 -92.23009 -92.23009 -92.18357
 Alpha  occ. eigenvalues --   -9.31529  -9.28541  -9.22788  -9.22787  -9.18410
 Alpha  occ. eigenvalues --   -6.99598  -6.99511  -6.99387  -6.97736  -6.96414
 Alpha  occ. eigenvalues --   -6.96272  -6.91099  -6.91099  -6.90710  -6.90710
 Alpha  occ. eigenvalues --   -6.90622  -6.90622  -6.86520  -6.86339  -6.86218
 Alpha  occ. eigenvalues --   -1.37248  -1.30474  -1.17683  -1.08586  -0.97697
 Alpha  occ. eigenvalues --   -0.79683  -0.78542  -0.77219  -0.71863  -0.70782
 Alpha  occ. eigenvalues --   -0.69675  -0.62948  -0.57429  -0.55286  -0.53668
 Alpha virt. eigenvalues --   -0.21876  -0.20383  -0.10072  -0.09768  -0.07322
 Alpha virt. eigenvalues --   -0.06042  -0.04530  -0.03591  -0.03392  -0.02600
 Alpha virt. eigenvalues --   -0.02025  -0.00968  -0.00939  -0.00112   0.01073

  Beta  occ. eigenvalues --  -92.32718 -92.28193 -92.22765 -92.22765 -92.18385
  Beta  occ. eigenvalues --   -9.31482  -9.27685  -9.22545  -9.22543  -9.18437
  Beta  occ. eigenvalues --   -6.99490  -6.99428  -6.99221  -6.95861  -6.95860
  Beta  occ. eigenvalues --   -6.94377  -6.90710  -6.90710  -6.90553  -6.90553
  Beta  occ. eigenvalues --   -6.89934  -6.89934  -6.86541  -6.86462  -6.86225
  Beta  occ. eigenvalues --   -1.35485  -1.28707  -1.16189  -1.05901  -0.94851
  Beta  occ. eigenvalues --   -0.79184  -0.77172  -0.73771  -0.69682  -0.68441
  Beta  occ. eigenvalues --   -0.64753  -0.56967  -0.56024  -0.53707
  Beta virt. eigenvalues --   -0.23179  -0.20556  -0.20305  -0.09215  -0.08957
  Beta virt. eigenvalues --   -0.07179  -0.05764  -0.04400  -0.03560  -0.03275
  Beta virt. eigenvalues --   -0.02575  -0.01733  -0.00879  -0.00566   0.00150

 Mulliken charges and spin densities:
               1          2
     1  S    0.485417   0.636879
     2  S   -0.163936   0.166756
     3  S   -0.224380  -0.028221
     4  S   -0.163936   0.166756
     5  S    1.066834   0.057829
 Sum of Mulliken charges =   1.00000   1.00000

 Dipole moment (field-independent basis, Debye):
    X=             -0.6954    Y=             -1.0349    Z=              0.0000  Tot=              1.2469
 Quadrupole moment (field-independent basis, Debye-Ang):
   XX=            -58.3884   YY=            -45.7318   ZZ=            -53.3699
   XY=              6.5471   XZ=             -0.0000   YZ=              0.0000

 88.2546722\CCSD=-1988.2522188\CCSD(T)=-1988.3206676\S2=0.788444\S2-1=0
 Normal termination of Gaussian 09 at Wed Oct 26 03:43:14 2016.
