 Gaussian 09, Revision E.01,
 Gaussian 09:  EM64L-G09RevE.01 30-Nov-2015

 ---------------------------------------------------------
 #p ccsd(t)/6-311++G(3df,2p) scf(MaxCyc=300) guess(Huckel)
 ---------------------------------------------------------

 -------------
 ccsd(t) iener
 -------------
 Symbolic Z-matrix:
 Charge =  1 Multiplicity = 2

                         Standard orientation:
 ---------------------------------------------------------------------
 Center     Atomic      Atomic             Coordinates (Angstroms)
 Number     Number       Type             X           Y           Z
 ---------------------------------------------------------------------
      1         16           0        1.386008    1.002701    0.139071
      2         16           0       -0.563108    1.518791   -0.422485
      3         16           0       -1.573290    0.019923    0.565458
      4         16           0       -0.604303   -1.500602   -0.429329
      5         16           0        1.354693   -1.040813    0.147286
 ---------------------------------------------------------------------

 SCF Done:  E(UHF) =  -1987.41533894     A.U. after   27 cycles
 E2 =    -0.8345086103D+00 EUMP2 =    -0.19882498475475D+04
 CCSD(T)
 CCSD(T)= -0.19883605878D+04

 The electronic state is 2-A.
 Alpha  occ. eigenvalues --  -92.28056 -92.27765 -92.23471 -92.23372 -92.22809
 Alpha  occ. eigenvalues --   -9.27631  -9.27351  -9.23227  -9.23130  -9.22552
 Alpha  occ. eigenvalues --   -6.96518  -6.96187  -6.95517  -6.95395  -6.95242
 Alpha  occ. eigenvalues --   -6.95122  -6.91293  -6.91198  -6.91170  -6.91124
 Alpha  occ. eigenvalues --   -6.91074  -6.91022  -6.90680  -6.90551  -6.90395
 Alpha  occ. eigenvalues --   -1.37937  -1.26061  -1.24644  -1.04968  -1.02936
 Alpha  occ. eigenvalues --   -0.80035  -0.78489  -0.76498  -0.75715  -0.68704
 Alpha  occ. eigenvalues --   -0.68196  -0.63683  -0.63315  -0.56940  -0.56275
 Alpha virt. eigenvalues --   -0.15800  -0.14082  -0.11695  -0.11291  -0.06805
 Alpha virt. eigenvalues --   -0.06695  -0.04234  -0.04072  -0.03877  -0.02570
 Alpha virt. eigenvalues --   -0.02203  -0.01689  -0.00907  -0.00137   0.01296

  Beta  occ. eigenvalues --  -92.27403 -92.27148 -92.23419 -92.23327 -92.22772
  Beta  occ. eigenvalues --   -9.26974  -9.26728  -9.23166  -9.23075  -9.22520
  Beta  occ. eigenvalues --   -6.95145  -6.95080  -6.94899  -6.94832  -6.93897
  Beta  occ. eigenvalues --   -6.93697  -6.91298  -6.91202  -6.91193  -6.91100
  Beta  occ. eigenvalues --   -6.90875  -6.90795  -6.90537  -6.90508  -6.90372
  Beta  occ. eigenvalues --   -1.36150  -1.24209  -1.22704  -1.02531  -1.00435
  Beta  occ. eigenvalues --   -0.78593  -0.77500  -0.74315  -0.69786  -0.67808
  Beta  occ. eigenvalues --   -0.66763  -0.59682  -0.59361  -0.54521
  Beta virt. eigenvalues --   -0.24641  -0.15068  -0.13059  -0.11116  -0.10643
  Beta virt. eigenvalues --   -0.06701  -0.06034  -0.04124  -0.04031  -0.03714
  Beta virt. eigenvalues --   -0.02533  -0.02025  -0.01449  -0.00818   0.00108

 Mulliken charges and spin densities:
               1          2
     1  S    0.222745   0.479710
     2  S    0.176776   0.017938
     3  S    0.208092   0.038668
     4  S    0.177158   0.015660
     5  S    0.215229   0.448024
 Sum of Mulliken charges =   1.00000   1.00000

 Dipole moment (field-independent basis, Debye):
    X=              1.2310    Y=              0.0297    Z=              0.0832  Tot=              1.2342
 Quadrupole moment (field-independent basis, Debye-Ang):
   XX=            -48.6225   YY=            -49.6643   ZZ=            -61.1454
   XY=              0.0501   XZ=              0.1529   YZ=             -0.0077

 -1988.3009643\MP4SDQ=-1988.3021046\CCSD=-1988.3010065\CCSD(T)=-1988.36
 Normal termination of Gaussian 09 at Wed Oct 26 10:30:52 2016.
