 Gaussian 09, Revision E.01,
 Gaussian 09:  EM64L-G09RevE.01 30-Nov-2015

 ---------------------------------------------------------
 #p ccsd(t)/6-311++G(3df,2p) scf(MaxCyc=300) guess(Huckel)
 ---------------------------------------------------------

 -------------
 ccsd(t) iener
 -------------
 Symbolic Z-matrix:
 Charge =  1 Multiplicity = 2

                         Standard orientation:
 ---------------------------------------------------------------------
 Center     Atomic      Atomic             Coordinates (Angstroms)
 Number     Number       Type             X           Y           Z
 ---------------------------------------------------------------------
      1         16           0       -0.145679   -1.668942   -0.674120
      2         16           0       -0.000000   -0.000000    0.621208
      3         16           0        0.000000    3.253481    0.363515
      4         16           0       -0.000000   -3.253481    0.363515
      5         16           0        0.145679    1.668942   -0.674120
 ---------------------------------------------------------------------

 SCF Done:  E(UHF) =  -1987.40201468     A.U. after   30 cycles
 E2 =    -0.7865318115D+00 EUMP2 =    -0.19881885464866D+04
 CCSD(T)
 CCSD(T)= -0.19883229180D+04

 The electronic state is 2-A.
 Alpha  occ. eigenvalues --  -92.26813 -92.24878 -92.24878 -92.19656 -92.19656
 Alpha  occ. eigenvalues --   -9.26503  -9.24513  -9.24511  -9.19693  -9.19692
 Alpha  occ. eigenvalues --   -6.94569  -6.94561  -6.93086  -6.92672  -6.92672
 Alpha  occ. eigenvalues --   -6.92469  -6.92469  -6.92427  -6.92427  -6.89064
 Alpha  occ. eigenvalues --   -6.89064  -6.87523  -6.87523  -6.87364  -6.87364
 Alpha  occ. eigenvalues --   -1.33901  -1.30708  -1.18199  -1.05579  -0.97188
 Alpha  occ. eigenvalues --   -0.78381  -0.76153  -0.73348  -0.71813  -0.70981
 Alpha  occ. eigenvalues --   -0.67326  -0.59665  -0.58597  -0.56800  -0.54128
 Alpha virt. eigenvalues --   -0.22971  -0.13671  -0.12486  -0.07665  -0.05598
 Alpha virt. eigenvalues --   -0.04595  -0.04380  -0.03999  -0.02554  -0.02060
 Alpha virt. eigenvalues --   -0.01433  -0.01029  -0.00533  -0.00007   0.00633

  Beta  occ. eigenvalues --  -92.27840 -92.24825 -92.24825 -92.18706 -92.18706
  Beta  occ. eigenvalues --   -9.27539  -9.24471  -9.24469  -9.18753  -9.18752
  Beta  occ. eigenvalues --   -6.96794  -6.95395  -6.95274  -6.92541  -6.92540
  Beta  occ. eigenvalues --   -6.92422  -6.92422  -6.92292  -6.92292  -6.87047
  Beta  occ. eigenvalues --   -6.87047  -6.86699  -6.86699  -6.85240  -6.85240
  Beta  occ. eigenvalues --   -1.34665  -1.28358  -1.19131  -0.99121  -0.95481
  Beta  occ. eigenvalues --   -0.78518  -0.75864  -0.75246  -0.69164  -0.67217
  Beta  occ. eigenvalues --   -0.64999  -0.59978  -0.57572  -0.54786
  Beta virt. eigenvalues --   -0.17046  -0.16744  -0.14290  -0.13053  -0.07311
  Beta virt. eigenvalues --   -0.05593  -0.04427  -0.04422  -0.04010  -0.02270
  Beta virt. eigenvalues --   -0.02247  -0.00979  -0.00779  -0.00014   0.00208

 Mulliken charges and spin densities:
               1          2
     1  S    0.153139   0.050783
     2  S    0.267184  -0.817069
     3  S    0.213268   0.857751
     4  S    0.213268   0.857751
     5  S    0.153139   0.050783
 Sum of Mulliken charges =   1.00000   1.00000

 Dipole moment (field-independent basis, Debye):
    X=             -0.0000    Y=             -0.0000    Z=              0.4066  Tot=              0.4066
 Quadrupole moment (field-independent basis, Debye-Ang):
   XX=            -59.7065   YY=            -29.9162   ZZ=            -58.6880
   XY=              0.3178   XZ=             -0.0000   YZ=              0.0000

 88.2565891\CCSD=-1988.2638883\CCSD(T)=-1988.322918\S2=1.628984\S2-1=1.
 Normal termination of Gaussian 09 at Wed Oct 26 05:39:00 2016.
