 Gaussian 09, Revision E.01,
 Gaussian 09:  EM64L-G09RevE.01 30-Nov-2015

 ---------------------------------------------------------
 #p ccsd(t)/6-311++G(3df,2p) scf(MaxCyc=300) guess(Huckel)
 ---------------------------------------------------------

 -------------
 ccsd(t) iener
 -------------
 Symbolic Z-matrix:
 Charge =  0 Multiplicity = 1

                         Standard orientation:
 ---------------------------------------------------------------------
 Center     Atomic      Atomic             Coordinates (Angstroms)
 Number     Number       Type             X           Y           Z
 ---------------------------------------------------------------------
      1         16           0        1.955585    0.705329    0.000986
      2         16           0       -1.033045   -0.536142   -0.001786
      3         16           0       -2.944546   -0.225985    0.001434
      4         16           0        2.063291   -1.233628    0.000202
      5         16           0       -0.041286    1.290425   -0.000836
 ---------------------------------------------------------------------

 SCF Done:  E(RHF) =  -1987.61172622     A.U. after   22 cycles
 E2 =    -0.9268762123D+00 EUMP2 =    -0.19885386024277D+04
 CCSD(T)
 CCSD(T)= -0.19886275859D+04

 The electronic state is 1-A.
 Alpha  occ. eigenvalues --  -92.09996 -92.08065 -92.07801 -91.98230 -91.97870
 Alpha  occ. eigenvalues --   -9.09254  -9.07747  -9.07278  -8.98268  -8.97942
 Alpha  occ. eigenvalues --   -6.77305  -6.77192  -6.77180  -6.75793  -6.75732
 Alpha  occ. eigenvalues --   -6.75684  -6.75389  -6.75253  -6.75233  -6.66410
 Alpha  occ. eigenvalues --   -6.66224  -6.66167  -6.66096  -6.65897  -6.65846
 Alpha  occ. eigenvalues --   -1.16467  -1.09683  -0.99084  -0.85934  -0.77411
 Alpha  occ. eigenvalues --   -0.60699  -0.58126  -0.55657  -0.50956  -0.49602
 Alpha  occ. eigenvalues --   -0.48662  -0.39785  -0.39543  -0.36241  -0.28419
 Alpha virt. eigenvalues --   -0.09801   0.02408   0.04064   0.06463   0.07695
 Alpha virt. eigenvalues --    0.08039   0.08398   0.09299   0.09619   0.10900
 Alpha virt. eigenvalues --    0.11202   0.11273   0.12218   0.13316   0.13901

 Mulliken charges:
               1
     1  S    0.053746
     2  S    0.188538
     3  S   -0.192978
     4  S   -0.205719
     5  S    0.156413
 Sum of Mulliken charges =  -0.00000

 Dipole moment (field-independent basis, Debye):
    X=              0.7084    Y=              1.7692    Z=             -0.0022  Tot=              1.9058
 Quadrupole moment (field-independent basis, Debye-Ang):
   XX=            -71.3847   YY=            -63.4443   ZZ=            -66.9771
   XY=              2.3561   XZ=              0.0025   YZ=              0.0005

 \MP4DQ=-1988.5385862\MP4SDQ=-1988.5524725\CCSD=-1988.5508275\CCSD(T)=-
 Normal termination of Gaussian 09 at Mon Oct 24 15:27:40 2016.
