 Gaussian 09, Revision E.01,
 Gaussian 09:  EM64L-G09RevE.01 30-Nov-2015

 ---------------------------------------------------------
 #p ccsd(t)/6-311++G(3df,2p) scf(MaxCyc=300) guess(Huckel)
 ---------------------------------------------------------

 -------------
 ccsd(t) iener
 -------------
 Symbolic Z-matrix:
 Charge =  1 Multiplicity = 4

                         Standard orientation:
 ---------------------------------------------------------------------
 Center     Atomic      Atomic             Coordinates (Angstroms)
 Number     Number       Type             X           Y           Z
 ---------------------------------------------------------------------
      1         16           0        1.713731   -0.732799    0.087703
      2         16           0       -1.595853   -0.345693    0.774826
      3         16           0       -1.590127    1.248506   -0.423623
      4         16           0        1.857240    1.170252    0.108650
      5         16           0       -0.384992   -1.340266   -0.547555
 ---------------------------------------------------------------------

 SCF Done:  E(UHF) =  -1987.38756549     A.U. after   31 cycles
 E2 =    -0.7949158952D+00 EUMP2 =    -0.19881824813811D+04
 CCSD(T)
 CCSD(T)= -0.19883058717D+04

 The electronic state is 4-A.
 Alpha  occ. eigenvalues --  -92.29433 -92.26931 -92.22062 -92.21715 -92.18302
 Alpha  occ. eigenvalues --   -9.29105  -9.26573  -9.21667  -9.21487  -9.18319
 Alpha  occ. eigenvalues --   -6.98419  -6.97964  -6.96542  -6.95196  -6.94516
 Alpha  occ. eigenvalues --   -6.94375  -6.90015  -6.89905  -6.89715  -6.89521
 Alpha  occ. eigenvalues --   -6.89305  -6.89220  -6.87640  -6.86193  -6.86139
 Alpha  occ. eigenvalues --   -1.37295  -1.28757  -1.20154  -1.07942  -0.99829
 Alpha  occ. eigenvalues --   -0.79716  -0.78798  -0.77561  -0.71552  -0.71233
 Alpha  occ. eigenvalues --   -0.68716  -0.66713  -0.63115  -0.59545  -0.54745
 Alpha  occ. eigenvalues --   -0.54253
 Alpha virt. eigenvalues --   -0.14550  -0.12200  -0.11342  -0.06595  -0.05701
 Alpha virt. eigenvalues --   -0.04320  -0.04015  -0.02898  -0.02439  -0.01841
 Alpha virt. eigenvalues --   -0.01566  -0.01118   0.00606   0.01013   0.01653

  Beta  occ. eigenvalues --  -92.27618 -92.26487 -92.21738 -92.21604 -92.17276
  Beta  occ. eigenvalues --   -9.27313  -9.26132  -9.21378  -9.21352  -9.17302
  Beta  occ. eigenvalues --   -6.95614  -6.94358  -6.94179  -6.94087  -6.93771
  Beta  occ. eigenvalues --   -6.93302  -6.89567  -6.89501  -6.89445  -6.89334
  Beta  occ. eigenvalues --   -6.88833  -6.88733  -6.85593  -6.85155  -6.83885
  Beta  occ. eigenvalues --   -1.32345  -1.24797  -1.12802  -0.98863  -0.93258
  Beta  occ. eigenvalues --   -0.75184  -0.73586  -0.71687  -0.67316  -0.62396
  Beta  occ. eigenvalues --   -0.60338  -0.56750  -0.53555
  Beta virt. eigenvalues --   -0.22966  -0.22921  -0.16155  -0.13646  -0.10352
  Beta virt. eigenvalues --   -0.09596  -0.06346  -0.05005  -0.03901  -0.03593
  Beta virt. eigenvalues --   -0.02186  -0.01875  -0.01504  -0.01175  -0.00781

 Mulliken charges and spin densities:
               1          2
     1  S    0.084445   0.228318
     2  S    0.297388   0.267464
     3  S    0.353977   1.549895
     4  S    0.082884   0.902648
     5  S    0.181306   0.051675
 Sum of Mulliken charges =   1.00000   3.00000

 Dipole moment (field-independent basis, Debye):
    X=             -2.8992    Y=              1.4658    Z=              0.0413  Tot=              3.2490
 Quadrupole moment (field-independent basis, Debye-Ang):
   XX=            -45.3743   YY=            -50.9946   ZZ=            -58.3899
   XY=             -3.3101   XZ=             -0.8370   YZ=             -0.9585

 0=-1988.2433469\MP4SDQ=-1988.2453041\CCSD=-1988.2479492\CCSD(T)=-1988.
 Normal termination of Gaussian 09 at Wed Oct 26 10:42:20 2016.
