 Gaussian 09, Revision E.01,
 Gaussian 09:  EM64L-G09RevE.01 30-Nov-2015

 ------------------------------------------
 #p ccsd(t)/6-311+G(3df) scf(QC,MaxCyc=300)
 ------------------------------------------

 -------------
 ccsd(t) iener
 -------------
 Symbolic Z-matrix:
 Charge =  1 Multiplicity = 2

                         Standard orientation:
 ---------------------------------------------------------------------
 Center     Atomic      Atomic             Coordinates (Angstroms)
 Number     Number       Type             X           Y           Z
 ---------------------------------------------------------------------
      1         16           0        0.000000    3.254983    0.338254
      2         16           0       -0.212852    1.653265   -0.660634
      3         16           0       -0.000000   -0.000000    0.644760
      4         16           0        0.212852   -1.653265   -0.660634
      5         16           0       -0.000000   -3.254983    0.338254
 ---------------------------------------------------------------------

 SCF Done:  E(UHF) =  -1987.40195636     a.u. after   19 cycles
 E2 =    -0.7866154402D+00 EUMP2 =    -0.19881885718014D+04
 CCSD(T)
 CCSD(T)= -0.19883230048D+04

 The electronic state is 2-A.
 Alpha  occ. eigenvalues --  -92.26836 -92.24879 -92.24879 -92.19652 -92.19652
 Alpha  occ. eigenvalues --   -9.26523  -9.24514  -9.24513  -9.19690  -9.19689
 Alpha  occ. eigenvalues --   -6.94590  -6.94580  -6.93109  -6.92679  -6.92679
 Alpha  occ. eigenvalues --   -6.92472  -6.92472  -6.92417  -6.92417  -6.89062
 Alpha  occ. eigenvalues --   -6.89062  -6.87520  -6.87520  -6.87360  -6.87360
 Alpha  occ. eigenvalues --   -1.33918  -1.30689  -1.18250  -1.05556  -0.97191
 Alpha  occ. eigenvalues --   -0.78372  -0.76215  -0.73305  -0.71783  -0.70962
 Alpha  occ. eigenvalues --   -0.67418  -0.59593  -0.58570  -0.56796  -0.54163
 Alpha virt. eigenvalues --   -0.23055  -0.13546  -0.12528  -0.07622  -0.05613
 Alpha virt. eigenvalues --   -0.04718  -0.04382  -0.03980  -0.02501  -0.02012
 Alpha virt. eigenvalues --   -0.01450  -0.01170  -0.00574  -0.00011   0.00717

  Beta  occ. eigenvalues --  -92.27859 -92.24829 -92.24829 -92.18703 -92.18703
  Beta  occ. eigenvalues --   -9.27555  -9.24474  -9.24472  -9.18751  -9.18750
  Beta  occ. eigenvalues --   -6.96808  -6.95412  -6.95288  -6.92545  -6.92545
  Beta  occ. eigenvalues --   -6.92438  -6.92438  -6.92284  -6.92284  -6.87045
  Beta  occ. eigenvalues --   -6.87045  -6.86697  -6.86697  -6.85238  -6.85238
  Beta  occ. eigenvalues --   -1.34682  -1.28343  -1.19151  -0.99115  -0.95501
  Beta  occ. eigenvalues --   -0.78486  -0.75884  -0.75298  -0.69043  -0.67364
  Beta  occ. eigenvalues --   -0.64946  -0.60065  -0.57505  -0.54819
  Beta virt. eigenvalues --   -0.17015  -0.16823  -0.14193  -0.13090  -0.07231
  Beta virt. eigenvalues --   -0.05576  -0.04560  -0.04427  -0.03975  -0.02206
  Beta virt. eigenvalues --   -0.02170  -0.01129  -0.00817  -0.00060   0.00224

 Mulliken charges and spin densities:
               1          2
     1  S    0.197586   0.859548
     2  S    0.172254   0.048163
     3  S    0.260321  -0.815422
     4  S    0.172254   0.048163
     5  S    0.197586   0.859548
 Sum of Mulliken charges =   1.00000   1.00000

 Dipole moment (field-independent basis, Debye):
    X=             -0.0000    Y=             -0.0000    Z=              0.4325  Tot=              0.4325
 Quadrupole moment (field-independent basis, Debye-Ang):
   XX=            -59.6393   YY=            -29.9598   ZZ=            -58.7584
   XY=             -0.4593   XZ=              0.0000   YZ=              0.0000

 -1988.2639398\CCSD(T)=-1988.3230048\S2=1.629322\S2-1=1.553315\S2A=0.93
 Normal termination of Gaussian 09 at Thu Nov  3 06:36:38 2016.
