 Gaussian 09, Revision E.01,
 Gaussian 09:  EM64L-G09RevE.01 30-Nov-2015

 ---------------------------------------------------------
 #p ccsd(t)/6-311++G(3df,2p) scf(MaxCyc=300) guess(Huckel)
 ---------------------------------------------------------

 -------------
 ccsd(t) iener
 -------------
 Symbolic Z-matrix:
 Charge =  1 Multiplicity = 2

                         Standard orientation:
 ---------------------------------------------------------------------
 Center     Atomic      Atomic             Coordinates (Angstroms)
 Number     Number       Type             X           Y           Z
 ---------------------------------------------------------------------
      1         16           0       -0.924407   -0.031585    0.624992
      2         16           0        2.021717    0.072951   -0.064442
      3         16           0        0.805344   -1.543892   -0.111522
      4         16           0       -2.513351   -0.047724   -0.343165
      5         16           0        0.610698    1.550249   -0.105863
 ---------------------------------------------------------------------

 SCF Done:  E(UHF) =  -1987.34876011     A.U. after   51 cycles
 E2 =    -0.8660680996D+00 EUMP2 =    -0.19882148282137D+04
 CCSD(T)
 CCSD(T)= -0.19883205955D+04

 The electronic state is 2-A.
 Alpha  occ. eigenvalues --  -92.32739 -92.28730 -92.23278 -92.22673 -92.18621
 Alpha  occ. eigenvalues --   -9.31510  -9.28233  -9.23051  -9.22458  -9.18666
 Alpha  occ. eigenvalues --   -6.99574  -6.99476  -6.99369  -6.97389  -6.96113
 Alpha  occ. eigenvalues --   -6.95969  -6.91231  -6.91005  -6.90945  -6.90932
 Alpha  occ. eigenvalues --   -6.90367  -6.90233  -6.86773  -6.86619  -6.86444
 Alpha  occ. eigenvalues --   -1.37153  -1.30451  -1.17716  -1.08546  -0.97710
 Alpha  occ. eigenvalues --   -0.79641  -0.78466  -0.77119  -0.71847  -0.70739
 Alpha  occ. eigenvalues --   -0.69562  -0.63000  -0.57347  -0.55452  -0.53774
 Alpha virt. eigenvalues --   -0.22252  -0.19961  -0.10270  -0.09436  -0.07298
 Alpha virt. eigenvalues --   -0.06082  -0.04515  -0.03585  -0.03367  -0.02576
 Alpha virt. eigenvalues --   -0.02021  -0.00987  -0.00907  -0.00138   0.01057

  Beta  occ. eigenvalues --  -92.32695 -92.27906 -92.23080 -92.22341 -92.18652
  Beta  occ. eigenvalues --   -9.31478  -9.27403  -9.22852  -9.22130  -9.18694
  Beta  occ. eigenvalues --   -6.99494  -6.99434  -6.99222  -6.95579  -6.95576
  Beta  occ. eigenvalues --   -6.94129  -6.91005  -6.90815  -6.90354  -6.90306
  Beta  occ. eigenvalues --   -6.90172  -6.89374  -6.86794  -6.86727  -6.86476
  Beta  occ. eigenvalues --   -1.35506  -1.28701  -1.16077  -1.05915  -0.94826
  Beta  occ. eigenvalues --   -0.79187  -0.77189  -0.73825  -0.69664  -0.68368
  Beta  occ. eigenvalues --   -0.64749  -0.56834  -0.56172  -0.53753
  Beta virt. eigenvalues --   -0.23205  -0.20985  -0.19673  -0.09456  -0.08592
  Beta virt. eigenvalues --   -0.07161  -0.05805  -0.04389  -0.03551  -0.03247
  Beta virt. eigenvalues --   -0.02548  -0.01744  -0.00876  -0.00560   0.00109

 Mulliken charges and spin densities:
               1          2
     1  S    1.064463   0.043567
     2  S    0.474777   0.611162
     3  S   -0.162290   0.239431
     4  S   -0.215126  -0.028925
     5  S   -0.161823   0.134766
 Sum of Mulliken charges =   1.00000   1.00000

 Dipole moment (field-independent basis, Debye):
    X=              1.0635    Y=              0.1478    Z=              0.1980  Tot=              1.0918
 Quadrupole moment (field-independent basis, Debye-Ang):
   XX=            -42.9599   YY=            -53.3427   ZZ=            -61.1219
   XY=              0.4760   XZ=             -0.3918   YZ=              0.0943

 0=-1988.2545638\MP4SDQ=-1988.2547799\CCSD=-1988.2523752\CCSD(T)=-1988.
 Normal termination of Gaussian 09 at Tue Oct 25 06:42:29 2016.
