 Gaussian 09, Revision E.01,
 Gaussian 09:  EM64L-G09RevE.01 30-Nov-2015

 ---------------------------------------------------------
 #p ccsd(t)/6-311++G(3df,2p) scf(MaxCyc=300) guess(Huckel)
 ---------------------------------------------------------

 -------------
 ccsd(t) iener
 -------------
 Symbolic Z-matrix:
 Charge =  0 Multiplicity = 1

                         Standard orientation:
 ---------------------------------------------------------------------
 Center     Atomic      Atomic             Coordinates (Angstroms)
 Number     Number       Type             X           Y           Z
 ---------------------------------------------------------------------
      1         16           0        0.262919    1.332665   -1.104137
      2         16           0        0.262919   -0.668372   -1.492000
      3         16           0       -1.051677   -1.328586   -0.000000
      4         16           0        0.262919   -0.668372    1.492000
      5         16           0        0.262919    1.332665    1.104137
 ---------------------------------------------------------------------

 SCF Done:  E(RHF) =  -1987.70147080     A.U. after   17 cycles
 E2 =    -0.8562203372D+00 EUMP2 =    -0.19885576911390D+04
 CCSD(T)
 CCSD(T)= -0.19886669588D+04

 The electronic state is 1-A'.
 Alpha  occ. eigenvalues --  -92.03315 -92.03036 -92.03035 -92.02233 -92.02233
 Alpha  occ. eigenvalues --   -9.03079  -9.02850  -9.02848  -9.02055  -9.02045
 Alpha  occ. eigenvalues --   -6.71167  -6.71112  -6.70979  -6.70958  -6.70957
 Alpha  occ. eigenvalues --   -6.70875  -6.70875  -6.70749  -6.70749  -6.70164
 Alpha  occ. eigenvalues --   -6.70154  -6.70083  -6.70073  -6.69934  -6.69934
 Alpha  occ. eigenvalues --   -1.14983  -1.04027  -1.01341  -0.82261  -0.81699
 Alpha  occ. eigenvalues --   -0.58264  -0.56765  -0.55027  -0.51781  -0.48000
 Alpha  occ. eigenvalues --   -0.45758  -0.41773  -0.41272  -0.36438  -0.33619
 Alpha virt. eigenvalues --    0.03267   0.04641   0.04871   0.05601   0.06593
 Alpha virt. eigenvalues --    0.08632   0.09388   0.09449   0.10656   0.11109
 Alpha virt. eigenvalues --    0.11401   0.11487   0.12323   0.13152   0.13946

 Mulliken charges:
               1
     1  S   -0.076379
     2  S    0.044897
     3  S    0.062964
     4  S    0.044897
     5  S   -0.076379
 Sum of Mulliken charges =  -0.00000

 Dipole moment (field-independent basis, Debye):
    X=             -0.1484    Y=             -0.3615    Z=             -0.0000  Tot=              0.3908
 Quadrupole moment (field-independent basis, Debye-Ang):
   XX=            -67.2791   YY=            -63.3479   ZZ=            -63.3904
   XY=              1.4510   XZ=              0.0000   YZ=              0.0000

 DQ=-1988.6104608\CCSD=-1988.6084228\CCSD(T)=-1988.6669588\RMSD=4.803e-
 Normal termination of Gaussian 09 at Mon Oct 24 15:19:19 2016.
