 Gaussian 09, Revision E.01,
 Gaussian 09:  EM64L-G09RevE.01 30-Nov-2015

 ---------------------------------------------------------
 #p ccsd(t)/6-311++G(3df,2p) scf(MaxCyc=300) guess(Huckel)
 ---------------------------------------------------------

 -------------
 ccsd(t) iener
 -------------
 Symbolic Z-matrix:
 Charge =  0 Multiplicity = 1

                         Standard orientation:
 ---------------------------------------------------------------------
 Center     Atomic      Atomic             Coordinates (Angstroms)
 Number     Number       Type             X           Y           Z
 ---------------------------------------------------------------------
      1         16           0        0.099627    2.400604    0.000000
      2         16           0        0.099627   -0.858123    1.469757
      3         16           0       -1.263514   -1.384053   -0.000000
      4         16           0        0.099627   -0.858123   -1.469757
      5         16           0        0.964632    0.699696    0.000000
 ---------------------------------------------------------------------

 SCF Done:  E(RHF) =  -1987.63647340     A.U. after   19 cycles
 E2 =    -0.8739722353D+00 EUMP2 =    -0.19885104456307D+04
 CCSD(T)
 CCSD(T)= -0.19886185289D+04

 The electronic state is 1-A'.
 Alpha  occ. eigenvalues --  -92.12084 -92.03355 -92.03225 -92.03225 -91.96820
 Alpha  occ. eigenvalues --   -9.10969  -9.03176  -9.03011  -9.03009  -8.97003
 Alpha  occ. eigenvalues --   -6.79028  -6.79003  -6.78893  -6.71293  -6.71228
 Alpha  occ. eigenvalues --   -6.71082  -6.71082  -6.71068  -6.71027  -6.71027
 Alpha  occ. eigenvalues --   -6.70875  -6.70875  -6.65173  -6.64961  -6.64910
 Alpha  occ. eigenvalues --   -1.15767  -1.07409  -0.96218  -0.88343  -0.76862
 Alpha  occ. eigenvalues --   -0.58485  -0.57958  -0.55415  -0.52391  -0.49588
 Alpha  occ. eigenvalues --   -0.46732  -0.40137  -0.36652  -0.36331  -0.33805
 Alpha virt. eigenvalues --   -0.01621  -0.01369   0.05582   0.06159   0.06329
 Alpha virt. eigenvalues --    0.07286   0.08824   0.09643   0.10127   0.10181
 Alpha virt. eigenvalues --    0.11250   0.11449   0.12651   0.13755   0.13940

 Mulliken charges:
               1
     1  S   -0.515016
     2  S   -0.152101
     3  S   -0.045540
     4  S   -0.152101
     5  S    0.864759
 Sum of Mulliken charges =  -0.00000

 Dipole moment (field-independent basis, Debye):
    X=              0.4198    Y=             -1.4210    Z=             -0.0000  Tot=              1.4817
 Quadrupole moment (field-independent basis, Debye-Ang):
   XX=            -64.9264   YY=            -68.6950   ZZ=            -63.4849
   XY=              2.0549   XZ=              0.0000   YZ=              0.0000

 SDQ=-1988.5581128\CCSD=-1988.5546763\CCSD(T)=-1988.6185289\RMSD=4.412e
 Normal termination of Gaussian 09 at Mon Oct 24 15:03:37 2016.
