 Gaussian 09, Revision E.01,
 Gaussian 09:  EM64L-G09RevE.01 30-Nov-2015

 ----------------------------------------------
 #p ccsd(t)/6-311++G(3df,2p) scf(QC,MaxCyc=300)
 ----------------------------------------------

 -------------
 ccsd(t) iener
 -------------
 Symbolic Z-matrix:
 Charge =  1 Multiplicity = 2

                         Standard orientation:
 ---------------------------------------------------------------------
 Center     Atomic      Atomic             Coordinates (Angstroms)
 Number     Number       Type             X           Y           Z
 ---------------------------------------------------------------------
      1         16           0       -0.485973    0.000658    0.815447
      2         16           0       -1.951845    1.062711   -0.171437
      3         16           0       -1.955614   -1.060378   -0.166399
      4         16           0        1.389797   -0.006110   -0.725490
      5         16           0        3.003635    0.003119    0.247879
 ---------------------------------------------------------------------

 SCF Done:  E(UHF) =  -1987.38442376     a.u. after   18 cycles
 E2 =    -0.8216171957D+00 EUMP2 =    -0.19882060409569D+04
 CCSD(T)
 CCSD(T)= -0.19883219514D+04

 The electronic state is 2-A.
 Alpha  occ. eigenvalues --  -92.27955 -92.23606 -92.22877 -92.22875 -92.21007
 Alpha  occ. eigenvalues --   -9.27425  -9.23242  -9.22584  -9.22570  -9.20917
 Alpha  occ. eigenvalues --   -6.95550  -6.95444  -6.94647  -6.91588  -6.91507
 Alpha  occ. eigenvalues --   -6.91055  -6.90674  -6.90665  -6.90564  -6.90540
 Alpha  occ. eigenvalues --   -6.90292  -6.90290  -6.90185  -6.89071  -6.88635
 Alpha  occ. eigenvalues --   -1.36872  -1.30385  -1.09200  -1.07043  -1.02074
 Alpha  occ. eigenvalues --   -0.77448  -0.75195  -0.73455  -0.70809  -0.69220
 Alpha  occ. eigenvalues --   -0.68179  -0.65493  -0.56961  -0.55619  -0.54315
 Alpha virt. eigenvalues --   -0.18896  -0.15337  -0.12526  -0.11758  -0.06680
 Alpha virt. eigenvalues --   -0.05653  -0.04259  -0.02807  -0.02218  -0.01628
 Alpha virt. eigenvalues --   -0.01538  -0.01202  -0.00244   0.00246   0.00600

  Beta  occ. eigenvalues --  -92.28483 -92.23174 -92.22877 -92.22875 -92.19824
  Beta  occ. eigenvalues --   -9.27972  -9.22859  -9.22586  -9.22572  -9.19750
  Beta  occ. eigenvalues --   -6.96550  -6.95873  -6.95834  -6.91023  -6.90595
  Beta  occ. eigenvalues --   -6.90571  -6.90569  -6.90539  -6.90530  -6.90384
  Beta  occ. eigenvalues --   -6.90381  -6.90186  -6.88081  -6.87343  -6.86331
  Beta  occ. eigenvalues --   -1.38061  -1.26496  -1.09821  -1.06990  -0.94849
  Beta  occ. eigenvalues --   -0.78190  -0.75776  -0.70613  -0.68398  -0.67955
  Beta  occ. eigenvalues --   -0.63430  -0.61954  -0.55497  -0.54759
  Beta virt. eigenvalues --   -0.17429  -0.17162  -0.15265  -0.12384  -0.12287
  Beta virt. eigenvalues --   -0.06363  -0.05183  -0.04294  -0.02607  -0.02140
  Beta virt. eigenvalues --   -0.01439  -0.01372  -0.01130  -0.00249   0.00196

 Mulliken charges and spin densities:
               1          2
     1  S    0.801396  -0.401971
     2  S   -0.022020   0.014582
     3  S   -0.022606   0.014276
     4  S   -0.036417   0.372972
     5  S    0.279646   1.000141
 Sum of Mulliken charges =   1.00000   1.00000

 Dipole moment (field-independent basis, Debye):
    X=              0.0440    Y=              0.0011    Z=              0.3048  Tot=              0.3079
 Quadrupole moment (field-independent basis, Debye-Ang):
   XX=            -35.9140   YY=            -55.2515   ZZ=            -59.1550
   XY=              0.0164   XZ=              3.0497   YZ=             -0.0089

 62743\MP4SDQ=-1988.2623181\CCSD=-1988.263683\CCSD(T)=-1988.3219514\S2=
 Normal termination of Gaussian 09 at Wed Nov  2 21:00:49 2016.
