 Gaussian 09, Revision E.01,
 Gaussian 09:  EM64L-G09RevE.01 30-Nov-2015

 ---------------------------------------------------------
 #p ccsd(t)/6-311++G(3df,2p) scf(MaxCyc=300) guess(Huckel)
 ---------------------------------------------------------

 -------------
 ccsd(t) iener
 -------------
 Symbolic Z-matrix:
 Charge =  0 Multiplicity = 3

                         Standard orientation:
 ---------------------------------------------------------------------
 Center     Atomic      Atomic             Coordinates (Angstroms)
 Number     Number       Type             X           Y           Z
 ---------------------------------------------------------------------
      1         16           0        1.682061   -0.572920   -0.454312
      2         16           0       -0.001004   -1.273119    0.641096
      3         16           0       -2.208429    1.217750    0.120900
      4         16           0        2.222979    1.203765    0.130177
      5         16           0       -1.695608   -0.575475   -0.437862
 ---------------------------------------------------------------------

 SCF Done:  E(UHF) =  -1987.70360373     A.U. after   26 cycles
 E2 =    -0.8078924445D+00 EUMP2 =    -0.19885114961695D+04
 CCSD(T)
 CCSD(T)= -0.19886320268D+04

 The electronic state is 3-A.
 Alpha  occ. eigenvalues --  -92.04344 -92.04343 -92.02300 -92.00835 -92.00829
 Alpha  occ. eigenvalues --   -9.04046  -9.04044  -9.02125  -9.00900  -9.00894
 Alpha  occ. eigenvalues --   -6.72402  -6.72401  -6.72145  -6.72144  -6.71950
 Alpha  occ. eigenvalues --   -6.71949  -6.70301  -6.70295  -6.70162  -6.70077
 Alpha  occ. eigenvalues --   -6.70024  -6.68761  -6.68755  -6.68594  -6.68588
 Alpha  occ. eigenvalues --   -1.13549  -1.10175  -0.99085  -0.87670  -0.79423
 Alpha  occ. eigenvalues --   -0.58686  -0.56826  -0.54898  -0.52950  -0.51155
 Alpha  occ. eigenvalues --   -0.50753  -0.41962  -0.39895  -0.39598  -0.37121
 Alpha  occ. eigenvalues --   -0.36467
 Alpha virt. eigenvalues --    0.04164   0.05715   0.06179   0.06306   0.06770
 Alpha virt. eigenvalues --    0.08569   0.09980   0.10385   0.10798   0.10871
 Alpha virt. eigenvalues --    0.11176   0.13042   0.13482   0.13492   0.13690

  Beta  occ. eigenvalues --  -92.04058 -92.04057 -92.02386 -91.99930 -91.99924
  Beta  occ. eigenvalues --   -9.03758  -9.03757  -9.02204  -9.00002  -8.99996
  Beta  occ. eigenvalues --   -6.71945  -6.71944  -6.71802  -6.71801  -6.71304
  Beta  occ. eigenvalues --   -6.71303  -6.70358  -6.70268  -6.70098  -6.68294
  Beta  occ. eigenvalues --   -6.68288  -6.68036  -6.68030  -6.66588  -6.66581
  Beta  occ. eigenvalues --   -1.11463  -1.06762  -0.95894  -0.80789  -0.74754
  Beta  occ. eigenvalues --   -0.57097  -0.53807  -0.53037  -0.50086  -0.44516
  Beta  occ. eigenvalues --   -0.42521  -0.39319  -0.37580  -0.36678
  Beta virt. eigenvalues --   -0.01428   0.00317   0.04804   0.06295   0.06335
  Beta virt. eigenvalues --    0.06502   0.07221   0.08991   0.10060   0.10565
  Beta virt. eigenvalues --    0.11003   0.11218   0.11767   0.13367   0.13767

 Mulliken charges and spin densities:
               1          2
     1  S    0.086503   0.173885
     2  S    0.118494  -0.070039
     3  S   -0.140663   0.860786
     4  S   -0.144082   0.861217
     5  S    0.079748   0.174151
 Sum of Mulliken charges =  -0.00000   2.00000

 Dipole moment (field-independent basis, Debye):
    X=             -0.0022    Y=             -0.0880    Z=             -0.0044  Tot=              0.0881
 Quadrupole moment (field-independent basis, Debye-Ang):
   XX=            -65.3148   YY=            -63.8560   ZZ=            -65.6996
   XY=             -0.0001   XZ=              0.0010   YZ=             -0.2458

 =-1988.575224\MP4SDQ=-1988.5775312\CCSD=-1988.5783971\CCSD(T)=-1988.63
 Normal termination of Gaussian 09 at Tue Oct 25 06:38:55 2016.
