 Gaussian 09, Revision E.01,
 Gaussian 09:  EM64L-G09RevE.01 30-Nov-2015

 ---------------------------------------------------------
 #p ccsd(t)/6-311++G(3df,2p) scf(MaxCyc=300) guess(Huckel)
 ---------------------------------------------------------

 -------------
 ccsd(t) iener
 -------------
 Symbolic Z-matrix:
 Charge =  1 Multiplicity = 2

                         Standard orientation:
 ---------------------------------------------------------------------
 Center     Atomic      Atomic             Coordinates (Angstroms)
 Number     Number       Type             X           Y           Z
 ---------------------------------------------------------------------
      1         16           0        1.943485    0.710095    0.000703
      2         16           0       -1.119614   -0.580625   -0.002468
      3         16           0       -2.990085   -0.227825    0.001839
      4         16           0        2.245146   -1.163294    0.000586
      5         16           0       -0.078932    1.261649   -0.000659
 ---------------------------------------------------------------------

 SCF Done:  E(UHF) =  -1987.40205777     A.U. after   28 cycles
 E2 =    -0.7922312691D+00 EUMP2 =    -0.19881942890357D+04
 CCSD(T)
 CCSD(T)= -0.19883283952D+04

 The electronic state is 2-A.
 Alpha  occ. eigenvalues --  -92.27009 -92.25341 -92.25009 -92.19988 -92.19704
 Alpha  occ. eigenvalues --   -9.26694  -9.24963  -9.24644  -9.20050  -9.19742
 Alpha  occ. eigenvalues --   -6.94760  -6.94752  -6.93328  -6.93112  -6.92890
 Alpha  occ. eigenvalues --   -6.92887  -6.92794  -6.92571  -6.92562  -6.89383
 Alpha  occ. eigenvalues --   -6.89123  -6.87898  -6.87718  -6.87577  -6.87409
 Alpha  occ. eigenvalues --   -1.34499  -1.30621  -1.18643  -1.06793  -0.96513
 Alpha  occ. eigenvalues --   -0.79031  -0.76372  -0.73898  -0.71630  -0.70181
 Alpha  occ. eigenvalues --   -0.68388  -0.59746  -0.59380  -0.56572  -0.54551
 Alpha virt. eigenvalues --   -0.23106  -0.14228  -0.12666  -0.06811  -0.05351
 Alpha virt. eigenvalues --   -0.04654  -0.04163  -0.03460  -0.03121  -0.02318
 Alpha virt. eigenvalues --   -0.01321  -0.01150  -0.01138   0.00437   0.01267

  Beta  occ. eigenvalues --  -92.27997 -92.25311 -92.24975 -92.19071 -92.18750
  Beta  occ. eigenvalues --   -9.27686  -9.24942  -9.24621  -9.19143  -9.18797
  Beta  occ. eigenvalues --   -6.96888  -6.95574  -6.95425  -6.93013  -6.92869
  Beta  occ. eigenvalues --   -6.92811  -6.92680  -6.92545  -6.92477  -6.87428
  Beta  occ. eigenvalues --   -6.87092  -6.87090  -6.86743  -6.85680  -6.85281
  Beta  occ. eigenvalues --   -1.35155  -1.28338  -1.19478  -1.00786  -0.94436
  Beta  occ. eigenvalues --   -0.78736  -0.75977  -0.75961  -0.69036  -0.67763
  Beta  occ. eigenvalues --   -0.65120  -0.60286  -0.58015  -0.54875
  Beta virt. eigenvalues --   -0.18011  -0.16317  -0.14614  -0.13427  -0.06600
  Beta virt. eigenvalues --   -0.05089  -0.04659  -0.04096  -0.03102  -0.02955
  Beta virt. eigenvalues --   -0.02492  -0.01153  -0.01107  -0.00714   0.00767

 Mulliken charges and spin densities:
               1          2
     1  S    0.121003   0.038415
     2  S    0.171939   0.051201
     3  S    0.185054   0.870456
     4  S    0.192961   0.820834
     5  S    0.329043  -0.780905
 Sum of Mulliken charges =   1.00000   1.00000

 Dipole moment (field-independent basis, Debye):
    X=             -0.0887    Y=              0.7404    Z=             -0.0001  Tot=              0.7457
 Quadrupole moment (field-independent basis, Debye-Ang):
   XX=            -39.0198   YY=            -53.8572   ZZ=            -59.7717
   XY=             -0.4821   XZ=             -0.0019   YZ=             -0.0024

 =-1988.2736471\MP4SDQ=-1988.2605964\CCSD=-1988.2682837\CCSD(T)=-1988.3
 Normal termination of Gaussian 09 at Wed Oct 26 10:38:44 2016.
