 Gaussian 09, Revision E.01,
 Gaussian 09:  EM64L-G09RevE.01 30-Nov-2015

 ---------------------------------------------------------
 #p ccsd(t)/6-311++G(3df,2p) scf(MaxCyc=300) guess(Huckel)
 ---------------------------------------------------------

 -------------
 ccsd(t) iener
 -------------
 Symbolic Z-matrix:
 Charge =  0 Multiplicity = 1

                         Standard orientation:
 ---------------------------------------------------------------------
 Center     Atomic      Atomic             Coordinates (Angstroms)
 Number     Number       Type             X           Y           Z
 ---------------------------------------------------------------------
      1         16           0        0.000000    1.531007    0.760794
      2         16           0        1.644696   -1.111852   -0.380397
      3         16           0        1.644696    1.111852   -0.380397
      4         16           0       -0.000000   -1.531007    0.760794
      5         16           0       -1.644696   -1.111852   -0.380397
      6         16           0       -1.644696    1.111852   -0.380397
 ---------------------------------------------------------------------

 SCF Done:  E(RHF) =  -2385.24162591     A.U. after   17 cycles
 E2 =    -0.1028801548D+01 EUMP2 =    -0.23862704274582D+04
 CCSD(T)
 CCSD(T)= -0.23864010598D+04

 The electronic state is 1-A1.
 Alpha  occ. eigenvalues --  -92.03604 -92.03604 -92.02429 -92.02429 -92.02429
 Alpha  occ. eigenvalues --  -92.02429  -9.03374  -9.03372  -9.02227  -9.02226
 Alpha  occ. eigenvalues --   -9.02218  -9.02216  -6.71493  -6.71493  -6.71371
 Alpha  occ. eigenvalues --   -6.71371  -6.71296  -6.71296  -6.70331  -6.70331
 Alpha  occ. eigenvalues --   -6.70321  -6.70321  -6.70246  -6.70246  -6.70237
 Alpha  occ. eigenvalues --   -6.70237  -6.70115  -6.70115  -6.70115  -6.70115
 Alpha  occ. eigenvalues --   -1.14302  -1.07488  -1.03833  -0.90839  -0.87726
 Alpha  occ. eigenvalues --   -0.75393  -0.60657  -0.58109  -0.55950  -0.51001
 Alpha  occ. eigenvalues --   -0.49731  -0.48302  -0.45085  -0.44566  -0.42200
 Alpha  occ. eigenvalues --   -0.37548  -0.35059  -0.34915
 Alpha virt. eigenvalues --    0.02051   0.02585   0.05311   0.05842   0.06190
 Alpha virt. eigenvalues --    0.07891   0.08905   0.09388   0.10085   0.10310
 Alpha virt. eigenvalues --    0.10361   0.10678   0.11707   0.12735   0.13045

 Mulliken charges:
               1
     1  S    0.258963
     2  S   -0.129482
     3  S   -0.129482
     4  S    0.258963
     5  S   -0.129482
     6  S   -0.129482
 Sum of Mulliken charges =  -0.00000

 Dipole moment (field-independent basis, Debye):
    X=              0.0000    Y=             -0.0000    Z=              0.1264  Tot=              0.1264
 Quadrupole moment (field-independent basis, Debye-Ang):
   XX=            -76.7724   YY=            -77.2391   ZZ=            -79.6965
   XY=             -0.0000   XZ=              0.0000   YZ=              0.0000

 6.3310461\CCSD(T)=-2386.4010598\RMSD=3.330e-09\PG=C02V [SGV(S2),X(S4)]
 Normal termination of Gaussian 09 at Mon Oct 24 16:00:11 2016.
