 Gaussian 09, Revision E.01,
 Gaussian 09:  EM64L-G09RevE.01 30-Nov-2015

 -------------------------------------------
 #p ccsd(t)/6-311++G(3df,2p) scf(MaxCyc=300)
 -------------------------------------------

 -------------
 ccsd(t) iener
 -------------
 Symbolic Z-matrix:
 Charge =  0 Multiplicity = 1

                         Standard orientation:
 ---------------------------------------------------------------------
 Center     Atomic      Atomic             Coordinates (Angstroms)
 Number     Number       Type             X           Y           Z
 ---------------------------------------------------------------------
      1         16           0        2.478283    0.724857    0.382081
      2         16           0       -1.939935   -0.010274    0.721017
      3         16           0        2.926658   -1.131318    0.065389
      4         16           0       -0.389098   -0.612146   -0.592802
      5         16           0        0.613791    1.174100   -0.486655
      6         16           0       -3.689700   -0.145219   -0.089031
 ---------------------------------------------------------------------

 SCF Done:  E(RHF) =  -2385.12830745     A.U. after   27 cycles
 E2 =    -0.1128204855D+01 EUMP2 =    -0.23862565123096D+04
 CCSD(T)
 CCSD(T)= -0.23863594130D+04

 The electronic state is 1-A.
 Alpha  occ. eigenvalues --  -92.08427 -92.07516 -92.07129 -92.06060 -91.98397
 Alpha  occ. eigenvalues --  -91.98123  -9.07786  -9.06972  -9.06799  -9.05780
 Alpha  occ. eigenvalues --   -8.98431  -8.98153  -6.75864  -6.75750  -6.75727
 Alpha  occ. eigenvalues --   -6.75071  -6.74949  -6.74937  -6.74873  -6.74764
 Alpha  occ. eigenvalues --   -6.74714  -6.73848  -6.73746  -6.73653  -6.66563
 Alpha  occ. eigenvalues --   -6.66403  -6.66326  -6.66293  -6.66118  -6.66052
 Alpha  occ. eigenvalues --   -1.16018  -1.11240  -1.04397  -0.93432  -0.82652
 Alpha  occ. eigenvalues --   -0.77941  -0.60018  -0.58944  -0.56849  -0.52393
 Alpha  occ. eigenvalues --   -0.51656  -0.50076  -0.47469  -0.43155  -0.38876
 Alpha  occ. eigenvalues --   -0.37705  -0.36865  -0.26227
 Alpha virt. eigenvalues --   -0.12126   0.03192   0.03287   0.05481   0.05695
 Alpha virt. eigenvalues --    0.06644   0.08049   0.08402   0.08544   0.09405
 Alpha virt. eigenvalues --    0.09997   0.10225   0.11026   0.11615   0.12291

 Mulliken charges:
               1
     1  S    0.085243
     2  S    0.138911
     3  S   -0.261841
     4  S    0.262497
     5  S    0.048007
     6  S   -0.272818
 Sum of Mulliken charges =  -0.00000

 Dipole moment (field-independent basis, Debye):
    X=              0.4853    Y=              1.2282    Z=              0.0213  Tot=              1.3207
 Quadrupole moment (field-independent basis, Debye-Ang):
   XX=            -88.1823   YY=            -77.2571   ZZ=            -79.1404
   XY=              3.6714   XZ=             -0.5474   YZ=              0.0871

 08\CCSD(T)=-2386.359413\RMSD=3.277e-09\PG=C01 [X(S6)]\\@
 Normal termination of Gaussian 09 at Wed Nov  2 05:43:56 2016.
