 Gaussian 09, Revision E.01,
 Gaussian 09:  EM64L-G09RevE.01 30-Nov-2015

 ---------------------------------------------------------
 #p ccsd(t)/6-311++G(3df,2p) scf(MaxCyc=300) guess(Huckel)
 ---------------------------------------------------------

 -------------
 ccsd(t) iener
 -------------
 Symbolic Z-matrix:
 Charge =  0 Multiplicity = 3

                         Standard orientation:
 ---------------------------------------------------------------------
 Center     Atomic      Atomic             Coordinates (Angstroms)
 Number     Number       Type             X           Y           Z
 ---------------------------------------------------------------------
      1         16           0        0.521925    3.696577   -0.631265
      2         16           0       -0.489942    2.059397   -0.449329
      3         16           0       -0.521925   -3.696577   -0.631265
      4         16           0        0.521925    0.858972    1.080594
      5         16           0        0.489942   -2.059397   -0.449329
      6         16           0       -0.521925   -0.858972    1.080594
 ---------------------------------------------------------------------

 SCF Done:  E(UHF) =  -2385.24386665     A.U. after   24 cycles
 E2 =    -0.9854393636D+00 EUMP2 =    -0.23862293060126D+04
 CCSD(T)
 CCSD(T)= -0.23863705061D+04

 The electronic state is 3-B.
 Alpha  occ. eigenvalues --  -92.04706 -92.04706 -92.03257 -92.03257 -92.00831
 Alpha  occ. eigenvalues --  -92.00831  -9.04405  -9.04405  -9.03068  -9.03046
 Alpha  occ. eigenvalues --   -9.00870  -9.00870  -6.72895  -6.72895  -6.72453
 Alpha  occ. eigenvalues --   -6.72453  -6.72293  -6.72293  -6.71181  -6.71130
 Alpha  occ. eigenvalues --   -6.71014  -6.71010  -6.70980  -6.70980  -6.70179
 Alpha  occ. eigenvalues --   -6.70179  -6.68752  -6.68752  -6.68591  -6.68591
 Alpha  occ. eigenvalues --   -1.13964  -1.11483  -1.05771  -0.92133  -0.85433
 Alpha  occ. eigenvalues --   -0.79586  -0.58865  -0.57163  -0.56313  -0.54313
 Alpha  occ. eigenvalues --   -0.54294  -0.51014  -0.48098  -0.44792  -0.43748
 Alpha  occ. eigenvalues --   -0.39310  -0.39006  -0.35383  -0.35269
 Alpha virt. eigenvalues --    0.04042   0.04055   0.05404   0.06303   0.06608
 Alpha virt. eigenvalues --    0.08111   0.08235   0.08673   0.09839   0.10019
 Alpha virt. eigenvalues --    0.10825   0.10998   0.11856   0.12217   0.12619

  Beta  occ. eigenvalues --  -92.04328 -92.04328 -92.03288 -92.03288 -91.99984
  Beta  occ. eigenvalues --  -91.99984  -9.04028  -9.04028  -9.03098  -9.03076
  Beta  occ. eigenvalues --   -9.00031  -9.00030  -6.72215  -6.72215  -6.72104
  Beta  occ. eigenvalues --   -6.72104  -6.71406  -6.71406  -6.71235  -6.71214
  Beta  occ. eigenvalues --   -6.71144  -6.71111  -6.70961  -6.70961  -6.68334
  Beta  occ. eigenvalues --   -6.68334  -6.68070  -6.68070  -6.66701  -6.66701
  Beta  occ. eigenvalues --   -1.12613  -1.08511  -1.03618  -0.89005  -0.78898
  Beta  occ. eigenvalues --   -0.75700  -0.58296  -0.55737  -0.54583  -0.49944
  Beta  occ. eigenvalues --   -0.48609  -0.47039  -0.45548  -0.40240  -0.39825
  Beta  occ. eigenvalues --   -0.35691  -0.35612
  Beta virt. eigenvalues --   -0.00661   0.00073   0.04407   0.04469   0.05584
  Beta virt. eigenvalues --    0.06341   0.06999   0.08250   0.08411   0.08732
  Beta virt. eigenvalues --    0.10107   0.10370   0.11151   0.11160   0.12164

 Mulliken charges and spin densities:
               1          2
     1  S   -0.098117   0.775421
     2  S    0.003873   0.251749
     3  S   -0.098117   0.775421
     4  S    0.094244  -0.027170
     5  S    0.003873   0.251749
     6  S    0.094244  -0.027170
 Sum of Mulliken charges =  -0.00000   2.00000

 Dipole moment (field-independent basis, Debye):
    X=             -0.0000    Y=              0.0000    Z=              0.0505  Tot=              0.0505
 Quadrupole moment (field-independent basis, Debye-Ang):
   XX=            -78.8330   YY=            -77.9501   ZZ=            -78.8966
   XY=              0.6443   XZ=              0.0000   YZ=             -0.0000

 14\CCSD(T)=-2386.3705061\S2=2.055004\S2-1=2.015834\S2A=2.001902\RMSD=7
 Normal termination of Gaussian 09 at Wed Oct 26 22:06:43 2016.
