 Gaussian 09, Revision E.01,
 Gaussian 09:  EM64L-G09RevE.01 30-Nov-2015

 ---------------------------------------------------------
 #p ccsd(t)/6-311++G(3df,2p) scf(MaxCyc=300) guess(Huckel)
 ---------------------------------------------------------

 -------------
 ccsd(t) iener
 -------------
 Symbolic Z-matrix:
 Charge =  0 Multiplicity = 1

                         Standard orientation:
 ---------------------------------------------------------------------
 Center     Atomic      Atomic             Coordinates (Angstroms)
 Number     Number       Type             X           Y           Z
 ---------------------------------------------------------------------
      1         16           0       -0.000000    1.603159   -0.536908
      2         16           0       -0.000000   -1.603159   -0.536908
      3         16           0       -1.521597    0.000000   -0.572936
      4         16           0       -0.000000    2.580645    1.109844
      5         16           0        1.521597   -0.000000   -0.572936
      6         16           0       -0.000000   -2.580645    1.109844
 ---------------------------------------------------------------------

 SCF Done:  E(RHF) =  -2385.15418150     A.U. after   17 cycles
 E2 =    -0.1061441622D+01 EUMP2 =    -0.23862156231174D+04
 CCSD(T)
 CCSD(T)= -0.23863417585D+04

 The electronic state is 1-A1.
 Alpha  occ. eigenvalues --  -92.13382 -92.13382 -92.04440 -92.04440 -91.96534
 Alpha  occ. eigenvalues --  -91.96534  -9.12260  -9.12260  -9.04297  -9.04296
 Alpha  occ. eigenvalues --   -8.96753  -8.96752  -6.80344  -6.80344  -6.80329
 Alpha  occ. eigenvalues --   -6.80329  -6.80188  -6.80188  -6.72351  -6.72351
 Alpha  occ. eigenvalues --   -6.72273  -6.72273  -6.72140  -6.72140  -6.64932
 Alpha  occ. eigenvalues --   -6.64932  -6.64701  -6.64701  -6.64655  -6.64655
 Alpha  occ. eigenvalues --   -1.18286  -1.11961  -0.98969  -0.97774  -0.85626
 Alpha  occ. eigenvalues --   -0.77061  -0.62484  -0.59203  -0.57619  -0.56018
 Alpha  occ. eigenvalues --   -0.52675  -0.50674  -0.43717  -0.40878  -0.37611
 Alpha  occ. eigenvalues --   -0.37531  -0.36755  -0.34421
 Alpha virt. eigenvalues --   -0.02722  -0.02391   0.04127   0.05425   0.05442
 Alpha virt. eigenvalues --    0.06972   0.07384   0.07438   0.08397   0.09246
 Alpha virt. eigenvalues --    0.10150   0.10838   0.11020   0.12269   0.13335

 Mulliken charges:
               1
     1  S    0.795007
     2  S    0.795007
     3  S   -0.264741
     4  S   -0.530266
     5  S   -0.264741
     6  S   -0.530266
 Sum of Mulliken charges =  -0.00000

 Dipole moment (field-independent basis, Debye):
    X=              0.0000    Y=              0.0000    Z=             -2.5280  Tot=              2.5280
 Quadrupole moment (field-independent basis, Debye-Ang):
   XX=            -76.4469   YY=            -84.7156   ZZ=            -80.9020
   XY=             -0.0000   XZ=             -0.0000   YZ=             -0.0000

 6.2623948\CCSD(T)=-2386.3417585\RMSD=7.102e-09\PG=C02V [SGV(S4),SGV'(S
 Normal termination of Gaussian 09 at Tue Oct 25 11:41:44 2016.
