 Gaussian 09, Revision E.01,
 Gaussian 09:  EM64L-G09RevE.01 30-Nov-2015

 ---------------------------------------------------------
 #p ccsd(t)/6-311++G(3df,2p) scf(MaxCyc=300) guess(Huckel)
 ---------------------------------------------------------

 -------------
 ccsd(t) iener
 -------------
 Symbolic Z-matrix:
 Charge =  0 Multiplicity = 1

                         Standard orientation:
 ---------------------------------------------------------------------
 Center     Atomic      Atomic             Coordinates (Angstroms)
 Number     Number       Type             X           Y           Z
 ---------------------------------------------------------------------
      1         16           0       -0.000000    1.882944    0.445885
      2         16           0       -1.630677   -0.941472    0.445885
      3         16           0        1.630677    0.941472   -0.445885
      4         16           0        1.630677   -0.941472    0.445885
      5         16           0       -1.630677    0.941472   -0.445885
      6         16           0       -0.000000   -1.882944   -0.445885
 ---------------------------------------------------------------------

 SCF Done:  E(RHF) =  -2385.27013259     A.U. after   14 cycles
 E2 =    -0.1021223066D+01 EUMP2 =    -0.23862913556591D+04
 CCSD(T)
 CCSD(T)= -0.23864224343D+04

 The electronic state is 1-A1G.
 Alpha  occ. eigenvalues --  -92.02754 -92.02754 -92.02754 -92.02753 -92.02753
 Alpha  occ. eigenvalues --  -92.02753  -9.02563  -9.02557  -9.02557  -9.02541
 Alpha  occ. eigenvalues --   -9.02541  -9.02531  -6.70682  -6.70672  -6.70672
 Alpha  occ. eigenvalues --   -6.70650  -6.70650  -6.70635  -6.70583  -6.70572
 Alpha  occ. eigenvalues --   -6.70572  -6.70558  -6.70558  -6.70553  -6.70463
 Alpha  occ. eigenvalues --   -6.70462  -6.70462  -6.70462  -6.70462  -6.70462
 Alpha  occ. eigenvalues --   -1.14371  -1.06300  -1.06300  -0.89117  -0.89117
 Alpha  occ. eigenvalues --   -0.76167  -0.59567  -0.56565  -0.55128  -0.55128
 Alpha  occ. eigenvalues --   -0.50655  -0.48284  -0.48284  -0.39540  -0.39540
 Alpha  occ. eigenvalues --   -0.38365  -0.38365  -0.35874
 Alpha virt. eigenvalues --    0.03903   0.03903   0.05687   0.06158   0.06158
 Alpha virt. eigenvalues --    0.06193   0.10398   0.10589   0.10594   0.10594
 Alpha virt. eigenvalues --    0.10646   0.10646   0.10870   0.11435   0.11435

 Mulliken charges:
               1
     1  S    0.000000
     2  S    0.000000
     3  S    0.000000
     4  S    0.000000
     5  S    0.000000
     6  S    0.000000
 Sum of Mulliken charges =   0.00000

 Dipole moment (field-independent basis, Debye):
    X=             -0.0000    Y=              0.0000    Z=              0.0000  Tot=              0.0000
 Quadrupole moment (field-independent basis, Debye-Ang):
   XX=            -76.6061   YY=            -76.6061   ZZ=            -80.2679
   XY=             -0.0000   XZ=             -0.0000   YZ=              0.0000

 386.3542995\CCSD(T)=-2386.4224343\RMSD=2.515e-09\PG=D03D [3SGD(S2)]\\@
 Normal termination of Gaussian 09 at Tue Oct 25 10:34:18 2016.
