 Gaussian 09, Revision E.01,
 Gaussian 09:  EM64L-G09RevE.01 30-Nov-2015

 ---------------------------------------------------------
 #p ccsd(t)/6-311++G(3df,2p) scf(MaxCyc=300) guess(Huckel)
 ---------------------------------------------------------

 -------------
 ccsd(t) iener
 -------------
 Symbolic Z-matrix:
 Charge =  0 Multiplicity = 1

                         Standard orientation:
 ---------------------------------------------------------------------
 Center     Atomic      Atomic             Coordinates (Angstroms)
 Number     Number       Type             X           Y           Z
 ---------------------------------------------------------------------
      1         16           0       -1.919864    1.149599    0.192366
      2         16           0       -1.922393   -1.147383    0.193789
      3         16           0       -0.117988    1.527938   -0.506998
      4         16           0       -0.120817   -1.528999   -0.507467
      5         16           0        1.157959   -0.000159    0.688834
      6         16           0        2.923103   -0.000997   -0.060523
 ---------------------------------------------------------------------

 SCF Done:  E(RHF) =  -2385.18575245     A.U. after   18 cycles
 E2 =    -0.1064165232D+01 EUMP2 =    -0.23862499176802D+04
 CCSD(T)
 CCSD(T)= -0.23863757699D+04

 The electronic state is 1-A.
 Alpha  occ. eigenvalues --  -92.12040 -92.03916 -92.03908 -92.03686 -92.03682
 Alpha  occ. eigenvalues --  -91.96398  -9.10981  -9.03736  -9.03725  -9.03490
 Alpha  occ. eigenvalues --   -9.03481  -8.96584  -6.79025  -6.78996  -6.78898
 Alpha  occ. eigenvalues --   -6.71813  -6.71803  -6.71725  -6.71715  -6.71602
 Alpha  occ. eigenvalues --   -6.71594  -6.71587  -6.71583  -6.71505  -6.71497
 Alpha  occ. eigenvalues --   -6.71371  -6.71369  -6.64771  -6.64525  -6.64500
 Alpha  occ. eigenvalues --   -1.15782  -1.08914  -1.06468  -0.91368  -0.81307
 Alpha  occ. eigenvalues --   -0.80896  -0.60752  -0.56925  -0.56383  -0.54610
 Alpha  occ. eigenvalues --   -0.50370  -0.49810  -0.47337  -0.44222  -0.38655
 Alpha  occ. eigenvalues --   -0.38305  -0.34539  -0.33046
 Alpha virt. eigenvalues --   -0.01490   0.00076   0.03458   0.04500   0.05877
 Alpha virt. eigenvalues --    0.07437   0.07515   0.08079   0.09487   0.10197
 Alpha virt. eigenvalues --    0.10594   0.10760   0.11163   0.12519   0.12873

 Mulliken charges:
               1
     1  S    0.015510
     2  S    0.015797
     3  S   -0.177756
     4  S   -0.178022
     5  S    0.858606
     6  S   -0.534135
 Sum of Mulliken charges =  -0.00000

 Dipole moment (field-independent basis, Debye):
    X=             -1.9110    Y=              0.0037    Z=              0.4374  Tot=              1.9604
 Quadrupole moment (field-independent basis, Debye-Ang):
   XX=            -81.2018   YY=            -77.1406   ZZ=            -80.1978
   XY=              0.0016   XZ=             -0.2238   YZ=              0.0008

 3666\CCSD=-2386.2955079\CCSD(T)=-2386.3757699\RMSD=5.895e-09\PG=C01 [X
 Normal termination of Gaussian 09 at Tue Oct 25 01:35:56 2016.
