 Gaussian 09, Revision E.01,
 Gaussian 09:  EM64L-G09RevE.01 30-Nov-2015

 ---------------------------------------------------------
 #p ccsd(t)/6-311++G(3df,2p) scf(MaxCyc=300) guess(Huckel)
 ---------------------------------------------------------

 -------------
 ccsd(t) iener
 -------------
 Symbolic Z-matrix:
 Charge =  0 Multiplicity = 3

                         Standard orientation:
 ---------------------------------------------------------------------
 Center     Atomic      Atomic             Coordinates (Angstroms)
 Number     Number       Type             X           Y           Z
 ---------------------------------------------------------------------
      1         16           0        0.413850   -0.732247    0.894193
      2         16           0       -1.102013   -1.602498   -0.035136
      3         16           0       -1.835213    1.714974    0.281112
      4         16           0        1.769957   -0.157057   -0.745453
      5         16           0        3.312384    0.672804    0.070933
      6         16           0       -2.558964    0.104024   -0.465649
 ---------------------------------------------------------------------

 SCF Done:  E(UHF) =  -2385.23779578     A.U. after   29 cycles
 E2 =    -0.9958478258D+00 EUMP2 =    -0.23862336436085D+04
 CCSD(T)
 CCSD(T)= -0.23863736307D+04

 The electronic state is 3-A.
 Alpha  occ. eigenvalues --  -92.04468 -92.04449 -92.03017 -92.02782 -92.00759
 Alpha  occ. eigenvalues --  -92.00609  -9.04156  -9.04145  -9.02822  -9.02587
 Alpha  occ. eigenvalues --   -9.00803  -9.00648  -6.72667  -6.72634  -6.72262
 Alpha  occ. eigenvalues --   -6.72216  -6.72042  -6.72036  -6.70923  -6.70745
 Alpha  occ. eigenvalues --   -6.70734  -6.70699  -6.70517  -6.70445  -6.70078
 Alpha  occ. eigenvalues --   -6.69953  -6.68679  -6.68567  -6.68532  -6.68377
 Alpha  occ. eigenvalues --   -1.13644  -1.11128  -1.05778  -0.91384  -0.85469
 Alpha  occ. eigenvalues --   -0.78824  -0.58787  -0.56903  -0.55863  -0.53985
 Alpha  occ. eigenvalues --   -0.53224  -0.52216  -0.48265  -0.43942  -0.42615
 Alpha  occ. eigenvalues --   -0.39012  -0.38519  -0.35261  -0.35107
 Alpha virt. eigenvalues --    0.03057   0.04124   0.04956   0.06172   0.06809
 Alpha virt. eigenvalues --    0.07867   0.08249   0.09417   0.10152   0.10242
 Alpha virt. eigenvalues --    0.10773   0.11369   0.11972   0.12553   0.13089

  Beta  occ. eigenvalues --  -92.04047 -92.04024 -92.03075 -92.02877 -91.99905
  Beta  occ. eigenvalues --  -91.99760  -9.03745  -9.03718  -9.02877  -9.02678
  Beta  occ. eigenvalues --   -8.99957  -8.99806  -6.71935  -6.71914  -6.71788
  Beta  occ. eigenvalues --   -6.71706  -6.71125  -6.71079  -6.71027  -6.70918
  Beta  occ. eigenvalues --   -6.70890  -6.70768  -6.70720  -6.70559  -6.68259
  Beta  occ. eigenvalues --   -6.68111  -6.67965  -6.67839  -6.66649  -6.66482
  Beta  occ. eigenvalues --   -1.12349  -1.07893  -1.03788  -0.88528  -0.78658
  Beta  occ. eigenvalues --   -0.74869  -0.57904  -0.55789  -0.54250  -0.50542
  Beta  occ. eigenvalues --   -0.48088  -0.45612  -0.45436  -0.40236  -0.38600
  Beta  occ. eigenvalues --   -0.35791  -0.35455
  Beta virt. eigenvalues --   -0.00367   0.00059   0.03547   0.04741   0.05202
  Beta virt. eigenvalues --    0.06207   0.07091   0.08013   0.08334   0.09623
  Beta virt. eigenvalues --    0.10305   0.10385   0.11136   0.11762   0.12189

 Mulliken charges and spin densities:
               1          2
     1  S    0.297436  -0.045138
     2  S   -0.097143  -0.088597
     3  S   -0.056815   0.764846
     4  S   -0.043775   0.272274
     5  S   -0.089777   0.778261
     6  S   -0.009926   0.318355
 Sum of Mulliken charges =  -0.00000   2.00000

 Dipole moment (field-independent basis, Debye):
    X=             -0.3509    Y=             -0.2307    Z=             -0.1168  Tot=              0.4359
 Quadrupole moment (field-independent basis, Debye-Ang):
   XX=            -77.8351   YY=            -77.6735   ZZ=            -78.7355
   XY=              1.6306   XZ=              0.8425   YZ=              0.9011

 3\CCSD=-2386.3048211\CCSD(T)=-2386.3736307\S2=2.066656\S2-1=2.024237\S
 Normal termination of Gaussian 09 at Thu Oct 27 12:59:46 2016.
