 Gaussian 09, Revision E.01,
 Gaussian 09:  EM64L-G09RevE.01 30-Nov-2015

 ---------------------------------------------------------
 #p ccsd(t)/6-311++G(3df,2p) scf(MaxCyc=300) guess(Huckel)
 ---------------------------------------------------------

 -------------
 ccsd(t) iener
 -------------
 Symbolic Z-matrix:
 Charge =  0 Multiplicity = 3

                         Standard orientation:
 ---------------------------------------------------------------------
 Center     Atomic      Atomic             Coordinates (Angstroms)
 Number     Number       Type             X           Y           Z
 ---------------------------------------------------------------------
      1         16           0        2.552812    0.114718   -0.468190
      2         16           0       -3.298595    0.686425    0.068803
      3         16           0        1.819750    1.720102    0.281502
      4         16           0       -1.772510   -0.176914   -0.743196
      5         16           0       -0.411231   -0.742485    0.896140
      6         16           0        1.109774   -1.601846   -0.035059
 ---------------------------------------------------------------------

 SCF Done:  E(UHF) =  -2385.23781843     A.U. after   29 cycles
 E2 =    -0.9958521800D+00 EUMP2 =    -0.23862336706082D+04
 CCSD(T)
 CCSD(T)= -0.23863736497D+04

 The electronic state is 3-A.
 Alpha  occ. eigenvalues --  -92.04464 -92.04450 -92.03017 -92.02783 -92.00755
 Alpha  occ. eigenvalues --  -92.00609  -9.04152  -9.04145  -9.02821  -9.02588
 Alpha  occ. eigenvalues --   -9.00798  -9.00648  -6.72663  -6.72634  -6.72258
 Alpha  occ. eigenvalues --   -6.72217  -6.72039  -6.72036  -6.70922  -6.70744
 Alpha  occ. eigenvalues --   -6.70734  -6.70699  -6.70517  -6.70448  -6.70074
 Alpha  occ. eigenvalues --   -6.69953  -6.68674  -6.68562  -6.68532  -6.68377
 Alpha  occ. eigenvalues --   -1.13645  -1.11127  -1.05779  -0.91387  -0.85467
 Alpha  occ. eigenvalues --   -0.78822  -0.58785  -0.56901  -0.55880  -0.53982
 Alpha  occ. eigenvalues --   -0.53207  -0.52213  -0.48276  -0.43948  -0.42601
 Alpha  occ. eigenvalues --   -0.39010  -0.38520  -0.35265  -0.35102
 Alpha virt. eigenvalues --    0.03070   0.04118   0.04953   0.06171   0.06822
 Alpha virt. eigenvalues --    0.07845   0.08247   0.09427   0.10166   0.10254
 Alpha virt. eigenvalues --    0.10761   0.11393   0.11980   0.12544   0.13095

  Beta  occ. eigenvalues --  -92.04047 -92.04022 -92.03075 -92.02877 -91.99901
  Beta  occ. eigenvalues --  -91.99759  -9.03745  -9.03716  -9.02876  -9.02678
  Beta  occ. eigenvalues --   -8.99953  -8.99806  -6.71935  -6.71912  -6.71787
  Beta  occ. eigenvalues --   -6.71705  -6.71125  -6.71077  -6.71027  -6.70917
  Beta  occ. eigenvalues --   -6.70889  -6.70767  -6.70720  -6.70559  -6.68255
  Beta  occ. eigenvalues --   -6.68111  -6.67961  -6.67839  -6.66644  -6.66482
  Beta  occ. eigenvalues --   -1.12349  -1.07894  -1.03788  -0.88530  -0.78658
  Beta  occ. eigenvalues --   -0.74865  -0.57906  -0.55795  -0.54236  -0.50543
  Beta  occ. eigenvalues --   -0.48114  -0.45611  -0.45411  -0.40232  -0.38608
  Beta  occ. eigenvalues --   -0.35799  -0.35448
  Beta virt. eigenvalues --   -0.00358   0.00051   0.03561   0.04736   0.05199
  Beta virt. eigenvalues --    0.06205   0.07106   0.07989   0.08333   0.09633
  Beta virt. eigenvalues --    0.10312   0.10400   0.11126   0.11780   0.12202

 Mulliken charges and spin densities:
               1          2
     1  S   -0.011230   0.317612
     2  S   -0.094043   0.778681
     3  S   -0.056390   0.764720
     4  S   -0.037319   0.272140
     5  S    0.292415  -0.045342
     6  S   -0.093433  -0.087811
 Sum of Mulliken charges =  -0.00000   2.00000

 Dipole moment (field-independent basis, Debye):
    X=              0.3487    Y=             -0.2329    Z=             -0.1158  Tot=              0.4350
 Quadrupole moment (field-independent basis, Debye-Ang):
   XX=            -77.8229   YY=            -77.6787   ZZ=            -78.7329
   XY=             -1.6356   XZ=             -0.8513   YZ=              0.8942

 D=-2386.3048426\CCSD(T)=-2386.3736497\S2=2.06648\S2-1=2.024104\S2A=2.0
 Normal termination of Gaussian 09 at Thu Oct 27 13:08:19 2016.
