 Gaussian 09, Revision E.01,
 Gaussian 09:  EM64L-G09RevE.01 30-Nov-2015

 ---------------------------------------------------------
 #p ccsd(t)/6-311++G(3df,2p) scf(MaxCyc=300) guess(Huckel)
 ---------------------------------------------------------

 -------------
 ccsd(t) iener
 -------------
 Symbolic Z-matrix:
 Charge =  1 Multiplicity = 2

                         Standard orientation:
 ---------------------------------------------------------------------
 Center     Atomic      Atomic             Coordinates (Angstroms)
 Number     Number       Type             X           Y           Z
 ---------------------------------------------------------------------
      1         16           0       -1.744025   -0.383073    0.717730
      2         16           0        1.739290   -0.378512   -0.717983
      3         16           0        1.644331   -1.098262    1.020934
      4         16           0       -0.496036    1.489037    0.842708
      5         16           0       -1.626833   -1.116329   -1.014312
      6         16           0        0.483273    1.487141   -0.849078
 ---------------------------------------------------------------------

 SCF Done:  E(UHF) =  -2384.93090961     A.U. after   50 cycles
 E2 =    -0.9970449891D+00 EUMP2 =    -0.23859279545942D+04
 CCSD(T)
 CCSD(T)= -0.23860802998D+04

 The electronic state is 2-A.
 Alpha  occ. eigenvalues --  -92.23874 -92.23817 -92.23662 -92.23633 -92.19270
 Alpha  occ. eigenvalues --  -92.19234  -9.23574  -9.23512  -9.23299  -9.23271
 Alpha  occ. eigenvalues --   -9.19322  -9.19286  -6.91769  -6.91682  -6.91670
 Alpha  occ. eigenvalues --   -6.91644  -6.91608  -6.91555  -6.91240  -6.91212
 Alpha  occ. eigenvalues --   -6.90991  -6.90963  -6.90693  -6.90650  -6.88615
 Alpha  occ. eigenvalues --   -6.88579  -6.87173  -6.87138  -6.86998  -6.86961
 Alpha  occ. eigenvalues --   -1.33377  -1.29777  -1.25174  -1.09536  -1.02538
 Alpha  occ. eigenvalues --   -0.95225  -0.78356  -0.75007  -0.74104  -0.72936
 Alpha  occ. eigenvalues --   -0.71111  -0.67651  -0.67440  -0.59440  -0.57857
 Alpha  occ. eigenvalues --   -0.55678  -0.55244  -0.53314
 Alpha virt. eigenvalues --   -0.25243  -0.13832  -0.12273  -0.10499  -0.06393
 Alpha virt. eigenvalues --   -0.05079  -0.04199  -0.03725  -0.03424  -0.02413
 Alpha virt. eigenvalues --   -0.02309  -0.01359  -0.01042  -0.00251   0.01525

  Beta  occ. eigenvalues --  -92.24380 -92.24315 -92.23503 -92.23472 -92.18408
  Beta  occ. eigenvalues --  -92.18373  -9.24075  -9.24008  -9.23134  -9.23104
  Beta  occ. eigenvalues --   -9.18468  -9.18433  -6.92786  -6.92714  -6.91988
  Beta  occ. eigenvalues --   -6.91912  -6.91876  -6.91817  -6.91410  -6.91381
  Beta  occ. eigenvalues --   -6.91190  -6.91161  -6.90535  -6.90503  -6.86734
  Beta  occ. eigenvalues --   -6.86699  -6.86492  -6.86457  -6.85062  -6.85026
  Beta  occ. eigenvalues --   -1.33854  -1.27528  -1.24590  -1.09676  -0.97019
  Beta  occ. eigenvalues --   -0.93736  -0.78428  -0.76496  -0.74551  -0.69483
  Beta  occ. eigenvalues --   -0.67517  -0.65709  -0.64904  -0.59824  -0.59722
  Beta  occ. eigenvalues --   -0.55350  -0.54186
  Beta virt. eigenvalues --   -0.17731  -0.16551  -0.14496  -0.12699  -0.10835
  Beta virt. eigenvalues --   -0.06240  -0.04723  -0.04172  -0.03707  -0.03317
  Beta virt. eigenvalues --   -0.02317  -0.02021  -0.01117  -0.01027   0.00141

 Mulliken charges and spin densities:
               1          2
     1  S    0.338786   0.070576
     2  S    0.347867   0.069859
     3  S    0.002392   0.789934
     4  S    0.156193  -0.364096
     5  S    0.009022   0.789709
     6  S    0.145740  -0.355981
 Sum of Mulliken charges =   1.00000   1.00000

 Dipole moment (field-independent basis, Debye):
    X=             -0.0178    Y=              0.6367    Z=              0.0033  Tot=              0.6370
 Quadrupole moment (field-independent basis, Debye-Ang):
   XX=            -61.2589   YY=            -65.5264   ZZ=            -64.7149
   XY=             -0.0132   XZ=             -0.9788   YZ=              0.0255

 1\CCSD=-2386.0006321\CCSD(T)=-2386.0802998\S2=1.654428\S2-1=1.568287\S
 Normal termination of Gaussian 09 at Sat Oct 29 13:37:54 2016.
