 Gaussian 09, Revision E.01,
 Gaussian 09:  EM64L-G09RevE.01 30-Nov-2015

 ---------------------------------------------------------
 #p ccsd(t)/6-311++G(3df,2p) scf(MaxCyc=300) guess(Huckel)
 ---------------------------------------------------------

 -------------
 ccsd(t) iener
 -------------
 Symbolic Z-matrix:
 Charge =  1 Multiplicity = 2

                         Standard orientation:
 ---------------------------------------------------------------------
 Center     Atomic      Atomic             Coordinates (Angstroms)
 Number     Number       Type             X           Y           Z
 ---------------------------------------------------------------------
      1         16           0        0.000000    1.937098    0.359818
      2         16           0       -1.677576   -0.968549    0.359818
      3         16           0        1.677576    0.968549   -0.359818
      4         16           0        1.677576   -0.968549    0.359818
      5         16           0       -1.677576    0.968549   -0.359818
      6         16           0       -0.000000   -1.937098   -0.359818
 ---------------------------------------------------------------------

 SCF Done:  E(UHF) =  -2384.94672509     A.U. after   17 cycles
 E2 =    -0.1030899160D+01 EUMP2 =    -0.23859776242532D+04
 CCSD(T)
 CCSD(T)= -0.23861006755D+04

 The electronic state is 2-A1G.
 Alpha  occ. eigenvalues --  -92.23437 -92.23437 -92.23437 -92.23436 -92.23436
 Alpha  occ. eigenvalues --  -92.23436  -9.23130  -9.23124  -9.23124  -9.23106
 Alpha  occ. eigenvalues --   -9.23106  -9.23096  -6.91498  -6.91496  -6.91496
 Alpha  occ. eigenvalues --   -6.91492  -6.91492  -6.91490  -6.91097  -6.91084
 Alpha  occ. eigenvalues --   -6.91084  -6.91057  -6.91057  -6.91042  -6.90961
 Alpha  occ. eigenvalues --   -6.90955  -6.90955  -6.90946  -6.90946  -6.90942
 Alpha  occ. eigenvalues --   -1.34653  -1.27072  -1.27072  -1.10122  -1.10122
 Alpha  occ. eigenvalues --   -0.95487  -0.81332  -0.75362  -0.74751  -0.74751
 Alpha  occ. eigenvalues --   -0.72185  -0.67327  -0.67327  -0.59706  -0.59706
 Alpha  occ. eigenvalues --   -0.59621  -0.59621  -0.54799
 Alpha virt. eigenvalues --   -0.14990  -0.14990  -0.09685  -0.07886  -0.07886
 Alpha virt. eigenvalues --   -0.06199  -0.05171  -0.03601  -0.03297  -0.03297
 Alpha virt. eigenvalues --   -0.02266  -0.01521  -0.01521  -0.00656  -0.00656

  Beta  occ. eigenvalues --  -92.23213 -92.23213 -92.23213 -92.23213 -92.23213
  Beta  occ. eigenvalues --  -92.23213  -9.22915  -9.22909  -9.22909  -9.22891
  Beta  occ. eigenvalues --   -9.22891  -9.22879  -6.91087  -6.91075  -6.91075
  Beta  occ. eigenvalues --   -6.91049  -6.91049  -6.91034  -6.90946  -6.90938
  Beta  occ. eigenvalues --   -6.90938  -6.90927  -6.90927  -6.90922  -6.90342
  Beta  occ. eigenvalues --   -6.90341  -6.90341  -6.90340  -6.90340  -6.90339
  Beta  occ. eigenvalues --   -1.33377  -1.25660  -1.25660  -1.08395  -1.08395
  Beta  occ. eigenvalues --   -0.91971  -0.81400  -0.75217  -0.71347  -0.71347
  Beta  occ. eigenvalues --   -0.69021  -0.66418  -0.66418  -0.58460  -0.58460
  Beta  occ. eigenvalues --   -0.52516  -0.52516
  Beta virt. eigenvalues --   -0.28762  -0.14376  -0.14376  -0.08791  -0.07151
  Beta virt. eigenvalues --   -0.07151  -0.06487  -0.06019  -0.03133  -0.03133
  Beta virt. eigenvalues --   -0.03106  -0.02068  -0.01466  -0.01466  -0.00618

 Mulliken charges and spin densities:
               1          2
     1  S    0.166667   0.166667
     2  S    0.166667   0.166667
     3  S    0.166667   0.166667
     4  S    0.166667   0.166667
     5  S    0.166667   0.166667
     6  S    0.166667   0.166667
 Sum of Mulliken charges =   1.00000   1.00000

 Dipole moment (field-independent basis, Debye):
    X=              0.0000    Y=             -0.0000    Z=             -0.0000  Tot=              0.0000
 Quadrupole moment (field-independent basis, Debye-Ang):
   XX=            -59.6491   YY=            -59.6491   ZZ=            -73.3990
   XY=             -0.0000   XZ=             -0.0000   YZ=              0.0000

 .0248741\CCSD(T)=-2386.1006755\S2=0.805324\S2-1=0.773661\S2A=0.752765\
 Normal termination of Gaussian 09 at Fri Oct 28 03:31:43 2016.
