 Gaussian 09, Revision E.01,
 Gaussian 09:  EM64L-G09RevE.01 30-Nov-2015

 ---------------------------------------------------------
 #p ccsd(t)/6-311++G(3df,2p) scf(MaxCyc=300) guess(Huckel)
 ---------------------------------------------------------

 -------------
 ccsd(t) iener
 -------------
 Symbolic Z-matrix:
 Charge =  1 Multiplicity = 2

                         Standard orientation:
 ---------------------------------------------------------------------
 Center     Atomic      Atomic             Coordinates (Angstroms)
 Number     Number       Type             X           Y           Z
 ---------------------------------------------------------------------
      1         16           0       -0.000000    1.536463    0.853605
      2         16           0        1.539223   -1.074278   -0.426802
      3         16           0        1.539223    1.074278   -0.426802
      4         16           0        0.000000   -1.536463    0.853605
      5         16           0       -1.539223   -1.074278   -0.426802
      6         16           0       -1.539223    1.074278   -0.426802
 ---------------------------------------------------------------------

 SCF Done:  E(UHF) =  -2384.93809414     A.U. after   19 cycles
 E2 =    -0.1035188910D+01 EUMP2 =    -0.23859732830491D+04
 CCSD(T)
 CCSD(T)= -0.23860955324D+04

 The electronic state is 2-A2.
 Alpha  occ. eigenvalues --  -92.23957 -92.23957 -92.23957 -92.23957 -92.22580
 Alpha  occ. eigenvalues --  -92.22580  -9.23581  -9.23579  -9.23568  -9.23568
 Alpha  occ. eigenvalues --   -9.22315  -9.22314  -6.92124  -6.92123  -6.92123
 Alpha  occ. eigenvalues --   -6.92123  -6.91504  -6.91503  -6.91482  -6.91481
 Alpha  occ. eigenvalues --   -6.91394  -6.91393  -6.91388  -6.91388  -6.90396
 Alpha  occ. eigenvalues --   -6.90395  -6.90263  -6.90263  -6.90168  -6.90168
 Alpha  occ. eigenvalues --   -1.35483  -1.27293  -1.25560  -1.10566  -1.08689
 Alpha  occ. eigenvalues --   -0.95779  -0.80079  -0.78455  -0.77215  -0.70004
 Alpha  occ. eigenvalues --   -0.69407  -0.68616  -0.66610  -0.66081  -0.60975
 Alpha  occ. eigenvalues --   -0.57241  -0.55844  -0.55668
 Alpha virt. eigenvalues --   -0.14545  -0.14441  -0.12786  -0.10151  -0.06391
 Alpha virt. eigenvalues --   -0.06006  -0.05161  -0.03813  -0.03810  -0.03322
 Alpha virt. eigenvalues --   -0.02643  -0.02231  -0.01211  -0.00380   0.00084

  Beta  occ. eigenvalues --  -92.23568 -92.23568 -92.23568 -92.23568 -92.22605
  Beta  occ. eigenvalues --  -92.22605  -9.23192  -9.23192  -9.23178  -9.23177
  Beta  occ. eigenvalues --   -9.22349  -9.22347  -6.91337  -6.91336  -6.91323
  Beta  occ. eigenvalues --   -6.91323  -6.91257  -6.91257  -6.91242  -6.91242
  Beta  occ. eigenvalues --   -6.90445  -6.90445  -6.90443  -6.90443  -6.90405
  Beta  occ. eigenvalues --   -6.90405  -6.90331  -6.90330  -6.90193  -6.90193
  Beta  occ. eigenvalues --   -1.34194  -1.26216  -1.23223  -1.07897  -1.07070
  Beta  occ. eigenvalues --   -0.93369  -0.80022  -0.77484  -0.74194  -0.68728
  Beta  occ. eigenvalues --   -0.67771  -0.66616  -0.64328  -0.59753  -0.57003
  Beta  occ. eigenvalues --   -0.56697  -0.49869
  Beta virt. eigenvalues --   -0.27053  -0.14311  -0.13555  -0.12481  -0.09484
  Beta virt. eigenvalues --   -0.06053  -0.05671  -0.04957  -0.03827  -0.03661
  Beta virt. eigenvalues --   -0.03103  -0.02687  -0.02143  -0.01119  -0.00184

 Mulliken charges and spin densities:
               1          2
     1  S    0.356456  -0.050407
     2  S    0.071772   0.275204
     3  S    0.071772   0.275204
     4  S    0.356456  -0.050407
     5  S    0.071772   0.275204
     6  S    0.071772   0.275204
 Sum of Mulliken charges =   1.00000   1.00000

 Dipole moment (field-independent basis, Debye):
    X=             -0.0000    Y=             -0.0000    Z=              0.0415  Tot=              0.0415
 Quadrupole moment (field-independent basis, Debye-Ang):
   XX=            -59.8345   YY=            -62.6007   ZZ=            -71.3037
   XY=             -0.0000   XZ=             -0.0000   YZ=             -0.0000

 98104\CCSD(T)=-2386.0955324\S2=0.792578\S2-1=0.764676\S2A=0.751497\RMS
 Normal termination of Gaussian 09 at Fri Oct 28 05:22:41 2016.
