 Gaussian 09, Revision E.01,
 Gaussian 09:  EM64L-G09RevE.01 30-Nov-2015

 ---------------------------------------------------------
 #p ccsd(t)/6-311++G(3df,2p) scf(MaxCyc=300) guess(Huckel)
 ---------------------------------------------------------

 -------------
 ccsd(t) iener
 -------------
 Symbolic Z-matrix:
 Charge =  1 Multiplicity = 2

                         Standard orientation:
 ---------------------------------------------------------------------
 Center     Atomic      Atomic             Coordinates (Angstroms)
 Number     Number       Type             X           Y           Z
 ---------------------------------------------------------------------
      1         16           0       -2.314108    0.894941   -0.134522
      2         16           0        2.311926   -0.896383   -0.131111
      3         16           0       -0.299382    0.943242    0.815806
      4         16           0        0.298175   -0.936946    0.819867
      5         16           0       -2.823626   -0.835099   -0.683943
      6         16           0        2.827016    0.830245   -0.686096
 ---------------------------------------------------------------------

 SCF Done:  E(UHF) =  -2384.93990859     A.U. after   41 cycles
 E2 =    -0.9794366146D+00 EUMP2 =    -0.23859193452033D+04
 CCSD(T)
 CCSD(T)= -0.23860686732D+04

 The electronic state is 2-A.
 Alpha  occ. eigenvalues --  -92.23659 -92.23629 -92.23016 -92.23005 -92.18371
 Alpha  occ. eigenvalues --  -92.18360  -9.23372  -9.23330  -9.22648  -9.22637
 Alpha  occ. eigenvalues --   -9.18409  -9.18399  -6.91590  -6.91516  -6.91373
 Alpha  occ. eigenvalues --   -6.91343  -6.91022  -6.91012  -6.90594  -6.90583
 Alpha  occ. eigenvalues --   -6.90439  -6.90414  -6.90407  -6.90396  -6.87717
 Alpha  occ. eigenvalues --   -6.87706  -6.86259  -6.86249  -6.86129  -6.86118
 Alpha  occ. eigenvalues --   -1.32207  -1.29621  -1.24169  -1.09334  -1.02464
 Alpha  occ. eigenvalues --   -0.94305  -0.77071  -0.75710  -0.72693  -0.71458
 Alpha  occ. eigenvalues --   -0.69951  -0.68214  -0.66366  -0.60146  -0.56945
 Alpha  occ. eigenvalues --   -0.55590  -0.55324  -0.51959
 Alpha virt. eigenvalues --   -0.23759  -0.14234  -0.10699  -0.10479  -0.05688
 Alpha virt. eigenvalues --   -0.04487  -0.03842  -0.03436  -0.03235  -0.02126
 Alpha virt. eigenvalues --   -0.02114  -0.01726  -0.00792  -0.00372   0.01002

  Beta  occ. eigenvalues --  -92.24267 -92.24232 -92.22812 -92.22801 -92.17457
  Beta  occ. eigenvalues --  -92.17447  -9.23980  -9.23938  -9.22447  -9.22435
  Beta  occ. eigenvalues --   -9.17506  -9.17495  -6.92757  -6.92718  -6.91912
  Beta  occ. eigenvalues --   -6.91872  -6.91808  -6.91760  -6.90658  -6.90646
  Beta  occ. eigenvalues --   -6.90503  -6.90492  -6.89839  -6.89825  -6.85791
  Beta  occ. eigenvalues --   -6.85780  -6.85472  -6.85462  -6.84074  -6.84064
  Beta  occ. eigenvalues --   -1.33227  -1.27324  -1.23511  -1.10065  -0.96518
  Beta  occ. eigenvalues --   -0.92515  -0.76735  -0.76641  -0.74583  -0.68541
  Beta  occ. eigenvalues --   -0.66647  -0.66010  -0.64782  -0.59507  -0.57675
  Beta  occ. eigenvalues --   -0.54357  -0.54293
  Beta virt. eigenvalues --   -0.16918  -0.15775  -0.14102  -0.11194  -0.10982
  Beta virt. eigenvalues --   -0.05659  -0.04265  -0.03832  -0.03350  -0.03323
  Beta virt. eigenvalues --   -0.02054  -0.01797  -0.01658  -0.00850  -0.00245

 Mulliken charges and spin densities:
               1          2
     1  S    0.128806   0.127181
     2  S    0.126459   0.126768
     3  S    0.239338  -0.436740
     4  S    0.246320  -0.440355
     5  S    0.128764   0.811409
     6  S    0.130313   0.811737
 Sum of Mulliken charges =   1.00000   1.00000

 Dipole moment (field-independent basis, Debye):
    X=              0.0060    Y=             -0.0004    Z=              0.3190  Tot=              0.3190
 Quadrupole moment (field-independent basis, Debye-Ang):
   XX=            -49.4752   YY=            -64.7338   ZZ=            -70.2157
   XY=              0.1040   XZ=             -0.0020   YZ=             -0.0084

 D=-2385.9942864\CCSD(T)=-2386.0686732\S2=1.728261\S2-1=1.645386\S2A=1.
 Normal termination of Gaussian 09 at Sat Oct 29 13:24:29 2016.
