 Gaussian 09, Revision E.01,
 Gaussian 09:  EM64L-G09RevE.01 30-Nov-2015

 -------------------------------------------
 #p ccsd(t)/6-311++G(3df,2p) scf(MaxCyc=300)
 -------------------------------------------

 -------------
 ccsd(t) iener
 -------------
 Symbolic Z-matrix:
 Charge =  0 Multiplicity = 1

                         Standard orientation:
 ---------------------------------------------------------------------
 Center     Atomic      Atomic             Coordinates (Angstroms)
 Number     Number       Type             X           Y           Z
 ---------------------------------------------------------------------
      1         16           0        0.947628    1.596078    0.000000
      2         16           0        0.945490   -0.799747   -1.380058
      3         16           0       -0.944926    1.593400   -0.000000
      4         16           0       -0.946841   -0.794992   -1.381202
      5         16           0       -0.946841   -0.794992    1.381202
      6         16           0        0.945490   -0.799747    1.380058
 ---------------------------------------------------------------------

 SCF Done:  E(RHF) =  -2385.13426034     A.U. after   18 cycles
 E2 =    -0.1202937013D+01 EUMP2 =    -0.23863371973519D+04
 CCSD(T)
 CCSD(T)= -0.23864000331D+04

 The electronic state is 1-A'.
 Alpha  occ. eigenvalues --  -92.03031 -92.02982 -92.02982 -92.02975 -92.02975
 Alpha  occ. eigenvalues --  -92.02919  -9.02730  -9.02699  -9.02699  -9.02659
 Alpha  occ. eigenvalues --   -9.02657  -9.02619  -6.70774  -6.70758  -6.70757
 Alpha  occ. eigenvalues --   -6.70692  -6.70664  -6.70664  -6.70660  -6.70649
 Alpha  occ. eigenvalues --   -6.70649  -6.70631  -6.70628  -6.70628  -6.70617
 Alpha  occ. eigenvalues --   -6.70617  -6.70607  -6.70606  -6.70585  -6.70556
 Alpha  occ. eigenvalues --   -1.13540  -1.07325  -1.07321  -0.87158  -0.78582
 Alpha  occ. eigenvalues --   -0.78579  -0.60105  -0.55052  -0.54291  -0.54281
 Alpha  occ. eigenvalues --   -0.50962  -0.50961  -0.40453  -0.37742  -0.37738
 Alpha  occ. eigenvalues --   -0.36787  -0.32914  -0.32908
 Alpha virt. eigenvalues --   -0.04271  -0.01204  -0.01198   0.04422   0.06338
 Alpha virt. eigenvalues --    0.07684   0.07684   0.09038   0.09039   0.09563
 Alpha virt. eigenvalues --    0.10640   0.10641   0.11715   0.13878   0.13879

 Mulliken charges:
               1
     1  S   -0.009081
     2  S    0.003309
     3  S    0.008743
     4  S   -0.003140
     5  S   -0.003140
     6  S    0.003309
 Sum of Mulliken charges =  -0.00000

 Dipole moment (field-independent basis, Debye):
    X=             -0.0116    Y=             -0.0026    Z=             -0.0000  Tot=              0.0119
 Quadrupole moment (field-independent basis, Debye-Ang):
   XX=            -72.7234   YY=            -80.0241   ZZ=            -80.0248
   XY=             -0.0316   XZ=             -0.0000   YZ=              0.0000

 Normal termination of Gaussian 09 at Wed Nov  2 02:28:43 2016.
