 Gaussian 09, Revision E.01,
 Gaussian 09:  EM64L-G09RevE.01 30-Nov-2015

 ---------------------------------------------------------
 #p ccsd(t)/6-311++G(3df,2p) scf(MaxCyc=300) guess(Huckel)
 ---------------------------------------------------------

 -------------
 ccsd(t) iener
 -------------
 Symbolic Z-matrix:
 Charge =  0 Multiplicity = 1

                         Standard orientation:
 ---------------------------------------------------------------------
 Center     Atomic      Atomic             Coordinates (Angstroms)
 Number     Number       Type             X           Y           Z
 ---------------------------------------------------------------------
      1         16           0        1.990187    0.858734   -0.198064
      2         16           0       -2.670941    0.023410    0.629971
      3         16           0       -1.292364    0.013971   -0.705739
      4         16           0        0.246873   -1.642321   -0.554088
      5         16           0        1.584230   -0.921489    0.820919
      6         16           0        0.142015    1.667696    0.007000
 ---------------------------------------------------------------------

 SCF Done:  E(RHF) =  -2385.20650076     A.U. after   19 cycles
 E2 =    -0.1051298134D+01 EUMP2 =    -0.23862577988967D+04
 CCSD(T)
 CCSD(T)= -0.23863839672D+04

 The electronic state is 1-A.
 Alpha  occ. eigenvalues --  -92.11538 -92.04428 -92.04410 -92.03607 -92.03460
 Alpha  occ. eigenvalues --  -91.95400  -9.10489  -9.04240  -9.04193  -9.03422
 Alpha  occ. eigenvalues --   -9.03291  -8.95608  -6.78552  -6.78536  -6.78416
 Alpha  occ. eigenvalues --   -6.72348  -6.72294  -6.72264  -6.72216  -6.72148
 Alpha  occ. eigenvalues --   -6.72096  -6.71494  -6.71410  -6.71371  -6.71290
 Alpha  occ. eigenvalues --   -6.71275  -6.71164  -6.63795  -6.63557  -6.63520
 Alpha  occ. eigenvalues --   -1.16203  -1.09660  -1.04229  -0.92998  -0.82542
 Alpha  occ. eigenvalues --   -0.80102  -0.59301  -0.59087  -0.56431  -0.54314
 Alpha  occ. eigenvalues --   -0.52175  -0.48754  -0.46810  -0.42992  -0.39615
 Alpha  occ. eigenvalues --   -0.37839  -0.34992  -0.33908
 Alpha virt. eigenvalues --    0.00249   0.01170   0.04245   0.04652   0.05946
 Alpha virt. eigenvalues --    0.06848   0.07620   0.08447   0.09495   0.09713
 Alpha virt. eigenvalues --    0.10566   0.10714   0.11358   0.11950   0.13109

 Mulliken charges:
               1
     1  S    0.045985
     2  S   -0.628972
     3  S    0.970815
     4  S   -0.165408
     5  S   -0.030753
     6  S   -0.191666
 Sum of Mulliken charges =  -0.00000

 Dipole moment (field-independent basis, Debye):
    X=              2.3558    Y=             -0.0271    Z=             -0.8490  Tot=              2.5043
 Quadrupole moment (field-independent basis, Debye-Ang):
   XX=            -81.3226   YY=            -76.6649   ZZ=            -79.6218
   XY=              0.1843   XZ=              2.6954   YZ=             -0.0350

 2549\CCSD=-2386.3079115\CCSD(T)=-2386.3839672\RMSD=7.433e-09\PG=C01 [X
 Normal termination of Gaussian 09 at Wed Oct 26 12:46:07 2016.
