 Gaussian 09, Revision E.01,
 Gaussian 09:  EM64L-G09RevE.01 30-Nov-2015

 ---------------------------------------------------------
 #p ccsd(t)/6-311++G(3df,2p) scf(MaxCyc=300) guess(Huckel)
 ---------------------------------------------------------

 -------------
 ccsd(t) iener
 -------------
 Symbolic Z-matrix:
 Charge =  1 Multiplicity = 2

                         Standard orientation:
 ---------------------------------------------------------------------
 Center     Atomic      Atomic             Coordinates (Angstroms)
 Number     Number       Type             X           Y           Z
 ---------------------------------------------------------------------
      1         16           0        1.432386   -1.421488    0.413165
      2         16           0       -3.029618    0.441976   -0.188622
      3         16           0       -1.374180    0.016979    0.590442
      4         16           0        0.946534    1.853925   -0.022014
      5         16           0        2.326098    0.523410   -0.216919
      6         16           0       -0.301220   -1.414802   -0.576052
 ---------------------------------------------------------------------

 SCF Done:  E(UHF) =  -2384.92901803     A.U. after   42 cycles
 E2 =    -0.1017744212D+01 EUMP2 =    -0.23859467622409D+04
 CCSD(T)
 CCSD(T)= -0.23860812619D+04

 The electronic state is 2-A.
 Alpha  occ. eigenvalues --  -92.30857 -92.23029 -92.22609 -92.20990 -92.20055
 Alpha  occ. eigenvalues --  -92.17998  -9.30038  -9.22764  -9.22470  -9.20637
 Alpha  occ. eigenvalues --   -9.19847  -9.18007  -6.98031  -6.97962  -6.97908
 Alpha  occ. eigenvalues --   -6.90845  -6.90741  -6.90616  -6.90517  -6.90483
 Alpha  occ. eigenvalues --   -6.90244  -6.89088  -6.88645  -6.88486  -6.87930
 Alpha  occ. eigenvalues --   -6.87764  -6.87722  -6.87306  -6.85849  -6.85742
 Alpha  occ. eigenvalues --   -1.35089  -1.29132  -1.24039  -1.10284  -1.01456
 Alpha  occ. eigenvalues --   -0.97077  -0.78595  -0.75794  -0.74880  -0.71421
 Alpha  occ. eigenvalues --   -0.70036  -0.67532  -0.65977  -0.61748  -0.59598
 Alpha  occ. eigenvalues --   -0.55951  -0.53439  -0.53055
 Alpha virt. eigenvalues --   -0.24647  -0.13443  -0.11626  -0.09652  -0.06405
 Alpha virt. eigenvalues --   -0.05582  -0.05174  -0.04024  -0.03013  -0.02492
 Alpha virt. eigenvalues --   -0.01885  -0.01190  -0.00850  -0.00516   0.00365

  Beta  occ. eigenvalues --  -92.30901 -92.23024 -92.22582 -92.20625 -92.20089
  Beta  occ. eigenvalues --  -92.17121  -9.30084  -9.22760  -9.22443  -9.20273
  Beta  occ. eigenvalues --   -9.19879  -9.17138  -6.98129  -6.98054  -6.97943
  Beta  occ. eigenvalues --   -6.90807  -6.90723  -6.90638  -6.90483  -6.90395
  Beta  occ. eigenvalues --   -6.90223  -6.88428  -6.88336  -6.87985  -6.87893
  Beta  occ. eigenvalues --   -6.87723  -6.87607  -6.85408  -6.85163  -6.83760
  Beta  occ. eigenvalues --   -1.35126  -1.27826  -1.22123  -1.09115  -0.99266
  Beta  occ. eigenvalues --   -0.93616  -0.78454  -0.75416  -0.74697  -0.70106
  Beta  occ. eigenvalues --   -0.67358  -0.65954  -0.62795  -0.59280  -0.58086
  Beta  occ. eigenvalues --   -0.54245  -0.52083
  Beta virt. eigenvalues --   -0.24663  -0.16342  -0.13220  -0.11340  -0.09418
  Beta virt. eigenvalues --   -0.06344  -0.05409  -0.04828  -0.03955  -0.02683
  Beta virt. eigenvalues --   -0.02373  -0.01599  -0.01103  -0.00800  -0.00424

 Mulliken charges and spin densities:
               1          2
     1  S    0.235657  -0.031507
     2  S   -0.027783   0.031464
     3  S    0.779415  -0.036447
     4  S    0.006220   0.775074
     5  S    0.098247   0.251029
     6  S   -0.091756   0.010386
 Sum of Mulliken charges =   1.00000   1.00000

 Dipole moment (field-independent basis, Debye):
    X=             -2.7882    Y=             -0.1612    Z=              0.1977  Tot=              2.7998
 Quadrupole moment (field-independent basis, Debye-Ang):
   XX=            -48.5912   YY=            -65.6634   ZZ=            -72.9090
   XY=             -1.8763   XZ=              0.4659   YZ=             -0.3205

 48\CCSD=-2386.0045797\CCSD(T)=-2386.0812619\S2=0.780313\S2-1=0.760295\
 Normal termination of Gaussian 09 at Sat Oct 29 13:30:14 2016.
