 Gaussian 09, Revision E.01,
 Gaussian 09:  EM64L-G09RevE.01 30-Nov-2015

 ---------------------------------------------------------
 #p ccsd(t)/6-311++G(3df,2p) scf(MaxCyc=300) guess(Huckel)
 ---------------------------------------------------------

 -------------
 ccsd(t) iener
 -------------
 Symbolic Z-matrix:
 Charge =  0 Multiplicity = 3

                         Standard orientation:
 ---------------------------------------------------------------------
 Center     Atomic      Atomic             Coordinates (Angstroms)
 Number     Number       Type             X           Y           Z
 ---------------------------------------------------------------------
      1         16           0       -0.870301    2.034725   -0.291680
      2         16           0       -0.909414   -2.116630   -0.995060
      3         16           0        0.870301   -2.034725   -0.291680
      4         16           0        0.909414   -0.349562    1.286739
      5         16           0       -0.909414    0.349562    1.286739
      6         16           0        0.909414    2.116630   -0.995060
 ---------------------------------------------------------------------

 SCF Done:  E(UHF) =  -2385.23106553     A.U. after   33 cycles
 E2 =    -0.1007501069D+01 EUMP2 =    -0.23862385666025D+04
 CCSD(T)
 CCSD(T)= -0.23863776383D+04

 The electronic state is 3-B.
 Alpha  occ. eigenvalues --  -92.04155 -92.04155 -92.02504 -92.02504 -92.00541
 Alpha  occ. eigenvalues --  -92.00541  -9.03849  -9.03849  -9.02334  -9.02304
 Alpha  occ. eigenvalues --   -9.00583  -9.00583  -6.72355  -6.72355  -6.72060
 Alpha  occ. eigenvalues --   -6.72060  -6.71725  -6.71725  -6.70487  -6.70411
 Alpha  occ. eigenvalues --   -6.70221  -6.70221  -6.70061  -6.70061  -6.69844
 Alpha  occ. eigenvalues --   -6.69844  -6.68463  -6.68463  -6.68379  -6.68379
 Alpha  occ. eigenvalues --   -1.13284  -1.10879  -1.05725  -0.90432  -0.85508
 Alpha  occ. eigenvalues --   -0.77953  -0.58612  -0.56558  -0.55515  -0.53111
 Alpha  occ. eigenvalues --   -0.53094  -0.52622  -0.49085  -0.42226  -0.41748
 Alpha  occ. eigenvalues --   -0.38572  -0.38382  -0.35128  -0.35042
 Alpha virt. eigenvalues --    0.02966   0.03230   0.04593   0.06091   0.07241
 Alpha virt. eigenvalues --    0.07418   0.09086   0.09664   0.10042   0.10143
 Alpha virt. eigenvalues --    0.10480   0.11587   0.13013   0.13162   0.13398

  Beta  occ. eigenvalues --  -92.03635 -92.03635 -92.02691 -92.02690 -91.99672
  Beta  occ. eigenvalues --  -91.99672  -9.03339  -9.03339  -9.02511  -9.02482
  Beta  occ. eigenvalues --   -8.99722  -8.99722  -6.71551  -6.71551  -6.71202
  Beta  occ. eigenvalues --   -6.71202  -6.70811  -6.70807  -6.70704  -6.70704
  Beta  occ. eigenvalues --   -6.70550  -6.70481  -6.70406  -6.70403  -6.68030
  Beta  occ. eigenvalues --   -6.68030  -6.67696  -6.67696  -6.66432  -6.66432
  Beta  occ. eigenvalues --   -1.12167  -1.07198  -1.03989  -0.88037  -0.78066
  Beta  occ. eigenvalues --   -0.74055  -0.57554  -0.55938  -0.53914  -0.50668
  Beta  occ. eigenvalues --   -0.48336  -0.44689  -0.44158  -0.38927  -0.38709
  Beta  occ. eigenvalues --   -0.35807  -0.35437
  Beta virt. eigenvalues --   -0.00390   0.00343   0.03625   0.03978   0.04867
  Beta virt. eigenvalues --    0.06114   0.07451   0.07524   0.09339   0.09642
  Beta virt. eigenvalues --    0.10066   0.10390   0.11026   0.11725   0.13240

 Mulliken charges and spin densities:
               1          2
     1  S   -0.054459   0.385688
     2  S   -0.047250   0.776086
     3  S   -0.054459   0.385688
     4  S    0.101709  -0.161774
     5  S    0.101709  -0.161774
     6  S   -0.047250   0.776086
 Sum of Mulliken charges =  -0.00000   2.00000

 Dipole moment (field-independent basis, Debye):
    X=              0.0000    Y=             -0.0000    Z=              0.2076  Tot=              0.2076
 Quadrupole moment (field-independent basis, Debye-Ang):
   XX=            -74.7956   YY=            -79.5203   ZZ=            -79.1098
   XY=             -1.0561   XZ=              0.0000   YZ=              0.0000

 CCSD(T)=-2386.3776383\S2=2.119939\S2-1=2.064973\S2A=2.009312\RMSD=4.33
 Normal termination of Gaussian 09 at Sat Oct 29 02:11:16 2016.
