 Gaussian 09, Revision E.01,
 Gaussian 09:  EM64L-G09RevE.01 30-Nov-2015

 ---------------------------------------------
 #p b3lyp/6-311++G(3df,2p) freq symmetry=Loose
 ---------------------------------------------

 ---------
 b3lyp opt
 ---------
 Symbolic Z-matrix:
 Charge =  0 Multiplicity = 2

                         Standard orientation:
 ---------------------------------------------------------------------
 Center     Atomic      Atomic             Coordinates (Angstroms)
 Number     Number       Type             X           Y           Z
 ---------------------------------------------------------------------
      1          7           0        0.000000    0.000000    0.638134
      2          6           0        0.000000    0.000000    1.828901
      3          6           0        0.000000   -0.000000   -1.929988
      4          6           0        0.000000   -0.000000   -0.643402
 ---------------------------------------------------------------------

 SCF Done:  E(UB3LYP) =  -168.870190340     A.U. after   14 cycles

 Unable to determine electronic state:  partially filled degenerate orbitals.
 Alpha  occ. eigenvalues --  -14.44628 -10.30126 -10.30075 -10.26290  -1.05779
 Alpha  occ. eigenvalues --   -0.86142  -0.76205  -0.50761  -0.49534  -0.38546
 Alpha  occ. eigenvalues --   -0.34832  -0.33905  -0.32347
 Alpha virt. eigenvalues --   -0.10483  -0.09018  -0.00454   0.02739   0.03478
 Alpha virt. eigenvalues --    0.03890   0.04971   0.05677   0.06695   0.09558
 Alpha virt. eigenvalues --    0.10421   0.11221   0.13251   0.13571   0.14362

  Beta  occ. eigenvalues --  -14.44626 -10.29793 -10.29443 -10.25748  -1.05193
  Beta  occ. eigenvalues --   -0.84148  -0.74229  -0.49322  -0.48316  -0.37936
  Beta  occ. eigenvalues --   -0.32728  -0.31546
  Beta virt. eigenvalues --   -0.23639  -0.08667  -0.07155  -0.00290   0.03604
  Beta virt. eigenvalues --    0.03900   0.04082   0.05845   0.06422   0.06730
  Beta virt. eigenvalues --    0.09691   0.11447   0.12096   0.13645   0.13974

 Mulliken charges and spin densities:
               1          2
     1  N   -0.590160   0.007308
     2  C    0.144564   0.163006
     3  C   -0.614868   0.333469
     4  C    1.060464   0.496217
 Sum of Mulliken charges =   0.00000   1.00000

 Dipole moment (field-independent basis, Debye):
    X=             -0.0000    Y=              0.0000    Z=              1.1200  Tot=              1.1200
 Quadrupole moment (field-independent basis, Debye-Ang):
   XX=            -22.7880   YY=            -20.9901   ZZ=            -33.1407
   XY=              0.0000   XZ=              0.0000   YZ=             -0.0000

  Exact polarizability:  28.108  -0.000  34.910  -0.000  -0.000  75.765
 Approx polarizability:  39.433  -0.000  40.783  -0.000   0.000 144.211

 ******    1 imaginary frequencies (negative Signs) ******

                      1                      2                      3
                     ?A                     ?A                     ?A
 Frequencies --   -533.4709               216.4495               238.8054
 Red. masses --     12.1985                12.3634                13.0176
 Frc consts  --      2.0454                 0.3413                 0.4374
 IR Inten    --    212.3269                 7.6549                 3.4489

                      4                      5                      6
                     ?A                     SG                     SG
 Frequencies --    439.3866               950.4609              1869.6845
 Red. masses --     12.8350                12.2582                12.1953
 Frc consts  --      1.4600                 6.5245                25.1177
 IR Inten    --      0.0846                 9.6989               199.6398

                      7
                     SG
 Frequencies --   2118.5538
 Red. masses --     12.8467
 Frc consts  --     33.9720
 IR Inten    --     51.6356

 - Thermochemistry -
 -------------------
 Temperature   298.150 Kelvin.  Pressure   1.00000 Atm.
 Atom     1 has atomic number  7 and mass  14.00307

 Molecular mass:    50.00307 amu.
 Principal axes and moments of inertia in atomic units:
                           1         2         3
     Eigenvalues --     0.00000 341.06049 341.06049
           X           -0.00000  -0.00000   1.00000
           Y            0.00000   1.00000   0.00000
           Z            1.00000  -0.00000   0.00000
 This molecule is a prolate symmetric top.
 Rotational symmetry number  1.
 Rotational temperature (Kelvin)      0.25395
 Rotational constant (GHZ):           5.291558
    1 imaginary frequencies ignored.
 Zero-point vibrational energy      34891.1 (Joules/Mol)
                                    8.33918 (Kcal/Mol)
 Warning -- explicit consideration of   3 degrees of freedom as
           vibrations may cause significant error
 Vibrational temperatures:    311.42   343.59   632.18  1367.50  2690.06
          (Kelvin)           3048.12

 Zero-point correction=                           0.013289 (Hartree/Particle)
 Thermal correction to Energy=                    0.017007
 Thermal correction to Enthalpy=                  0.017951
 Thermal correction to Gibbs Free Energy=        -0.010466
 Sum of electronic and zero-point Energies=           -168.856901
 Sum of electronic and thermal Energies=              -168.853184
 Sum of electronic and thermal Enthalpies=            -168.852240
 Sum of electronic and thermal Free Energies=         -168.880657

                     E (Thermal)             CV                S
                      KCal/Mol        Cal/Mol-Kelvin    Cal/Mol-Kelvin
 Total                   10.672             10.411             59.809
 Electronic               0.000              0.000              1.377
 Translational            0.889              2.981             37.652
 Rotational               0.592              1.987             16.033
 Vibrational              9.191              5.443              4.746
 Vibration     1          0.645              1.816              1.989
 Vibration     2          0.657              1.781              1.812
 Vibration     3          0.799              1.384              0.829

 Optimization completed.
    -- Stationary point found.
 Normal termination of Gaussian 09 at Fri Aug  5 07:05:13 2016.
