 Gaussian 09, Revision E.01,
 Gaussian 09:  EM64L-G09RevE.01 30-Nov-2015

 ---------------------------------------------
 #p b3lyp/6-311++G(3df,2p) freq symmetry=Loose
 ---------------------------------------------

 ---------
 b3lyp opt
 ---------
 Symbolic Z-matrix:
 Charge =  0 Multiplicity = 2

                         Standard orientation:
 ---------------------------------------------------------------------
 Center     Atomic      Atomic             Coordinates (Angstroms)
 Number     Number       Type             X           Y           Z
 ---------------------------------------------------------------------
      1          6           0        0.008574   -0.878836    0.239456
      2          7           0       -0.939495    0.000042   -0.217658
      3          6           0        0.008694    0.878842    0.239452
      4          6           0        1.078809   -0.000055   -0.224974
 ---------------------------------------------------------------------

 SCF Done:  E(UB3LYP) =  -168.785166182     A.U. after   18 cycles

 The electronic state is 2-A.
 Alpha  occ. eigenvalues --  -14.44170 -10.30907 -10.30903 -10.29662  -1.10998
 Alpha  occ. eigenvalues --   -0.76761  -0.66640  -0.51927  -0.47516  -0.45059
 Alpha  occ. eigenvalues --   -0.34835  -0.32007  -0.30224
 Alpha virt. eigenvalues --   -0.16052  -0.06853  -0.06679   0.02802   0.04098
 Alpha virt. eigenvalues --    0.04219   0.04256   0.08013   0.08626   0.09314
 Alpha virt. eigenvalues --    0.09766   0.10319   0.12860   0.15446   0.16246

  Beta  occ. eigenvalues --  -14.44114 -10.30058 -10.30050 -10.29500  -1.10229
  Beta  occ. eigenvalues --   -0.76133  -0.64667  -0.49993  -0.46263  -0.43392
  Beta  occ. eigenvalues --   -0.32225  -0.31501
  Beta virt. eigenvalues --   -0.17584  -0.15814  -0.05763  -0.05304   0.03331
  Beta virt. eigenvalues --    0.04168   0.04394   0.04440   0.08103   0.08660
  Beta virt. eigenvalues --    0.09778   0.09926   0.10450   0.13105   0.15795

 Mulliken charges and spin densities:
               1          2
     1  C    0.138058   0.474719
     2  N   -0.359747  -0.026116
     3  C    0.138043   0.474737
     4  C    0.083646   0.076660
 Sum of Mulliken charges =  -0.00000   1.00000

 Dipole moment (field-independent basis, Debye):
    X=             -0.1345    Y=             -0.0000    Z=              0.7327  Tot=              0.7449
 Quadrupole moment (field-independent basis, Debye-Ang):
   XX=            -24.8629   YY=            -24.1338   ZZ=            -22.3936
   XY=              0.0001   XZ=              0.7662   YZ=             -0.0001

  Exact polarizability:  41.486   0.001  50.576  -1.104   0.000  25.789
 Approx polarizability:  92.663   0.002 105.524   0.070  -0.000  40.000

 ******    1 imaginary frequencies (negative Signs) ******

                      1                      2                      3
                      A                      A                      A
 Frequencies --   -401.5291               624.1235               780.3206
 Red. masses --     12.3436                12.5712                12.3873
 Frc consts  --      1.1725                 2.8851                 4.4440
 IR Inten    --      1.5031                 3.0543               134.4313

                      4                      5                      6
                      A                      A                      A
 Frequencies --    781.5099              1142.3381              1367.4148
 Red. masses --     12.2210                12.1870                12.8044
 Frc consts  --      4.3977                 9.3700                14.1062
 IR Inten    --     12.8422                 0.1696                 5.8490

 - Thermochemistry -
 -------------------
 Temperature   298.150 Kelvin.  Pressure   1.00000 Atm.
 Atom     1 has atomic number  6 and mass  12.00000

 Molecular mass:    50.00307 amu.
 Principal axes and moments of inertia in atomic units:
                           1         2         3
     Eigenvalues --    75.64754 103.46954 160.21278
           X            1.00000   0.00000  -0.00003
           Y           -0.00000   1.00000   0.00000
           Z            0.00003  -0.00000   1.00000
 This molecule is an asymmetric top.
 Rotational symmetry number  1.
 Rotational temperatures (Kelvin)      1.14497     0.83709     0.54062
 Rotational constants (GHZ):          23.85724    17.44225    11.26465
    1 imaginary frequencies ignored.
 Zero-point vibrational energy      28086.6 (Joules/Mol)
                                    6.71285 (Kcal/Mol)
 Vibrational temperatures:    897.97  1122.71  1124.42  1643.57  1967.40
          (Kelvin)

 Zero-point correction=                           0.010698 (Hartree/Particle)
 Thermal correction to Energy=                    0.013875
 Thermal correction to Enthalpy=                  0.014819
 Thermal correction to Gibbs Free Energy=        -0.014503
 Sum of electronic and zero-point Energies=           -168.774469
 Sum of electronic and thermal Energies=              -168.771291
 Sum of electronic and thermal Enthalpies=            -168.770347
 Sum of electronic and thermal Free Energies=         -168.799669

                     E (Thermal)             CV                S
                      KCal/Mol        Cal/Mol-Kelvin    Cal/Mol-Kelvin
 Total                    8.707              8.672             61.714
 Electronic               0.000              0.000              1.377
 Translational            0.889              2.981             37.652
 Rotational               0.889              2.981             21.755
 Vibrational              6.929              2.710              0.930

 Optimization completed.
    -- Stationary point found.
 Normal termination of Gaussian 09 at Fri Aug  5 07:06:14 2016.
