 Gaussian 09, Revision E.01,
 Gaussian 09:  EM64L-G09RevE.01 30-Nov-2015

 ---------------------------------------------
 #p b3lyp/6-311++G(3df,2p) freq symmetry=Loose
 ---------------------------------------------

 ---------
 b3lyp opt
 ---------
 Symbolic Z-matrix:
 Charge =  0 Multiplicity = 2

                         Standard orientation:
 ---------------------------------------------------------------------
 Center     Atomic      Atomic             Coordinates (Angstroms)
 Number     Number       Type             X           Y           Z
 ---------------------------------------------------------------------
      1          7           0        1.091354    0.038987    0.015567
      2          6           0       -0.192678   -0.084857    0.885399
      3          6           0       -1.193434    0.038002   -0.162245
      4          6           0        0.045028    0.908902   -0.326011
      5          6           0        0.067837   -0.907532   -0.415304
 ---------------------------------------------------------------------

 SCF Done:  E(UB3LYP) =  -206.782169741     A.U. after   19 cycles

 The electronic state is 2-A.
 Alpha  occ. eigenvalues --  -14.46605 -10.33483 -10.33272 -10.32644 -10.29589
 Alpha  occ. eigenvalues --   -1.19075  -0.86243  -0.71940  -0.65382  -0.50611
 Alpha  occ. eigenvalues --   -0.49339  -0.43171  -0.39965  -0.34594  -0.34202
 Alpha  occ. eigenvalues --   -0.31877
 Alpha virt. eigenvalues --   -0.14176  -0.07447   0.00633   0.01408   0.01838
 Alpha virt. eigenvalues --    0.02567   0.03151   0.07004   0.07835   0.07989
 Alpha virt. eigenvalues --    0.08276   0.08439   0.08845   0.11103   0.11843

  Beta  occ. eigenvalues --  -14.46627 -10.33016 -10.32408 -10.32164 -10.29295
  Beta  occ. eigenvalues --   -1.18573  -0.85906  -0.70973  -0.62911  -0.49679
  Beta  occ. eigenvalues --   -0.49018  -0.42671  -0.37102  -0.33625  -0.31354
  Beta virt. eigenvalues --   -0.21561  -0.12965  -0.06599   0.01377   0.01681
  Beta virt. eigenvalues --    0.02155   0.03258   0.04089   0.07374   0.07869
  Beta virt. eigenvalues --    0.08064   0.08388   0.08821   0.09718   0.11486

 Mulliken charges and spin densities:
               1          2
     1  N   -0.312888  -0.022804
     2  C    0.125782   0.557284
     3  C    0.107561   0.142379
     4  C    0.085590   0.165866
     5  C   -0.006044   0.157274
 Sum of Mulliken charges =  -0.00000   1.00000

 Dipole moment (field-independent basis, Debye):
    X=              0.8280    Y=              0.2423    Z=              0.7927  Tot=              1.1716
 Quadrupole moment (field-independent basis, Debye-Ang):
   XX=            -32.3234   YY=            -28.7087   ZZ=            -28.2796
   XY=              0.0672   XZ=             -0.7823   YZ=             -0.3619

  Exact polarizability:  46.258  -0.454  46.419   2.488  -0.315  40.122
 Approx polarizability:  83.161  -0.197 110.173   2.423  -2.157  78.699

 ******    1 imaginary frequencies (negative Signs) ******

                      1                      2                      3
                      A                      A                      A
 Frequencies --    -93.8138               244.7713               395.6715
 Red. masses --     12.3788                12.5311                12.4098
 Frc consts  --      0.0642                 0.4423                 1.1447
 IR Inten    --     52.0484                 6.9088                 4.9412

                      4                      5                      6
                      A                      A                      A
 Frequencies --    443.2527               755.2909               837.7854
 Red. masses --     12.2393                12.2023                12.0664
 Frc consts  --      1.4168                 4.1013                 4.9899
 IR Inten    --      7.8849                47.7553                 2.7602

                      7                      8                      9
                      A                      A                      A
 Frequencies --    900.8258              1190.7449              1260.6549
 Red. masses --     12.0492                12.4871                12.5911
 Frc consts  --      5.7609                10.4316                11.7898
 IR Inten    --      2.7190                 5.2105                 5.7072

 - Thermochemistry -
 -------------------
 Temperature   298.150 Kelvin.  Pressure   1.00000 Atm.
 Atom     1 has atomic number  7 and mass  14.00307

 Molecular mass:    62.00307 amu.
 Principal axes and moments of inertia in atomic units:
                           1         2         3
     Eigenvalues --   117.82090 169.14870 193.61068
           X            1.00000  -0.00001  -0.00000
           Y            0.00001   1.00000  -0.00000
           Z            0.00000   0.00000   1.00000
 This molecule is an asymmetric top.
 Rotational symmetry number  1.
 Rotational temperatures (Kelvin)      0.73513     0.51206     0.44736
 Rotational constants (GHZ):          15.31767    10.66955     9.32150
    1 imaginary frequencies ignored.
 Zero-point vibrational energy      36061.4 (Joules/Mol)
                                    8.61888 (Kcal/Mol)
 Warning -- explicit consideration of   3 degrees of freedom as
           vibrations may cause significant error
 Vibrational temperatures:    352.17   569.28   637.74  1086.69  1205.38
          (Kelvin)           1296.09  1713.21  1813.80

 Zero-point correction=                           0.013735 (Hartree/Particle)
 Thermal correction to Energy=                    0.017890
 Thermal correction to Enthalpy=                  0.018834
 Thermal correction to Gibbs Free Energy=        -0.012879
 Sum of electronic and zero-point Energies=           -206.768435
 Sum of electronic and thermal Energies=              -206.764280
 Sum of electronic and thermal Enthalpies=            -206.763336
 Sum of electronic and thermal Free Energies=         -206.795049

                     E (Thermal)             CV                S
                      KCal/Mol        Cal/Mol-Kelvin    Cal/Mol-Kelvin
 Total                   11.226             12.784             66.745
 Electronic               0.000              0.000              1.377
 Translational            0.889              2.981             38.293
 Rotational               0.889              2.981             22.872
 Vibrational              9.448              6.823              4.203
 Vibration     1          0.660              1.771              1.768
 Vibration     2          0.762              1.479              0.979
 Vibration     3          0.803              1.376              0.816

 Normal termination of Gaussian 09 at Fri Aug  5 07:47:52 2016.
