 Gaussian 09, Revision E.01,
 Gaussian 09:  EM64L-G09RevE.01 30-Nov-2015

 ---------------------------------------------
 #p b3lyp/6-311++G(3df,2p) freq symmetry=Loose
 ---------------------------------------------

 ---------
 b3lyp opt
 ---------
 Symbolic Z-matrix:
 Charge =  0 Multiplicity = 4

                         Standard orientation:
 ---------------------------------------------------------------------
 Center     Atomic      Atomic             Coordinates (Angstroms)
 Number     Number       Type             X           Y           Z
 ---------------------------------------------------------------------
      1          7           0        0.936891   -0.061265   -0.219858
      2          6           0       -0.273120    0.991276   -0.217510
      3          6           0       -0.517534   -0.255332   -0.880396
      4          6           0       -0.028864    0.290848    1.009090
      5          6           0       -0.273521   -0.955315    0.345317
 ---------------------------------------------------------------------

 SCF Done:  E(UB3LYP) =  -206.736781466     A.U. after   14 cycles

 The electronic state is 4-A.
 Alpha  occ. eigenvalues --  -14.43190 -10.29643 -10.29604 -10.29603 -10.29558
 Alpha  occ. eigenvalues --   -1.14267  -0.72860  -0.72848  -0.71745  -0.48536
 Alpha  occ. eigenvalues --   -0.47324  -0.39168  -0.38513  -0.38511  -0.37762
 Alpha  occ. eigenvalues --   -0.28469  -0.28463
 Alpha virt. eigenvalues --   -0.02224   0.00618   0.00948   0.00971   0.02578
 Alpha virt. eigenvalues --    0.03303   0.03304   0.06848   0.07862   0.08457
 Alpha virt. eigenvalues --    0.08461   0.08748   0.10261   0.11560   0.11562

  Beta  occ. eigenvalues --  -14.43494 -10.27929 -10.27890 -10.27890 -10.27850
  Beta  occ. eigenvalues --   -1.12622  -0.70793  -0.69148  -0.69140  -0.45566
  Beta  occ. eigenvalues --   -0.41896  -0.36960  -0.36958  -0.32422
  Beta virt. eigenvalues --   -0.21947  -0.12986  -0.12977  -0.01661   0.02590
  Beta virt. eigenvalues --    0.02596   0.03168   0.04334   0.04334   0.04527
  Beta virt. eigenvalues --    0.07395   0.07894   0.08812   0.08828   0.08896

 Mulliken charges and spin densities:
               1          2
     1  N   -0.366883  -0.130797
     2  C    0.092704   0.783709
     3  C    0.090172   0.781108
     4  C    0.092635   0.783855
     5  C    0.091372   0.782124
 Sum of Mulliken charges =  -0.00000   3.00000

 Dipole moment (field-independent basis, Debye):
    X=             -0.8320    Y=              0.0578    Z=              0.1986  Tot=              0.8574
 Quadrupole moment (field-independent basis, Debye-Ang):
   XX=            -28.7241   YY=            -28.6676   ZZ=            -28.6728
   XY=              0.0089   XZ=              0.0185   YZ=             -0.0028

  Exact polarizability:  37.104   0.781  47.842   2.615  -0.185  47.282
 Approx polarizability:  72.087   0.948  82.827   2.800  -0.229  82.233

 ******    2 imaginary frequencies (negative Signs) ******

                      1                      2                      3
                      A                      A                      A
 Frequencies --   -312.3246              -311.9379               414.2130
 Red. masses --     12.8331                12.8331                12.0002
 Frc consts  --      0.7376                 0.7357                 1.2131
 IR Inten    --      0.6305                 0.6265                 0.0005

                      4                      5                      6
                      A                      A                      A
 Frequencies --    787.5991               903.2461              1205.9462
 Red. masses --     12.0000                13.4470                12.0107
 Frc consts  --      4.3857                 6.4638                10.2914
 IR Inten    --      0.0009                 4.3216                 2.3009

                      7                      8                      9
                      A                      A                      A
 Frequencies --   1206.2113              1276.9431              1371.9914
 Red. masses --     12.0107                12.0000                12.0376
 Frc consts  --     10.2959                11.5286                13.3504
 IR Inten    --      2.3058                 0.0130                 0.0015

 - Thermochemistry -
 -------------------
 Temperature   298.150 Kelvin.  Pressure   1.00000 Atm.
 Atom     1 has atomic number  7 and mass  14.00307

 Molecular mass:    62.00307 amu.
 Principal axes and moments of inertia in atomic units:
                           1         2         3
     Eigenvalues --   148.02987 148.06006 175.98567
           X            0.25072  -0.00001   0.96806
           Y            0.28939   0.95427  -0.07494
           Z            0.92379  -0.29894  -0.23926
 This molecule is an asymmetric top.
 Rotational symmetry number  1.
 Rotational temperatures (Kelvin)      0.58511     0.58499     0.49216
 Rotational constants (GHZ):          12.19174    12.18925    10.25505
    2 imaginary frequencies ignored.
 Zero-point vibrational energy      42863.1 (Joules/Mol)
                                   10.24453 (Kcal/Mol)
 Warning -- explicit consideration of   1 degrees of freedom as
           vibrations may cause significant error
 Vibrational temperatures:    595.96  1133.18  1299.57  1735.09  1735.47
          (Kelvin)           1837.23  1973.99

 Zero-point correction=                           0.016326 (Hartree/Particle)
 Thermal correction to Energy=                    0.019643
 Thermal correction to Enthalpy=                  0.020587
 Thermal correction to Gibbs Free Energy=        -0.010448
 Sum of electronic and zero-point Energies=           -206.720456
 Sum of electronic and thermal Energies=              -206.717139
 Sum of electronic and thermal Enthalpies=            -206.716195
 Sum of electronic and thermal Free Energies=         -206.747229

                     E (Thermal)             CV                S
                      KCal/Mol        Cal/Mol-Kelvin    Cal/Mol-Kelvin
 Total                   12.326              9.246             65.318
 Electronic               0.000              0.000              2.755
 Translational            0.889              2.981             38.293
 Rotational               0.889              2.981             22.871
 Vibrational             10.549              3.284              1.398
 Vibration     1          0.778              1.439              0.912

 Normal termination of Gaussian 09 at Fri Aug  5 08:04:01 2016.
