 Gaussian 09, Revision E.01,
 Gaussian 09:  EM64L-G09RevE.01 30-Nov-2015

 -----------------------------------------
 #p b3lyp/6-311+G(3df) freq symmetry=Loose
 -----------------------------------------

 ---------
 b3lyp opt
 ---------
 Symbolic Z-matrix:
 Charge =  2 Multiplicity = 1

                         Standard orientation:
 ---------------------------------------------------------------------
 Center     Atomic      Atomic             Coordinates (Angstroms)
 Number     Number       Type             X           Y           Z
 ---------------------------------------------------------------------
      1          6           0        0.000000   -0.000000    1.530870
      2          6           0        0.000000    0.000000   -1.530870
      3          6           0        0.000000    0.000000    0.000000
 ---------------------------------------------------------------------

 SCF Done:  E(RB3LYP) =  -112.799842724     A.U. after    9 cycles

 Unable to determine electronic state:  partially filled degenerate orbitals.
 Alpha  occ. eigenvalues --  -11.00576 -11.00573 -10.96431  -1.41329  -1.30876
 Alpha  occ. eigenvalues --   -0.98660  -0.93614  -0.91996
 Alpha virt. eigenvalues --   -0.87260  -0.75539  -0.74904  -0.61393  -0.61121
 Alpha virt. eigenvalues --   -0.54273  -0.36039  -0.29141  -0.28845  -0.26989
 Alpha virt. eigenvalues --   -0.26037  -0.22985  -0.22876  -0.22612  -0.21781

 Mulliken charges:
               1
     1  C    0.770480
     2  C    0.770480
     3  C    0.459040
 Sum of Mulliken charges =   2.00000

 Dipole moment (field-independent basis, Debye):
    X=              0.0000    Y=              0.0000    Z=             -0.0000  Tot=              0.0000
 Quadrupole moment (field-independent basis, Debye-Ang):
   XX=            -13.0310   YY=             -9.7856   ZZ=              0.7959
   XY=              0.0000   XZ=             -0.0000   YZ=             -0.0000

  Exact polarizability:  17.480  -0.000  16.263   0.000  -0.000  43.801
 Approx polarizability:  25.657   0.000  27.239  -0.000  -0.000 101.794

 ******    1 imaginary frequencies (negative Signs) ******

                      1                      2                      3
                     PIU                    PIU                    SGG
 Frequencies --    -69.3423               153.0393               721.4915
 Red. masses --     12.0000                12.0000                12.0000
 Frc consts  --      0.0340                 0.1656                 3.6804
 IR Inten    --     25.6531                 0.0094                 0.0000

                      4
                     SGU
 Frequencies --   1110.6270
 Red. masses --     12.0000
 Frc consts  --      8.7210
 IR Inten    --   1075.8916

 - Thermochemistry -
 -------------------
 Temperature   298.150 Kelvin.  Pressure   1.00000 Atm.
 Atom     1 has atomic number  6 and mass  12.00000

 Molecular mass:    36.00000 amu.
 Principal axes and moments of inertia in atomic units:
                           1         2         3
     Eigenvalues --     0.00000 200.85638 200.85638
           X           -0.00000   0.24150   0.97040
           Y           -0.00000   0.97040  -0.24150
           Z            1.00000   0.00000   0.00000
 This molecule is a prolate symmetric top.
 Rotational symmetry number  2.
 Rotational temperature (Kelvin)      0.43122
 Rotational constant (GHZ):           8.985232
    1 imaginary frequencies ignored.
 Zero-point vibrational energy      11873.9 (Joules/Mol)
                                    2.83793 (Kcal/Mol)
 Warning -- explicit consideration of   1 degrees of freedom as
           vibrations may cause significant error
 Vibrational temperatures:    220.19  1038.06  1597.94
          (Kelvin)

 Zero-point correction=                           0.004523 (Hartree/Particle)
 Thermal correction to Energy=                    0.007649
 Thermal correction to Enthalpy=                  0.008593
 Thermal correction to Gibbs Free Energy=        -0.016708
 Sum of electronic and zero-point Energies=           -112.795320
 Sum of electronic and thermal Energies=              -112.792193
 Sum of electronic and thermal Enthalpies=            -112.791249
 Sum of electronic and thermal Free Energies=         -112.816551

                     E (Thermal)             CV                S
                      KCal/Mol        Cal/Mol-Kelvin    Cal/Mol-Kelvin
 Total                    4.800              7.927             53.252
 Electronic               0.000              0.000              0.000
 Translational            0.889              2.981             36.673
 Rotational               0.592              1.987             13.604
 Vibrational              3.319              2.959              2.975
 Vibration     1          0.619              1.899              2.634

 Optimization completed.
    -- Stationary point found.
 Normal termination of Gaussian 09 at Thu Jun 16 17:32:47 2016.
