 Gaussian 09, Revision E.01,
 Gaussian 09:  EM64L-G09RevE.01 30-Nov-2015

 -----------------------------------------
 #p b3lyp/6-311+G(3df) freq symmetry=Loose
 -----------------------------------------

 ---------
 b3lyp opt
 ---------
 Symbolic Z-matrix:
 Charge =  2 Multiplicity = 3

                         Standard orientation:
 ---------------------------------------------------------------------
 Center     Atomic      Atomic             Coordinates (Angstroms)
 Number     Number       Type             X           Y           Z
 ---------------------------------------------------------------------
      1          6           0       -0.688040    0.060852    0.000096
      2          6           0        1.859864   -0.686126   -0.000023
      3          6           0       -0.008815    1.277523   -0.000043
      4          6           0       -1.909334   -0.683831   -0.000049
      5          6           0        0.746325    0.031581    0.000019
 ---------------------------------------------------------------------

 SCF Done:  E(UB3LYP) =  -189.101641400     A.U. after   34 cycles

 The electronic state is 3-A.
 Alpha  occ. eigenvalues --  -10.88864 -10.88459 -10.83877 -10.81692 -10.81010
 Alpha  occ. eigenvalues --   -1.50505  -1.32256  -1.28596  -1.05646  -0.99264
 Alpha  occ. eigenvalues --   -0.97048  -0.88454  -0.85347  -0.83265  -0.81913
 Alpha virt. eigenvalues --   -0.69933  -0.68202  -0.61144  -0.53325  -0.48234
 Alpha virt. eigenvalues --   -0.36930  -0.35026  -0.29564  -0.27834  -0.27811
 Alpha virt. eigenvalues --   -0.26678  -0.25895  -0.24473  -0.21758  -0.21398

  Beta  occ. eigenvalues --  -10.87944 -10.87237 -10.83143 -10.81284 -10.80410
  Beta  occ. eigenvalues --   -1.49382  -1.29200  -1.26295  -1.02182  -0.97021
  Beta  occ. eigenvalues --   -0.93896  -0.83820  -0.81813
  Beta virt. eigenvalues --   -0.72942  -0.71583  -0.66060  -0.65098  -0.59185
  Beta virt. eigenvalues --   -0.49721  -0.43845  -0.36184  -0.31785  -0.27964
  Beta virt. eigenvalues --   -0.27440  -0.27136  -0.26296  -0.25259  -0.23474

 Mulliken charges and spin densities:
               1          2
     1  C    0.624250   0.289695
     2  C    0.074860   0.422211
     3  C    0.286124   0.671837
     4  C    0.261533   0.274624
     5  C    0.753234   0.341633
 Sum of Mulliken charges =   2.00000   2.00000

 Dipole moment (field-independent basis, Debye):
    X=             -0.6698    Y=              0.3330    Z=              0.0002  Tot=              0.7480
 Quadrupole moment (field-independent basis, Debye-Ang):
   XX=             -6.6125   YY=            -14.9594   ZZ=            -21.4237
   XY=             -0.0153   XZ=             -0.0004   YZ=             -0.0003

  Exact polarizability:  75.624  -5.109  51.271  -0.004  -0.001  29.312
 Approx polarizability: 174.124 -10.323  93.956   0.003  -0.001  39.432

 ******    2 imaginary frequencies (negative Signs) ******

                      1                      2                      3
                      A                      A                      A
 Frequencies --   -323.1683              -203.5509               168.3056
 Red. masses --     12.0000                12.0000                12.0000
 Frc consts  --      0.7384                 0.2929                 0.2003
 IR Inten    --      8.5063                 8.3323                 7.6569

                      4                      5                      6
                      A                      A                      A
 Frequencies --    290.5770               683.0712               798.9792
 Red. masses --     12.0000                12.0000                12.0000
 Frc consts  --      0.5970                 3.2989                 4.5134
 IR Inten    --      2.7969                 1.1146                40.8663

                      7                      8                      9
                      A                      A                      A
 Frequencies --    982.1309              1387.0827              1704.4402
 Red. masses --     12.0000                12.0000                12.0000
 Frc consts  --      6.8198                13.6030                20.5397
 IR Inten    --     67.3954               877.9338                 0.6130

 - Thermochemistry -
 -------------------
 Temperature   298.150 Kelvin.  Pressure   1.00000 Atm.
 Atom     1 has atomic number  6 and mass  12.00000

 Molecular mass:    60.00000 amu.
 Principal axes and moments of inertia in atomic units:
                           1         2         3
     Eigenvalues --   110.35265 348.61284 458.96549
           X            1.00000  -0.00000   0.00000
           Y            0.00000   1.00000   0.00000
           Z           -0.00000  -0.00000   1.00000
 This molecule is an asymmetric top.
 Rotational symmetry number  1.
 Rotational temperatures (Kelvin)      0.78488     0.24845     0.18872
 Rotational constants (GHZ):          16.35431     5.17692     3.93219
    2 imaginary frequencies ignored.
 Zero-point vibrational energy      35975.2 (Joules/Mol)
                                    8.59828 (Kcal/Mol)
 Warning -- explicit consideration of   2 degrees of freedom as
           vibrations may cause significant error
 Vibrational temperatures:    242.15   418.08   982.79  1149.55  1413.07
          (Kelvin)           1995.70  2452.31

 Zero-point correction=                           0.013702 (Hartree/Particle)
 Thermal correction to Energy=                    0.017827
 Thermal correction to Enthalpy=                  0.018771
 Thermal correction to Gibbs Free Energy=        -0.014177
 Sum of electronic and zero-point Energies=           -189.087939
 Sum of electronic and thermal Energies=              -189.083815
 Sum of electronic and thermal Enthalpies=            -189.082871
 Sum of electronic and thermal Free Energies=         -189.115819

                     E (Thermal)             CV                S
                      KCal/Mol        Cal/Mol-Kelvin    Cal/Mol-Kelvin
 Total                   11.186             11.593             69.346
 Electronic               0.000              0.000              2.183
 Translational            0.889              2.981             38.195
 Rotational               0.889              2.981             24.383
 Vibrational              9.409              5.631              4.584
 Vibration     1          0.625              1.881              2.454
 Vibration     2          0.687              1.691              1.471

 Normal termination of Gaussian 09 at Thu Jun 16 17:58:48 2016.
