 Gaussian 09, Revision E.01,
 Gaussian 09:  EM64L-G09RevE.01 30-Nov-2015

 -----------------------------------------
 #p b3lyp/6-311+G(3df) freq symmetry=Loose
 -----------------------------------------

 ---------
 b3lyp opt
 ---------
 Symbolic Z-matrix:
 Charge =  1 Multiplicity = 4

                         Standard orientation:
 ---------------------------------------------------------------------
 Center     Atomic      Atomic             Coordinates (Angstroms)
 Number     Number       Type             X           Y           Z
 ---------------------------------------------------------------------
      1          6           0       -1.769608    0.000000   -0.000000
      2          6           0        0.713797   -0.831676    0.000000
      3          6           0       -0.713797    0.831676   -0.000000
      4          6           0        0.713797    0.831676    0.000000
      5          6           0       -0.713797   -0.831676   -0.000000
      6          6           0        1.769608   -0.000000   -0.000000
 ---------------------------------------------------------------------

 SCF Done:  E(UB3LYP) =  -227.876234370     A.U. after   12 cycles

 The electronic state is 4-AU.
 Alpha  occ. eigenvalues --  -10.56860 -10.56854 -10.56821 -10.56810 -10.53151
 Alpha  occ. eigenvalues --  -10.53149  -1.28844  -1.17261  -0.99037  -0.96398
 Alpha  occ. eigenvalues --   -0.81620  -0.74939  -0.74842  -0.72388  -0.64162
 Alpha  occ. eigenvalues --   -0.61570  -0.54819  -0.54269  -0.49453
 Alpha virt. eigenvalues --   -0.33721  -0.32421  -0.29769  -0.29751  -0.17494
 Alpha virt. eigenvalues --   -0.15743  -0.12870  -0.11600  -0.10014  -0.09381
 Alpha virt. eigenvalues --   -0.08763  -0.07058  -0.06046  -0.05998  -0.05718

  Beta  occ. eigenvalues --  -10.55717 -10.55709 -10.55679 -10.55671 -10.52165
  Beta  occ. eigenvalues --  -10.52163  -1.27343  -1.16223  -0.94934  -0.94619
  Beta  occ. eigenvalues --   -0.78468  -0.73557  -0.70786  -0.67138  -0.59303
  Beta  occ. eigenvalues --   -0.57113
  Beta virt. eigenvalues --   -0.43550  -0.41252  -0.36636  -0.30138  -0.29899
  Beta virt. eigenvalues --   -0.23974  -0.23935  -0.15358  -0.13458  -0.11872
  Beta virt. eigenvalues --   -0.11387  -0.09211  -0.09154  -0.08234  -0.05576

 Mulliken charges and spin densities:
               1          2
     1  C    0.077644   0.432210
     2  C    0.211178   0.533895
     3  C    0.211178   0.533895
     4  C    0.211178   0.533895
     5  C    0.211178   0.533895
     6  C    0.077644   0.432210
 Sum of Mulliken charges =   1.00000   3.00000

 Dipole moment (field-independent basis, Debye):
    X=             -0.0000    Y=             -0.0000    Z=             -0.0000  Tot=              0.0000
 Quadrupole moment (field-independent basis, Debye-Ang):
   XX=            -26.0864   YY=            -25.6258   ZZ=            -29.7204
   XY=             -0.0000   XZ=              0.0000   YZ=             -0.0000

  Exact polarizability:  85.573   0.000  49.469   0.000  -0.000  29.154
 Approx polarizability: 186.075   0.000 134.548  -0.000   0.000  44.626

 ******    1 imaginary frequencies (negative Signs) ******

                      1                      2                      3
                     B1G                    B1U                    B3U
 Frequencies --   -449.6997               284.6850               340.6065
 Red. masses --     12.0000                12.0000                12.0000
 Frc consts  --      1.4298                 0.5730                 0.8202
 IR Inten    --      0.0000                 1.9504                 0.3812

                      4                      5                      6
                     B2G                    B2U                    AU
 Frequencies --    375.9925               411.8056               603.3605
 Red. masses --     12.0000                12.0000                12.0000
 Frc consts  --      0.9995                 1.1990                 2.5739
 IR Inten    --      0.0000                44.8884                 0.0000

                      7                      8                      9
                     AG                     AG                     B1G
 Frequencies --    702.9592              1028.0320              1029.9899
 Red. masses --     12.0000                12.0000                12.0000
 Frc consts  --      3.4937                 7.4721                 7.5006
 IR Inten    --      0.0000                 0.0000                 0.0000

                     10                     11                     12
                     B2U                    B3U                    AG
 Frequencies --   1288.5125              1575.6936              1749.9787
 Red. masses --     12.0000                12.0000                12.0000
 Frc consts  --     11.7384                17.5540                21.6519
 IR Inten    --     18.2611                15.5024                 0.0000

 - Thermochemistry -
 -------------------
 Temperature   298.150 Kelvin.  Pressure   1.00000 Atm.
 Atom     1 has atomic number  6 and mass  12.00000

 Molecular mass:    72.00000 amu.
 Principal axes and moments of inertia in atomic units:
                           1         2         3
     Eigenvalues --   118.56242 355.72286 474.28528
           X            1.00000   0.00000   0.00000
           Y           -0.00000   1.00000   0.00000
           Z            0.00000  -0.00000   1.00000
 This molecule is an asymmetric top.
 Rotational symmetry number  4.
 Rotational temperatures (Kelvin)      0.73053     0.24349     0.18262
 Rotational constants (GHZ):          15.22187     5.07345     3.80518
    1 imaginary frequencies ignored.
 Zero-point vibrational energy      56174.3 (Joules/Mol)
                                   13.42599 (Kcal/Mol)
 Warning -- explicit consideration of   5 degrees of freedom as
           vibrations may cause significant error
 Vibrational temperatures:    409.60   490.06   540.97   592.50   868.10
          (Kelvin)           1011.40  1479.11  1481.92  1853.88  2267.07
                             2517.83

 Zero-point correction=                           0.021396 (Hartree/Particle)
 Thermal correction to Energy=                    0.026024
 Thermal correction to Enthalpy=                  0.026968
 Thermal correction to Gibbs Free Energy=        -0.005764
 Sum of electronic and zero-point Energies=           -227.854839
 Sum of electronic and thermal Energies=              -227.850211
 Sum of electronic and thermal Enthalpies=            -227.849267
 Sum of electronic and thermal Free Energies=         -227.881998

                     E (Thermal)             CV                S
                      KCal/Mol        Cal/Mol-Kelvin    Cal/Mol-Kelvin
 Total                   16.330             15.007             68.890
 Electronic               0.000              0.000              2.755
 Translational            0.889              2.981             38.739
 Rotational               0.889              2.981             21.752
 Vibrational             14.553              9.045              5.644
 Vibration     1          0.683              1.702              1.505
 Vibration     2          0.720              1.594              1.209
 Vibration     3          0.747              1.521              1.055
 Vibration     4          0.776              1.445              0.920
 Vibration     5          0.962              1.025              0.444

 Optimization completed.
    -- Stationary point found.
 Normal termination of Gaussian 09 at Tue Nov  1 19:41:41 2016.
