 Gaussian 09, Revision E.01,
 Gaussian 09:  EM64L-G09RevE.01 30-Nov-2015

 -----------------------------------------
 #p b3lyp/6-311+G(3df) freq symmetry=Loose
 -----------------------------------------

 ---------
 b3lyp opt
 ---------
 Symbolic Z-matrix:
 Charge =  1 Multiplicity = 2

                         Standard orientation:
 ---------------------------------------------------------------------
 Center     Atomic      Atomic             Coordinates (Angstroms)
 Number     Number       Type             X           Y           Z
 ---------------------------------------------------------------------
      1          6           0        0.811530   -0.004827    0.811909
      2          6           0       -0.735279   -0.772734   -0.410631
      3          6           0       -0.820409   -0.004850    0.806727
      4          6           0        0.739205    0.778218   -0.398614
      5          6           0        0.739885   -0.773261   -0.406261
      6          6           0       -0.734931    0.777453   -0.403130
 ---------------------------------------------------------------------

 SCF Done:  E(UB3LYP) =  -227.774408292     A.U. after   27 cycles

 The electronic state is 2-A.
 Alpha  occ. eigenvalues --  -10.57026 -10.57008 -10.56544 -10.56528 -10.56485
 Alpha  occ. eigenvalues --  -10.56466  -1.36580  -1.10403  -0.98797  -0.92996
 Alpha  occ. eigenvalues --   -0.80253  -0.71917  -0.70683  -0.67192  -0.65740
 Alpha  occ. eigenvalues --   -0.62806  -0.55969  -0.53996
 Alpha virt. eigenvalues --   -0.42652  -0.42100  -0.38933  -0.23049  -0.22125
 Alpha virt. eigenvalues --   -0.15594  -0.13984  -0.12629  -0.09781  -0.08622
 Alpha virt. eigenvalues --   -0.07850  -0.07290  -0.07178  -0.06512  -0.05812

  Beta  occ. eigenvalues --  -10.57581 -10.57558 -10.55768 -10.55738 -10.55695
  Beta  occ. eigenvalues --  -10.55665  -1.35840  -1.10070  -0.97009  -0.93052
  Beta  occ. eigenvalues --   -0.78915  -0.69398  -0.68166  -0.67267  -0.66372
  Beta  occ. eigenvalues --   -0.62853  -0.53824
  Beta virt. eigenvalues --   -0.41914  -0.41734  -0.39122  -0.37946  -0.22247
  Beta virt. eigenvalues --   -0.22182  -0.15085  -0.13961  -0.12388  -0.09650
  Beta virt. eigenvalues --   -0.08529  -0.07474  -0.07205  -0.06965  -0.06507

 Mulliken charges and spin densities:
               1          2
     1  C    0.221196  -0.260186
     2  C    0.147970   0.368739
     3  C    0.208956  -0.258344
     4  C    0.137192   0.390608
     5  C    0.136591   0.378459
     6  C    0.148095   0.380724
 Sum of Mulliken charges =   1.00000   1.00000

 Dipole moment (field-independent basis, Debye):
    X=             -0.0136    Y=              0.0025    Z=              0.0002  Tot=              0.0139
 Quadrupole moment (field-independent basis, Debye-Ang):
   XX=            -26.0493   YY=            -27.2826   ZZ=            -28.7519
   XY=              0.0002   XZ=              0.0373   YZ=              0.0012

  Exact polarizability:  55.275   0.000  46.439   0.013   0.022  42.614
 Approx polarizability: 146.031  -0.011 132.520   0.205   0.392 103.323

 ******    3 imaginary frequencies (negative Signs) ******

                      1                      2                      3
                      A                      A                      A
 Frequencies --   -702.8598              -697.5777              -211.6089
 Red. masses --     12.0000                12.0000                12.0000
 Frc consts  --      3.4928                 3.4405                 0.3166
 IR Inten    --     18.9701               119.8349                 0.5128

                      4                      5                      6
                      A                      A                      A
 Frequencies --    353.3821               543.9518               575.4493
 Red. masses --     12.0000                12.0000                12.0000
 Frc consts  --      0.8829                 2.0920                 2.3412
 IR Inten    --      0.0042                32.5235                 0.0160

                      7                      8                      9
                      A                      A                      A
 Frequencies --    845.7646               846.5762               883.2382
 Red. masses --     12.0000                12.0000                12.0000
 Frc consts  --      5.0574                 5.0671                 5.5155
 IR Inten    --      1.2435                 0.5144                23.1958

                     10                     11                     12
                      A                      A                      A
 Frequencies --    926.7781              1157.1770              1244.4276
 Red. masses --     12.0000                12.0000                12.0000
 Frc consts  --      6.0727                 9.4674                10.9489
 IR Inten    --     18.3748                 2.5348                 0.0219

 - Thermochemistry -
 -------------------
 Temperature   298.150 Kelvin.  Pressure   1.00000 Atm.
 Atom     1 has atomic number  6 and mass  12.00000

 Molecular mass:    72.00000 amu.
 Principal axes and moments of inertia in atomic units:
                           1         2         3
     Eigenvalues --   187.27651 234.46219 253.32071
           X            1.00000   0.00000   0.00000
           Y           -0.00000   1.00000   0.00000
           Z            0.00000  -0.00000   1.00000
 This molecule is an asymmetric top.
 Rotational symmetry number  1.
 Rotational temperatures (Kelvin)      0.46249     0.36941     0.34191
 Rotational constants (GHZ):           9.63677     7.69737     7.12433
    3 imaginary frequencies ignored.
 Zero-point vibrational energy      44122.7 (Joules/Mol)
                                   10.54559 (Kcal/Mol)
 Warning -- explicit consideration of   3 degrees of freedom as
           vibrations may cause significant error
 Vibrational temperatures:    508.44   782.62   827.94  1216.87  1218.03
          (Kelvin)           1270.78  1333.43  1664.92  1790.45

 Zero-point correction=                           0.016805 (Hartree/Particle)
 Thermal correction to Energy=                    0.020636
 Thermal correction to Enthalpy=                  0.021580
 Thermal correction to Gibbs Free Energy=        -0.010228
 Sum of electronic and zero-point Energies=           -227.757603
 Sum of electronic and thermal Energies=              -227.753773
 Sum of electronic and thermal Enthalpies=            -227.752829
 Sum of electronic and thermal Free Energies=         -227.784637

                     E (Thermal)             CV                S
                      KCal/Mol        Cal/Mol-Kelvin    Cal/Mol-Kelvin
 Total                   12.949             12.323             66.946
 Electronic               0.000              0.000              1.377
 Translational            0.889              2.981             38.739
 Rotational               0.889              2.981             23.924
 Vibrational             11.172              6.361              2.906
 Vibration     1          0.730              1.568              1.151
 Vibration     2          0.899              1.153              0.557
 Vibration     3          0.932              1.084              0.494

 Normal termination of Gaussian 09 at Tue Nov  1 20:04:20 2016.
