 Gaussian 09, Revision E.01,
 Gaussian 09:  EM64L-G09RevE.01 30-Nov-2015

 -----------------------------------------
 #p b3lyp/6-311+G(3df) freq symmetry=Loose
 -----------------------------------------

 ---------
 b3lyp opt
 ---------
 Symbolic Z-matrix:
 Charge =  1 Multiplicity = 2

                         Standard orientation:
 ---------------------------------------------------------------------
 Center     Atomic      Atomic             Coordinates (Angstroms)
 Number     Number       Type             X           Y           Z
 ---------------------------------------------------------------------
      1          6           0        0.664873    1.090965    0.000000
      2          6           0        1.371537   -0.000000    0.000000
      3          6           0        0.664873   -1.090965   -0.000000
      4          6           0       -0.664873    1.090965   -0.000000
      5          6           0       -1.371537    0.000000    0.000000
      6          6           0       -0.664873   -1.090965    0.000000
 ---------------------------------------------------------------------

 SCF Done:  E(UB3LYP) =  -227.938921812     A.U. after   15 cycles

 The electronic state is 2-B2U.
 Alpha  occ. eigenvalues --  -10.52183 -10.52173 -10.52094 -10.52091 -10.49379
 Alpha  occ. eigenvalues --  -10.49374  -1.20444  -1.05444  -1.04387  -0.87378
 Alpha  occ. eigenvalues --   -0.86937  -0.77985  -0.69594  -0.69142  -0.55693
 Alpha  occ. eigenvalues --   -0.55577  -0.55573  -0.54352
 Alpha virt. eigenvalues --   -0.40229  -0.37353  -0.34342  -0.27578  -0.25518
 Alpha virt. eigenvalues --   -0.14204  -0.10485  -0.10250  -0.09718  -0.08393
 Alpha virt. eigenvalues --   -0.07169  -0.07132  -0.06523  -0.05911  -0.05672

  Beta  occ. eigenvalues --  -10.51357 -10.51353 -10.51279 -10.51273 -10.50138
  Beta  occ. eigenvalues --  -10.50133  -1.18969  -1.05535  -1.01730  -0.87039
  Beta  occ. eigenvalues --   -0.85605  -0.77592  -0.68771  -0.66271  -0.56114
  Beta  occ. eigenvalues --   -0.55932  -0.54385
  Beta virt. eigenvalues --   -0.43196  -0.37619  -0.35913  -0.30577  -0.26385
  Beta virt. eigenvalues --   -0.26007  -0.14126  -0.10473  -0.09876  -0.09555
  Beta virt. eigenvalues --   -0.08262  -0.06774  -0.06756  -0.06572  -0.05823

 Mulliken charges and spin densities:
               1          2
     1  C    0.141997   0.563922
     2  C    0.216006  -0.627843
     3  C    0.141997   0.563922
     4  C    0.141997   0.563922
     5  C    0.216006  -0.627843
     6  C    0.141997   0.563922
 Sum of Mulliken charges =   1.00000   1.00000

 Dipole moment (field-independent basis, Debye):
    X=             -0.0000    Y=              0.0000    Z=             -0.0000  Tot=              0.0000
 Quadrupole moment (field-independent basis, Debye-Ang):
   XX=            -22.4327   YY=            -21.2692   ZZ=            -30.8612
   XY=              0.0000   XZ=             -0.0000   YZ=             -0.0000

  Exact polarizability:  60.915   0.000  60.024  -0.000   0.000  30.011
 Approx polarizability: 146.925  -0.000 164.964  -0.000   0.000  40.528

 ******    1 imaginary frequencies (negative Signs) ******

                      1                      2                      3
                     B3U                    B2G                    B1U
 Frequencies --   -630.6493                37.4605               451.2172
 Red. masses --     12.0000                12.0000                12.0000
 Frc consts  --      2.8119                 0.0099                 1.4395
 IR Inten    --      0.0250                 0.0000                 1.6469

                      4                      5                      6
                     AU                     AG                     B1G
 Frequencies --    483.1734               534.7704               591.2745
 Red. masses --     12.0000                12.0000                12.0000
 Frc consts  --      1.6506                 2.0219                 2.4718
 IR Inten    --      0.0000                 0.0000                 0.0000

                      7                      8                      9
                     AG                     B2U                    B3U
 Frequencies --   1170.0759              1224.6344              1384.5890
 Red. masses --     12.0000                12.0000                12.0000
 Frc consts  --      9.6796                10.6034                13.5542
 IR Inten    --      0.0000                10.3068                41.5858

                     10                     11                     12
                     B2U                    B1G                    AG
 Frequencies --   1453.1821              1545.7010              1785.3098
 Red. masses --     12.0000                12.0000                12.0000
 Frc consts  --     14.9304                16.8921                22.5351
 IR Inten    --     34.9713                 0.0000                 0.0000

 - Thermochemistry -
 -------------------
 Temperature   298.150 Kelvin.  Pressure   1.00000 Atm.
 Atom     1 has atomic number  6 and mass  12.00000

 Molecular mass:    72.00000 amu.
 Principal axes and moments of inertia in atomic units:
                           1         2         3
     Eigenvalues --   204.01443 236.99518 441.00961
           X            1.00000  -0.00000   0.00000
           Y            0.00000   1.00000   0.00000
           Z            0.00000  -0.00000   1.00000
 This molecule is an asymmetric top.
 Rotational symmetry number  4.
 Rotational temperatures (Kelvin)      0.42455     0.36547     0.19640
 Rotational constants (GHZ):           8.84614     7.61510     4.09229
    1 imaginary frequencies ignored.
 Zero-point vibrational energy      63769.3 (Joules/Mol)
                                   15.24122 (Kcal/Mol)
 Warning -- explicit consideration of   5 degrees of freedom as
           vibrations may cause significant error
 Vibrational temperatures:     53.90   649.20   695.18   769.41   850.71
          (Kelvin)           1683.48  1761.97  1992.11  2090.80  2223.92
                             2568.66

 Zero-point correction=                           0.024288 (Hartree/Particle)
 Thermal correction to Energy=                    0.028900
 Thermal correction to Enthalpy=                  0.029844
 Thermal correction to Gibbs Free Energy=        -0.003409
 Sum of electronic and zero-point Energies=           -227.914633
 Sum of electronic and thermal Energies=              -227.910022
 Sum of electronic and thermal Enthalpies=            -227.909078
 Sum of electronic and thermal Free Energies=         -227.942331

                     E (Thermal)             CV                S
                      KCal/Mol        Cal/Mol-Kelvin    Cal/Mol-Kelvin
 Total                   18.135             13.517             69.987
 Electronic               0.000              0.000              1.377
 Translational            0.889              2.981             38.739
 Rotational               0.889              2.981             21.815
 Vibrational             16.358              7.556              8.055
 Vibration     1          0.594              1.982              5.389
 Vibration     2          0.810              1.358              0.792
 Vibration     3          0.839              1.287              0.702
 Vibration     4          0.890              1.173              0.577
 Vibration     5          0.949              1.050              0.465

 Optimization completed.
    -- Stationary point found.
 Normal termination of Gaussian 09 at Tue Nov  1 19:52:11 2016.
