 Gaussian 09, Revision E.01,
 Gaussian 09:  EM64L-G09RevE.01 30-Nov-2015

 -----------------------------------------
 #p b3lyp/6-311+G(3df) freq symmetry=Loose
 -----------------------------------------

 ---------
 b3lyp opt
 ---------
 Symbolic Z-matrix:
 Charge =  1 Multiplicity = 4

                         Standard orientation:
 ---------------------------------------------------------------------
 Center     Atomic      Atomic             Coordinates (Angstroms)
 Number     Number       Type             X           Y           Z
 ---------------------------------------------------------------------
      1          6           0        0.000000    0.000000    3.193106
      2          6           0        0.000000    0.000000    1.918689
      3          6           0        0.000000    0.000000    0.634799
      4          6           0        0.000000    0.000000   -0.634799
      5          6           0        0.000000    0.000000   -1.918689
      6          6           0        0.000000    0.000000   -3.193106
 ---------------------------------------------------------------------

 SCF Done:  E(UB3LYP) =  -227.934541904     A.U. after   13 cycles

 The electronic state is 4-SGG.
 Alpha  occ. eigenvalues --  -10.52496 -10.52494 -10.51361 -10.51218 -10.47352
 Alpha  occ. eigenvalues --  -10.47349  -1.11312  -1.07037  -1.02792  -0.94487
 Alpha  occ. eigenvalues --   -0.87888  -0.66154  -0.66154  -0.60627  -0.60522
 Alpha  occ. eigenvalues --   -0.59713  -0.59713  -0.51841  -0.51841
 Alpha virt. eigenvalues --   -0.34824  -0.34824  -0.19765  -0.19765  -0.15674
 Alpha virt. eigenvalues --   -0.11489  -0.09801  -0.09801  -0.07583  -0.07143
 Alpha virt. eigenvalues --   -0.07143  -0.05335  -0.04915  -0.04915  -0.03144

  Beta  occ. eigenvalues --  -10.50964 -10.50829 -10.50270 -10.50268 -10.47212
  Beta  occ. eigenvalues --  -10.47209  -1.09723  -1.05026  -0.98564  -0.91937
  Beta  occ. eigenvalues --   -0.86542  -0.63902  -0.63902  -0.56227  -0.56227
  Beta  occ. eigenvalues --   -0.48958
  Beta virt. eigenvalues --   -0.47356  -0.42061  -0.42061  -0.29606  -0.29606
  Beta virt. eigenvalues --   -0.15904  -0.15904  -0.15494  -0.11011  -0.09490
  Beta virt. eigenvalues --   -0.09490  -0.06825  -0.06475  -0.06475  -0.04953

 Mulliken charges and spin densities:
               1          2
     1  C   -0.221383   1.032751
     2  C    1.200312   0.326142
     3  C   -0.478929   0.141107
     4  C   -0.478929   0.141107
     5  C    1.200312   0.326142
     6  C   -0.221383   1.032751
 Sum of Mulliken charges =   1.00000   3.00000

 Dipole moment (field-independent basis, Debye):
    X=              0.0000    Y=              0.0000    Z=              0.0000  Tot=              0.0000
 Quadrupole moment (field-independent basis, Debye-Ang):
   XX=            -29.8932   YY=            -29.8932   ZZ=             -5.4329
   XY=             -0.0000   XZ=              0.0000   YZ=              0.0000

  Exact polarizability:  32.431   0.000  32.431   0.000  -0.000  74.423
 Approx polarizability:  45.705  -0.000  45.705  -0.000  -0.0005975.621

 ******    2 imaginary frequencies (negative Signs) ******

                      1                      2                      3
                     PIG                    PIG                    PIU
 Frequencies --  -1745.4357             -1745.4346               107.7959
 Red. masses --     12.0000                12.0000                12.0000
 Frc consts  --     21.5397                21.5396                 0.0822
 IR Inten    --      0.0000                 0.0000                 0.2553

                      4                      5                      6
                     PIU                    PIG                    PIG
 Frequencies --    107.7960               434.0898               434.0898
 Red. masses --     12.0000                12.0000                12.0000
 Frc consts  --      0.0822                 1.3323                 1.3323
 IR Inten    --      0.2553                 0.0000                 0.0000

                      7                      8                      9
                     PIU                    PIU                    SGG
 Frequencies --    459.1890               459.1890               679.1979
 Red. masses --     12.0000                12.0000                12.0000
 Frc consts  --      1.4908                 1.4908                 3.2616
 IR Inten    --      0.1751                 0.1751                 0.0000

                     10                     11                     12
                     SGU                    SGG                    SGG
 Frequencies --   1313.8577              1786.2967              2196.4737
 Red. masses --     12.0000                12.0000                12.0000
 Frc consts  --     12.2047                22.5600                34.1101
 IR Inten    --    573.1272                 0.0000                 0.0000

                     13
                     SGU
 Frequencies --   2250.5110
 Red. masses --     12.0000
 Frc consts  --     35.8091
 IR Inten    --   8691.4204

 - Thermochemistry -
 -------------------
 Temperature   298.150 Kelvin.  Pressure   1.00000 Atm.
 Atom     1 has atomic number  6 and mass  12.00000

 Molecular mass:    72.00000 amu.
 Principal axes and moments of inertia in atomic units:
                           1         2         3
     Eigenvalues --     0.000001223.897741223.89774
           X           -0.00000   1.00000  -0.00000
           Y            0.00000   0.00000   1.00000
           Z            1.00000   0.00000  -0.00000
 This molecule is a prolate symmetric top.
 Rotational symmetry number  2.
 Warning -- assumption of classical behavior for rotation
           may cause significant error
 Rotational temperature (Kelvin)      0.07077
 Rotational constant (GHZ):           1.474585
    2 imaginary frequencies ignored.
 Zero-point vibrational energy      61179.9 (Joules/Mol)
                                   14.62236 (Kcal/Mol)
 Warning -- explicit consideration of   6 degrees of freedom as
           vibrations may cause significant error
 Vibrational temperatures:    155.09   155.09   624.56   624.56   660.67
          (Kelvin)            660.67   977.21  1890.35  2570.08  3160.23
                             3237.98

 Zero-point correction=                           0.023302 (Hartree/Particle)
 Thermal correction to Energy=                    0.028304
 Thermal correction to Enthalpy=                  0.029248
 Thermal correction to Gibbs Free Energy=        -0.003486
 Sum of electronic and zero-point Energies=           -227.911240
 Sum of electronic and thermal Energies=              -227.906238
 Sum of electronic and thermal Enthalpies=            -227.905294
 Sum of electronic and thermal Free Energies=         -227.938028

                     E (Thermal)             CV                S
                      KCal/Mol        Cal/Mol-Kelvin    Cal/Mol-Kelvin
 Total                   17.761             15.375             68.895
 Electronic               0.000              0.000              2.755
 Translational            0.889              2.981             38.739
 Rotational               0.592              1.987             17.195
 Vibrational             16.280             10.407             10.206
 Vibration     1          0.606              1.943              3.308
 Vibration     2          0.606              1.943              3.308
 Vibration     3          0.795              1.396              0.845
 Vibration     4          0.795              1.396              0.845
 Vibration     5          0.817              1.341              0.768
 Vibration     6          0.817              1.341              0.768

 Optimization completed.
    -- Stationary point found.
 Normal termination of Gaussian 09 at Tue Nov  1 19:35:44 2016.
