 Gaussian 09, Revision E.01,
 Gaussian 09:  EM64L-G09RevE.01 30-Nov-2015

 -----------------------------------------
 #p b3lyp/6-311+G(3df) freq symmetry=Loose
 -----------------------------------------

 ---------
 b3lyp opt
 ---------
 Symbolic Z-matrix:
 Charge =  1 Multiplicity = 4

                         Standard orientation:
 ---------------------------------------------------------------------
 Center     Atomic      Atomic             Coordinates (Angstroms)
 Number     Number       Type             X           Y           Z
 ---------------------------------------------------------------------
      1          6           0        0.211377   -1.075932    0.000000
      2          6           0       -1.095419   -0.045534   -0.000000
      3          6           0       -0.211377    1.075932    0.000000
      4          6           0        1.095419    0.045534   -0.000000
      5          6           0        1.095419    1.389354   -0.000000
      6          6           0       -1.095419   -1.389354   -0.000000
 ---------------------------------------------------------------------

 SCF Done:  E(UB3LYP) =  -227.876241264     A.U. after   13 cycles

 The electronic state is 4-AU.
 Alpha  occ. eigenvalues --  -10.56865 -10.56859 -10.56826 -10.56816 -10.53137
 Alpha  occ. eigenvalues --  -10.53135  -1.28822  -1.17253  -0.99037  -0.96377
 Alpha  occ. eigenvalues --   -0.81639  -0.74950  -0.74830  -0.72378  -0.64152
 Alpha  occ. eigenvalues --   -0.61571  -0.54822  -0.54250  -0.49461
 Alpha virt. eigenvalues --   -0.33752  -0.32407  -0.29789  -0.29777  -0.17483
 Alpha virt. eigenvalues --   -0.15750  -0.12861  -0.11612  -0.10013  -0.09385
 Alpha virt. eigenvalues --   -0.08764  -0.07056  -0.06043  -0.05999  -0.05725

  Beta  occ. eigenvalues --  -10.55722 -10.55714 -10.55685 -10.55676 -10.52150
  Beta  occ. eigenvalues --  -10.52149  -1.27323  -1.16215  -0.94935  -0.94596
  Beta  occ. eigenvalues --   -0.78488  -0.73569  -0.70775  -0.67130  -0.59303
  Beta  occ. eigenvalues --   -0.57104
  Beta virt. eigenvalues --   -0.43555  -0.41231  -0.36644  -0.30168  -0.29883
  Beta virt. eigenvalues --   -0.23998  -0.23954  -0.15358  -0.13445  -0.11865
  Beta virt. eigenvalues --   -0.11383  -0.09212  -0.09154  -0.08235  -0.05576

 Mulliken charges and spin densities:
               1          2
     1  C    0.210622   0.533925
     2  C    0.211525   0.533424
     3  C    0.210622   0.533925
     4  C    0.211525   0.533424
     5  C    0.077853   0.432651
     6  C    0.077853   0.432651
 Sum of Mulliken charges =   1.00000   3.00000

 Dipole moment (field-independent basis, Debye):
    X=             -0.0000    Y=             -0.0000    Z=              0.0000  Tot=              0.0000
 Quadrupole moment (field-independent basis, Debye-Ang):
   XX=            -25.8003   YY=            -25.9131   ZZ=            -29.7221
   XY=             -0.2320   XZ=             -0.0000   YZ=              0.0000

  Exact polarizability:  63.310  17.506  71.713  -0.000  -0.000  29.155
 Approx polarizability: 154.342  24.832 166.266  -0.000  -0.000  44.629

 ******    1 imaginary frequencies (negative Signs) ******

                      1                      2                      3
                     AG                     AU                     BU
 Frequencies --   -451.6769               283.7125               341.3681
 Red. masses --     12.0000                12.0000                12.0000
 Frc consts  --      1.4424                 0.5691                 0.8239
 IR Inten    --      0.0000                 1.9709                 0.3978

                      4                      5                      6
                     BG                     BU                     AU
 Frequencies --    376.0887               409.8302               603.5338
 Red. masses --     12.0000                12.0000                12.0000
 Frc consts  --      1.0000                 1.1875                 2.5753
 IR Inten    --      0.0000                44.9052                 0.0000

                      7                      8                      9
                     AG                     AG                     AG
 Frequencies --    701.9557              1027.2489              1030.6159
 Red. masses --     12.0000                12.0000                12.0000
 Frc consts  --      3.4838                 7.4608                 7.5097
 IR Inten    --      0.0000                 0.0000                 0.0000

                     10                     11                     12
                     BU                     BU                     AG
 Frequencies --   1287.8713              1576.5950              1749.8205
 Red. masses --     12.0000                12.0000                12.0000
 Frc consts  --     11.7267                17.5740                21.6480
 IR Inten    --     18.3493                15.3796                 0.0000

 - Thermochemistry -
 -------------------
 Temperature   298.150 Kelvin.  Pressure   1.00000 Atm.
 Atom     1 has atomic number  6 and mass  12.00000

 Molecular mass:    72.00000 amu.
 Principal axes and moments of inertia in atomic units:
                           1         2         3
     Eigenvalues --   118.67801 355.66567 474.34368
           X            0.61910   0.78531   0.00000
           Y            0.78531  -0.61910   0.00000
           Z           -0.00000  -0.00000   1.00000
 This molecule is an asymmetric top.
 Rotational symmetry number  2.
 Rotational temperatures (Kelvin)      0.72982     0.24353     0.18260
 Rotational constants (GHZ):          15.20704     5.07426     3.80471
    1 imaginary frequencies ignored.
 Zero-point vibrational energy      56156.5 (Joules/Mol)
                                   13.42174 (Kcal/Mol)
 Warning -- explicit consideration of   5 degrees of freedom as
           vibrations may cause significant error
 Vibrational temperatures:    408.20   491.15   541.11   589.65   868.35
          (Kelvin)           1009.96  1477.98  1482.82  1852.96  2268.37
                             2517.60

 Zero-point correction=                           0.021389 (Hartree/Particle)
 Thermal correction to Energy=                    0.026019
 Thermal correction to Enthalpy=                  0.026964
 Thermal correction to Gibbs Free Energy=        -0.006428
 Sum of electronic and zero-point Energies=           -227.854852
 Sum of electronic and thermal Energies=              -227.850222
 Sum of electronic and thermal Enthalpies=            -227.849278
 Sum of electronic and thermal Free Energies=         -227.882669

                     E (Thermal)             CV                S
                      KCal/Mol        Cal/Mol-Kelvin    Cal/Mol-Kelvin
 Total                   16.327             15.013             70.278
 Electronic               0.000              0.000              2.755
 Translational            0.889              2.981             38.739
 Rotational               0.889              2.981             23.130
 Vibrational             14.550              9.051              5.654
 Vibration     1          0.682              1.704              1.511
 Vibration     2          0.721              1.593              1.206
 Vibration     3          0.747              1.521              1.055
 Vibration     4          0.774              1.449              0.927
 Vibration     5          0.962              1.024              0.444

 Optimization completed.
    -- Stationary point found.
 Normal termination of Gaussian 09 at Tue Nov  1 19:50:42 2016.
