 Gaussian 09, Revision E.01,
 Gaussian 09:  EM64L-G09RevE.01 30-Nov-2015

 -----------------------------------------
 #p b3lyp/6-311+G(3df) freq symmetry=Loose
 -----------------------------------------

 ---------
 b3lyp opt
 ---------
 Symbolic Z-matrix:
 Charge =  1 Multiplicity = 2

                         Standard orientation:
 ---------------------------------------------------------------------
 Center     Atomic      Atomic             Coordinates (Angstroms)
 Number     Number       Type             X           Y           Z
 ---------------------------------------------------------------------
      1          6           0        0.174689    0.000242   -0.867020
      2          6           0       -1.028474   -0.000031    0.528784
      3          6           0       -0.531642    1.162267   -0.267770
      4          6           0        0.399140   -0.000426    0.819644
      5          6           0        1.518252   -0.000080    0.054698
      6          6           0       -0.531964   -1.161973   -0.268336
 ---------------------------------------------------------------------

 SCF Done:  E(UB3LYP) =  -227.789390691     A.U. after   20 cycles

 The electronic state is 2-A.
 Alpha  occ. eigenvalues --  -10.59716 -10.58675 -10.58650 -10.58631 -10.57974
 Alpha  occ. eigenvalues --  -10.54925  -1.36978  -1.08107  -1.01431  -0.96207
 Alpha  occ. eigenvalues --   -0.77517  -0.73409  -0.70680  -0.69054  -0.64160
 Alpha  occ. eigenvalues --   -0.63528  -0.56762  -0.55257
 Alpha virt. eigenvalues --   -0.39975  -0.37359  -0.34483  -0.33051  -0.25221
 Alpha virt. eigenvalues --   -0.17887  -0.14977  -0.13533  -0.12449  -0.10817
 Alpha virt. eigenvalues --   -0.08245  -0.08239  -0.07671  -0.07358  -0.07099

  Beta  occ. eigenvalues --  -10.59602 -10.58549 -10.58019 -10.57764 -10.57763
  Beta  occ. eigenvalues --  -10.54939  -1.36338  -1.07850  -0.99746  -0.95839
  Beta  occ. eigenvalues --   -0.77076  -0.72437  -0.70111  -0.67564  -0.62534
  Beta  occ. eigenvalues --   -0.59232  -0.55041
  Beta virt. eigenvalues --   -0.44830  -0.39552  -0.36565  -0.33503  -0.32753
  Beta virt. eigenvalues --   -0.24860  -0.17271  -0.14702  -0.13404  -0.12081
  Beta virt. eigenvalues --   -0.10721  -0.08115  -0.07844  -0.07511  -0.07143

 Mulliken charges and spin densities:
               1          2
     1  C    0.610495  -0.019052
     2  C    0.479984   0.000523
     3  C   -0.142088   0.500684
     4  C    0.394668  -0.005828
     5  C   -0.200795   0.022944
     6  C   -0.142263   0.500728
 Sum of Mulliken charges =   1.00000   1.00000

 Dipole moment (field-independent basis, Debye):
    X=             -1.3118    Y=             -0.0000    Z=              0.1008  Tot=              1.3156
 Quadrupole moment (field-independent basis, Debye-Ang):
   XX=            -29.1293   YY=            -29.0357   ZZ=            -26.6430
   XY=             -0.0007   XZ=              0.8319   YZ=             -0.0016

  Exact polarizability:  58.006   0.003  66.867  -1.636   0.006  41.804
 Approx polarizability: 156.966   0.008 158.362 -15.522   0.008 106.343

 ******    1 imaginary frequencies (negative Signs) ******

                      1                      2                      3
                      A                      A                      A
 Frequencies --    -99.6712               334.9452               353.1024
 Red. masses --     12.0000                12.0000                12.0000
 Frc consts  --      0.0702                 0.7932                 0.8815
 IR Inten    --      1.5232                23.7082                12.3830

                      4                      5                      6
                      A                      A                      A
 Frequencies --    494.2910               645.0795               719.0551
 Red. masses --     12.0000                12.0000                12.0000
 Frc consts  --      1.7274                 2.9421                 3.6556
 IR Inten    --      0.9629                47.2172                 6.2429

                      7                      8                      9
                      A                      A                      A
 Frequencies --    719.2683               828.4945               920.4915
 Red. masses --     12.0000                12.0000                12.0000
 Frc consts  --      3.6577                 4.8530                 5.9906
 IR Inten    --     27.6836                 7.5376                69.0936

                     10                     11                     12
                      A                      A                      A
 Frequencies --    940.0647              1151.2137              1373.4749
 Red. masses --     12.0000                12.0000                12.0000
 Frc consts  --      6.2481                 9.3701                13.3375
 IR Inten    --     12.4102                 4.1083                24.2911

 - Thermochemistry -
 -------------------
 Temperature   298.150 Kelvin.  Pressure   1.00000 Atm.
 Atom     1 has atomic number  6 and mass  12.00000

 Molecular mass:    72.00000 amu.
 Principal axes and moments of inertia in atomic units:
                           1         2         3
     Eigenvalues --   195.01862 255.75201 292.22821
           X            1.00000  -0.00000   0.00000
           Y            0.00000   1.00000   0.00000
           Z           -0.00000  -0.00000   1.00000
 This molecule is an asymmetric top.
 Rotational symmetry number  1.
 Rotational temperatures (Kelvin)      0.44413     0.33866     0.29639
 Rotational constants (GHZ):           9.25420     7.05661     6.17579
    1 imaginary frequencies ignored.
 Zero-point vibrational energy      50718.6 (Joules/Mol)
                                   12.12203 (Kcal/Mol)
 Warning -- explicit consideration of   3 degrees of freedom as
           vibrations may cause significant error
 Vibrational temperatures:    481.91   508.03   711.17   928.12  1034.56
          (Kelvin)           1034.87  1192.02  1324.38  1352.54  1656.34
                             1976.12

 Zero-point correction=                           0.019318 (Hartree/Particle)
 Thermal correction to Energy=                    0.023657
 Thermal correction to Enthalpy=                  0.024602
 Thermal correction to Gibbs Free Energy=        -0.008097
 Sum of electronic and zero-point Energies=           -227.770073
 Sum of electronic and thermal Energies=              -227.765733
 Sum of electronic and thermal Enthalpies=            -227.764789
 Sum of electronic and thermal Free Energies=         -227.797488

                     E (Thermal)             CV                S
                      KCal/Mol        Cal/Mol-Kelvin    Cal/Mol-Kelvin
 Total                   14.845             14.803             68.820
 Electronic               0.000              0.000              1.377
 Translational            0.889              2.981             38.739
 Rotational               0.889              2.981             24.192
 Vibrational             13.068              8.841              4.511
 Vibration     1          0.716              1.606              1.236
 Vibration     2          0.729              1.569              1.152
 Vibration     3          0.850              1.263              0.673

 Optimization completed.
    -- Stationary point found.
 Normal termination of Gaussian 09 at Tue Nov  1 20:02:42 2016.
