 Gaussian 09, Revision E.01,
 Gaussian 09:  EM64L-G09RevE.01 30-Nov-2015

 -----------------------------------------
 #p b3lyp/6-311+G(3df) freq symmetry=Loose
 -----------------------------------------

 ---------
 b3lyp opt
 ---------
 Symbolic Z-matrix:
 Charge =  1 Multiplicity = 4

                         Standard orientation:
 ---------------------------------------------------------------------
 Center     Atomic      Atomic             Coordinates (Angstroms)
 Number     Number       Type             X           Y           Z
 ---------------------------------------------------------------------
      1          6           0        1.186285    0.000091    0.000204
      2          6           0       -1.186284    0.000132   -0.000194
      3          6           0       -0.000016   -0.768068    0.000261
      4          6           0        2.505699   -0.000122   -0.000360
      5          6           0        0.000015    0.768099    0.000261
      6          6           0       -2.505699   -0.000132   -0.000172
 ---------------------------------------------------------------------

 SCF Done:  E(UB3LYP) =  -227.780550168     A.U. after   27 cycles

 The electronic state is 4-A.
 Alpha  occ. eigenvalues --  -10.57463 -10.57438 -10.53986 -10.53985 -10.52353
 Alpha  occ. eigenvalues --  -10.52351  -1.29674  -1.08748  -1.02688  -0.90201
 Alpha  occ. eigenvalues --   -0.84706  -0.73205  -0.72723  -0.63008  -0.60894
 Alpha  occ. eigenvalues --   -0.59529  -0.59081  -0.50609  -0.50379
 Alpha virt. eigenvalues --   -0.41219  -0.36288  -0.28797  -0.26391  -0.14713
 Alpha virt. eigenvalues --   -0.14436  -0.11224  -0.10594  -0.09079  -0.08613
 Alpha virt. eigenvalues --   -0.08299  -0.06891  -0.06118  -0.05262  -0.04913

  Beta  occ. eigenvalues --  -10.56853 -10.56830 -10.52302 -10.52299 -10.51706
  Beta  occ. eigenvalues --  -10.51705  -1.29425  -1.06523  -0.98007  -0.87875
  Beta  occ. eigenvalues --   -0.82864  -0.71961  -0.71601  -0.57294  -0.55685
  Beta  occ. eigenvalues --   -0.50528
  Beta virt. eigenvalues --   -0.48709  -0.39733  -0.38872  -0.33747  -0.33071
  Beta virt. eigenvalues --   -0.23474  -0.23467  -0.14289  -0.12973  -0.10629
  Beta virt. eigenvalues --   -0.08957  -0.08161  -0.07834  -0.07708  -0.06342

 Mulliken charges and spin densities:
               1          2
     1  C   -0.007412  -0.054709
     2  C   -0.007412  -0.054708
     3  C    1.222904   0.345800
     4  C   -0.715864   1.208845
     5  C    1.223641   0.345926
     6  C   -0.715857   1.208847
 Sum of Mulliken charges =   1.00000   3.00000

 Dipole moment (field-independent basis, Debye):
    X=             -0.0000    Y=              0.0005    Z=              0.0002  Tot=              0.0006
 Quadrupole moment (field-independent basis, Debye-Ang):
   XX=            -18.7104   YY=            -29.1334   ZZ=            -30.2672
   XY=             -0.0002   XZ=              0.0079   YZ=              0.0000

  Exact polarizability: 147.095  -0.000  43.128  -0.003  -0.000  31.728
 Approx polarizability:3161.594   0.016  91.465  -0.199  -0.000  48.039

 ******    1 imaginary frequencies (negative Signs) ******

                      1                      2                      3
                      A                      A                      A
 Frequencies --   -303.9264               158.9905               245.6522
 Red. masses --     12.0000                12.0000                12.0000
 Frc consts  --      0.6531                 0.1787                 0.4267
 IR Inten    --      0.0000                 0.3612                 2.6981

                      4                      5                      6
                      A                      A                      A
 Frequencies --    393.5964               458.7772               613.6767
 Red. masses --     12.0000                12.0000                12.0000
 Frc consts  --      1.0953                 1.4881                 2.6626
 IR Inten    --      0.0000                 1.0165                 0.0000

                      7                      8                      9
                      A                      A                      A
 Frequencies --    647.4100               957.8153              1013.5547
 Red. masses --     12.0000                12.0000                12.0000
 Frc consts  --      2.9634                 6.4863                 7.2632
 IR Inten    --     47.8981                 0.0002                 0.0000

                     10                     11                     12
                      A                      A                      A
 Frequencies --   1139.8482              1511.9005              1701.2763
 Red. masses --     12.0000                12.0000                12.0000
 Frc consts  --      9.1860                16.1614                20.4636
 IR Inten    --      5.4162               549.0940                 0.0000

 - Thermochemistry -
 -------------------
 Temperature   298.150 Kelvin.  Pressure   1.00000 Atm.
 Atom     1 has atomic number  6 and mass  12.00000

 Molecular mass:    72.00000 amu.
 Principal axes and moments of inertia in atomic units:
                           1         2         3
     Eigenvalues --    50.56223 658.71546 709.27766
           X            1.00000  -0.00000   0.00000
           Y            0.00000   1.00000  -0.00000
           Z           -0.00000   0.00000   1.00000
 This molecule is an asymmetric top.
 Rotational symmetry number  1.
 Rotational temperatures (Kelvin)      1.71301     0.13149     0.12212
 Rotational constants (GHZ):          35.69347     2.73979     2.54448
    1 imaginary frequencies ignored.
 Zero-point vibrational energy      52889.9 (Joules/Mol)
                                   12.64099 (Kcal/Mol)
 Warning -- explicit consideration of   5 degrees of freedom as
           vibrations may cause significant error
 Vibrational temperatures:    228.75   353.44   566.30   660.08   882.94
          (Kelvin)            931.48  1378.08  1458.28  1639.99  2175.28
                             2447.75

 Zero-point correction=                           0.020145 (Hartree/Particle)
 Thermal correction to Energy=                    0.025064
 Thermal correction to Enthalpy=                  0.026009
 Thermal correction to Gibbs Free Energy=        -0.008826
 Sum of electronic and zero-point Energies=           -227.760405
 Sum of electronic and thermal Energies=              -227.755486
 Sum of electronic and thermal Enthalpies=            -227.754542
 Sum of electronic and thermal Free Energies=         -227.789376

                     E (Thermal)             CV                S
                      KCal/Mol        Cal/Mol-Kelvin    Cal/Mol-Kelvin
 Total                   15.728             15.530             73.315
 Electronic               0.000              0.000              2.755
 Translational            0.889              2.981             38.739
 Rotational               0.889              2.981             24.672
 Vibrational             13.951              9.568              7.150
 Vibration     1          0.621              1.893              2.562
 Vibration     2          0.660              1.770              1.762
 Vibration     3          0.761              1.484              0.986
 Vibration     4          0.817              1.341              0.770
 Vibration     5          0.973              1.003              0.427

 Optimization completed.
    -- Stationary point found.
 Normal termination of Gaussian 09 at Tue Nov  1 19:45:39 2016.
