 Gaussian 09, Revision E.01,
 Gaussian 09:  EM64L-G09RevE.01 30-Nov-2015

 -----------------------------------------
 #p b3lyp/6-311+G(3df) freq symmetry=Loose
 -----------------------------------------

 ---------
 b3lyp opt
 ---------
 Symbolic Z-matrix:
 Charge =  1 Multiplicity = 4

                         Standard orientation:
 ---------------------------------------------------------------------
 Center     Atomic      Atomic             Coordinates (Angstroms)
 Number     Number       Type             X           Y           Z
 ---------------------------------------------------------------------
      1          6           0        1.159362   -0.669387   -0.000000
      2          6           0       -0.000001   -1.339722   -0.000000
      3          6           0       -1.159363   -0.669435   -0.000000
      4          6           0        1.159363    0.669435    0.000000
      5          6           0        0.000001    1.339722    0.000000
      6          6           0       -1.159362    0.669387   -0.000000
 ---------------------------------------------------------------------

 SCF Done:  E(UB3LYP) =  -227.894142384     A.U. after   10 cycles

 The electronic state is 4-BU.
 Alpha  occ. eigenvalues --  -10.52575 -10.52554 -10.52545 -10.52470 -10.52462
 Alpha  occ. eigenvalues --  -10.52427  -1.20366  -1.05582  -1.05571  -0.87773
 Alpha  occ. eigenvalues --   -0.87751  -0.77720  -0.70857  -0.68749  -0.57175
 Alpha  occ. eigenvalues --   -0.57160  -0.55992  -0.55991  -0.49749
 Alpha virt. eigenvalues --   -0.40231  -0.40188  -0.28235  -0.28214  -0.14211
 Alpha virt. eigenvalues --   -0.10341  -0.10039  -0.10038  -0.10036  -0.08325
 Alpha virt. eigenvalues --   -0.07215  -0.07211  -0.05795  -0.05786  -0.02852

  Beta  occ. eigenvalues --  -10.51506 -10.51483 -10.51474 -10.51404 -10.51395
  Beta  occ. eigenvalues --  -10.51361  -1.17589  -1.02780  -1.02768  -0.85394
  Beta  occ. eigenvalues --   -0.85372  -0.76744  -0.67554  -0.61825  -0.54567
  Beta  occ. eigenvalues --   -0.54566
  Beta virt. eigenvalues --   -0.44197  -0.44182  -0.36197  -0.31013  -0.30974
  Beta virt. eigenvalues --   -0.26354  -0.26335  -0.13919  -0.10293  -0.09308
  Beta virt. eigenvalues --   -0.09307  -0.08018  -0.07400  -0.06458  -0.06454

 Mulliken charges and spin densities:
               1          2
     1  C    0.166409   0.500027
     2  C    0.167112   0.499954
     3  C    0.166479   0.500019
     4  C    0.166479   0.500019
     5  C    0.167112   0.499954
     6  C    0.166409   0.500027
 Sum of Mulliken charges =   1.00000   3.00000

 Dipole moment (field-independent basis, Debye):
    X=             -0.0000    Y=              0.0000    Z=             -0.0000  Tot=              0.0000
 Quadrupole moment (field-independent basis, Debye-Ang):
   XX=            -21.9801   YY=            -21.9629   ZZ=            -31.2976
   XY=              0.0003   XZ=             -0.0000   YZ=             -0.0000

  Exact polarizability:  81.767   0.001  81.961   0.000  -0.000  34.074
 Approx polarizability: 283.397   0.004 283.954   0.000   0.000  44.611

 ******    4 imaginary frequencies (negative Signs) ******

                      1                      2                      3
                     BU                     BU                     BU
 Frequencies --  -1340.0175             -1324.3336              -730.2559
 Red. masses --     12.0000                12.0000                12.0000
 Frc consts  --     12.6956                12.4001                 3.7703
 IR Inten    --   1753.9124              1714.8200                 0.0090

                      4                      5                      6
                     BG                     AU                     AU
 Frequencies --   -227.6265               433.8965               434.0696
 Red. masses --     12.0000                12.0000                12.0000
 Frc consts  --      0.3663                 1.3311                 1.3321
 IR Inten    --      0.0000                 0.0000                 0.0000

                      7                      8                      9
                     AG                     AG                     AG
 Frequencies --    615.0362               615.0864              1160.0207
 Red. masses --     12.0000                12.0000                12.0000
 Frc consts  --      2.6744                 2.6749                 9.5140
 IR Inten    --      0.0000                 0.0000                 0.0000

                     10                     11                     12
                     BU                     AG                     AG
 Frequencies --   1240.4544              1692.9562              1694.7789
 Red. masses --     12.0000                12.0000                12.0000
 Frc consts  --     10.8791                20.2639                20.3075
 IR Inten    --      0.0002                 0.0000                 0.0000

 - Thermochemistry -
 -------------------
 Temperature   298.150 Kelvin.  Pressure   1.00000 Atm.
 Atom     1 has atomic number  6 and mass  12.00000

 Molecular mass:    72.00000 amu.
 Principal axes and moments of inertia in atomic units:
                           1         2         3
     Eigenvalues --   230.39721 230.64044 461.03765
           X            0.02058   0.99979   0.00000
           Y            0.99979  -0.02058   0.00000
           Z           -0.00000  -0.00000   1.00000
 This molecule is an asymmetric top.
 Rotational symmetry number  2.
 Rotational temperatures (Kelvin)      0.37593     0.37554     0.18787
 Rotational constants (GHZ):           7.83317     7.82491     3.91452
    4 imaginary frequencies ignored.
 Zero-point vibrational energy      47170.5 (Joules/Mol)
                                   11.27403 (Kcal/Mol)
 Warning -- explicit consideration of   4 degrees of freedom as
           vibrations may cause significant error
 Vibrational temperatures:    624.28   624.53   884.90   884.97  1669.01
          (Kelvin)           1784.73  2435.78  2438.41

 Zero-point correction=                           0.017966 (Hartree/Particle)
 Thermal correction to Energy=                    0.021696
 Thermal correction to Enthalpy=                  0.022641
 Thermal correction to Gibbs Free Energy=        -0.009411
 Sum of electronic and zero-point Energies=           -227.876176
 Sum of electronic and thermal Energies=              -227.872446
 Sum of electronic and thermal Enthalpies=            -227.871502
 Sum of electronic and thermal Free Energies=         -227.903554

                     E (Thermal)             CV                S
                      KCal/Mol        Cal/Mol-Kelvin    Cal/Mol-Kelvin
 Total                   13.615             11.241             67.459
 Electronic               0.000              0.000              2.755
 Translational            0.889              2.981             38.739
 Rotational               0.889              2.981             23.331
 Vibrational             11.837              5.280              2.634
 Vibration     1          0.795              1.396              0.846
 Vibration     2          0.795              1.396              0.845
 Vibration     3          0.975              1.000              0.425
 Vibration     4          0.975              1.000              0.424

 Optimization completed.
    -- Stationary point found.
 Normal termination of Gaussian 09 at Tue Nov  1 20:01:26 2016.
