 Gaussian 09, Revision E.01,
 Gaussian 09:  EM64L-G09RevE.01 30-Nov-2015

 -----------------------------------------
 #p b3lyp/6-311+G(3df) freq symmetry=Loose
 -----------------------------------------

 ---------
 b3lyp opt
 ---------
 Symbolic Z-matrix:
 Charge =  1 Multiplicity = 2

                         Standard orientation:
 ---------------------------------------------------------------------
 Center     Atomic      Atomic             Coordinates (Angstroms)
 Number     Number       Type             X           Y           Z
 ---------------------------------------------------------------------
      1          6           0        0.000000    0.902367    0.000000
      2          6           0        0.000083   -0.447726   -0.000000
      3          6           0       -0.000132   -3.028292   -0.000000
      4          6           0       -0.665273    2.132418    0.000000
      5          6           0        0.665336    2.132596    0.000000
      6          6           0       -0.000014   -1.691364   -0.000000
 ---------------------------------------------------------------------

 SCF Done:  E(UB3LYP) =  -227.919496655     A.U. after   22 cycles

 The electronic state is 2-A'.
 Alpha  occ. eigenvalues --  -10.55902 -10.55374 -10.55076 -10.50068 -10.49977
 Alpha  occ. eigenvalues --  -10.48698  -1.21949  -1.10924  -1.02387  -0.93153
 Alpha  occ. eigenvalues --   -0.76421  -0.71132  -0.68762  -0.63501  -0.60962
 Alpha  occ. eigenvalues --   -0.57443  -0.54129  -0.51967
 Alpha virt. eigenvalues --   -0.43682  -0.39763  -0.29037  -0.24844  -0.19248
 Alpha virt. eigenvalues --   -0.16071  -0.12474  -0.10745  -0.10731  -0.10308
 Alpha virt. eigenvalues --   -0.10080  -0.06574  -0.06440  -0.06297  -0.04664

  Beta  occ. eigenvalues --  -10.55623 -10.55033 -10.54901 -10.49489 -10.49396
  Beta  occ. eigenvalues --  -10.48623  -1.21713  -1.10515  -1.01000  -0.92499
  Beta  occ. eigenvalues --   -0.74679  -0.69519  -0.68538  -0.61660  -0.60669
  Beta  occ. eigenvalues --   -0.56562  -0.51247
  Beta virt. eigenvalues --   -0.43718  -0.43100  -0.35682  -0.28491  -0.23577
  Beta virt. eigenvalues --   -0.17183  -0.15968  -0.12304  -0.10481  -0.10461
  Beta virt. eigenvalues --   -0.10232  -0.09670  -0.06437  -0.06389  -0.05958

 Mulliken charges and spin densities:
               1          2
     1  C    0.644195  -0.046736
     2  C   -0.526427   0.188559
     3  C   -0.238115   0.206282
     4  C   -0.123276   0.244663
     5  C   -0.124282   0.242617
     6  C    1.367904   0.164615
 Sum of Mulliken charges =   1.00000   1.00000

 Dipole moment (field-independent basis, Debye):
    X=             -0.0027    Y=             -0.6543    Z=              0.0000  Tot=              0.6543
 Quadrupole moment (field-independent basis, Debye-Ang):
   XX=            -31.5905   YY=            -15.1355   ZZ=            -28.8086
   XY=             -0.0072   XZ=             -0.0000   YZ=              0.0000

  Exact polarizability:  76.250  -0.087 154.466  -0.000  -0.000  33.670
 Approx polarizability:  99.652  -0.008 403.765   0.000   0.000  51.215

 ******    1 imaginary frequencies (negative Signs) ******

                      1                      2                      3
                     A'                     A"                     A'
 Frequencies --   -923.4136               109.0370               110.2848
 Red. masses --     12.0000                12.0000                12.0000
 Frc consts  --      6.0287                 0.0841                 0.0860
 IR Inten    --   2188.0180                 5.5116                 0.9533

                      4                      5                      6
                     A'                     A"                     A'
 Frequencies --    271.1357               277.9695               546.9414
 Red. masses --     12.0000                12.0000                12.0000
 Frc consts  --      0.5198                 0.5463                 2.1150
 IR Inten    --      7.9443                 0.2669                 0.1407

                      7                      8                      9
                     A"                     A'                     A'
 Frequencies --    619.1914               637.4230              1231.4884
 Red. masses --     12.0000                12.0000                12.0000
 Frc consts  --      2.7107                 2.8727                10.7224
 IR Inten    --      1.1918                 3.2289               183.0079

                     10                     11                     12
                     A'                     A'                     A'
 Frequencies --   1399.9106              1651.8493              2170.1873
 Red. masses --     12.0000                12.0000                12.0000
 Frc consts  --     13.8558                19.2918                33.2986
 IR Inten    --      6.3006                47.5986               683.5325

 - Thermochemistry -
 -------------------
 Temperature   298.150 Kelvin.  Pressure   1.00000 Atm.
 Atom     1 has atomic number  6 and mass  12.00000

 Molecular mass:    72.00000 amu.
 Principal axes and moments of inertia in atomic units:
                           1         2         3
     Eigenvalues --    37.93583 948.81007 986.74590
           X            0.00003   1.00000  -0.00000
           Y            1.00000  -0.00003  -0.00000
           Z            0.00000   0.00000   1.00000
 This molecule is an asymmetric top.
 Rotational symmetry number  1.
 Rotational temperatures (Kelvin)      2.28317     0.09129     0.08778
 Rotational constants (GHZ):          47.57353     1.90211     1.82898
    1 imaginary frequencies ignored.
 Zero-point vibrational energy      53984.0 (Joules/Mol)
                                   12.90248 (Kcal/Mol)
 Warning -- explicit consideration of   6 degrees of freedom as
           vibrations may cause significant error
 Vibrational temperatures:    156.88   158.68   390.10   399.94   786.93
          (Kelvin)            890.88   917.11  1771.83  2014.16  2376.64
                             3122.41

 Zero-point correction=                           0.020561 (Hartree/Particle)
 Thermal correction to Energy=                    0.026239
 Thermal correction to Enthalpy=                  0.027184
 Thermal correction to Gibbs Free Energy=        -0.009068
 Sum of electronic and zero-point Energies=           -227.898935
 Sum of electronic and thermal Energies=              -227.893257
 Sum of electronic and thermal Enthalpies=            -227.892313
 Sum of electronic and thermal Free Energies=         -227.928564

                     E (Thermal)             CV                S
                      KCal/Mol        Cal/Mol-Kelvin    Cal/Mol-Kelvin
 Total                   16.465             16.717             76.297
 Electronic               0.000              0.000              1.377
 Translational            0.889              2.981             38.739
 Rotational               0.889              2.981             25.077
 Vibrational             14.688             10.756             11.104
 Vibration     1          0.606              1.942              3.286
 Vibration     2          0.606              1.941              3.264
 Vibration     3          0.675              1.726              1.589
 Vibration     4          0.679              1.714              1.546
 Vibration     5          0.902              1.146              0.551
 Vibration     6          0.979              0.991              0.418

 Optimization completed.
    -- Stationary point found.
 Normal termination of Gaussian 09 at Tue Nov  1 19:40:17 2016.
