 Gaussian 09, Revision E.01,
 Gaussian 09:  EM64L-G09RevE.01 30-Nov-2015

 -----------------------------------------
 #p b3lyp/6-311+G(3df) freq symmetry=Loose
 -----------------------------------------

 ---------
 b3lyp opt
 ---------
 Symbolic Z-matrix:
 Charge =  2 Multiplicity = 3

                         Standard orientation:
 ---------------------------------------------------------------------
 Center     Atomic      Atomic             Coordinates (Angstroms)
 Number     Number       Type             X           Y           Z
 ---------------------------------------------------------------------
      1          6           0        1.405370    0.000007    0.000366
      2          6           0       -1.403443   -0.000012   -0.000367
      3          6           0        0.693284    1.091353   -0.000457
      4          6           0       -0.694253    1.093605    0.000458
      5          6           0        0.693281   -1.091360   -0.000284
      6          6           0       -0.694239   -1.093593    0.000285
 ---------------------------------------------------------------------

 SCF Done:  E(UB3LYP) =  -227.308332688     A.U. after   20 cycles

 The electronic state is 3-A.
 Alpha  occ. eigenvalues --  -10.82045 -10.82036 -10.81957 -10.81955 -10.76075
 Alpha  occ. eigenvalues --  -10.76066  -1.47251  -1.32616  -1.31477  -1.14088
 Alpha  occ. eigenvalues --   -1.13813  -1.04506  -0.96013  -0.94901  -0.83526
 Alpha  occ. eigenvalues --   -0.82228  -0.81365  -0.80691
 Alpha virt. eigenvalues --   -0.65054  -0.64833  -0.58087  -0.56986  -0.50691
 Alpha virt. eigenvalues --   -0.34554  -0.33241  -0.27147  -0.25944  -0.25400
 Alpha virt. eigenvalues --   -0.25099  -0.24695  -0.22429  -0.21566  -0.21171

  Beta  occ. eigenvalues --  -10.80561 -10.80557 -10.80469 -10.80468 -10.77261
  Beta  occ. eigenvalues --  -10.77253  -1.44877  -1.32592  -1.26536  -1.12760
  Beta  occ. eigenvalues --   -1.11810  -1.03740  -0.92229  -0.90879  -0.81984
  Beta  occ. eigenvalues --   -0.81943
  Beta virt. eigenvalues --   -0.71688  -0.67216  -0.62416  -0.60699  -0.55796
  Beta virt. eigenvalues --   -0.50447  -0.50421  -0.32971  -0.31695  -0.26850
  Beta virt. eigenvalues --   -0.25463  -0.24981  -0.24324  -0.23978  -0.22058

 Mulliken charges and spin densities:
               1          2
     1  C    0.470058  -0.797939
     2  C    0.444134  -0.804355
     3  C    0.267319   0.896164
     4  C    0.275498   0.905028
     5  C    0.267406   0.896192
     6  C    0.275584   0.904909
 Sum of Mulliken charges =   2.00000   2.00000

 Dipole moment (field-independent basis, Debye):
    X=              0.0057    Y=             -0.0000    Z=             -0.0000  Tot=              0.0057
 Quadrupole moment (field-independent basis, Debye-Ang):
   XX=            -13.5881   YY=            -13.3750   ZZ=            -27.0322
   XY=             -0.0002   XZ=             -0.0006   YZ=             -0.0000

  Exact polarizability:  54.606  -0.000  55.337   0.002   0.000  23.144
 Approx polarizability: 124.248  -0.002 178.782   0.009  -0.000  33.805

 ******    1 imaginary frequencies (negative Signs) ******

                      1                      2                      3
                      A                      A                      A
 Frequencies --   -531.3813               203.5617               432.5280
 Red. masses --     12.0000                12.0000                12.0000
 Frc consts  --      1.9964                 0.2930                 1.3227
 IR Inten    --     14.8838                 0.0003                 2.7047

                      4                      5                      6
                      A                      A                      A
 Frequencies --    505.5051               538.6659               541.9596
 Red. masses --     12.0000                12.0000                12.0000
 Frc consts  --      1.8067                 2.0515                 2.0767
 IR Inten    --      0.0000                 0.0000                 0.0002

                      7                      8                      9
                      A                      A                      A
 Frequencies --    846.3756              1087.2130              1137.9030
 Red. masses --     12.0000                12.0000                12.0000
 Frc consts  --      5.0647                 8.3572                 9.1547
 IR Inten    --      0.2759                 0.0033                 0.0024

                     10                     11                     12
                      A                      A                      A
 Frequencies --   1353.8501              1578.1941              1668.3881
 Red. masses --     12.0000                12.0000                12.0000
 Frc consts  --     12.9590                17.6097                19.6800
 IR Inten    --     18.6867                90.7519                 0.0410

 - Thermochemistry -
 -------------------
 Temperature   298.150 Kelvin.  Pressure   1.00000 Atm.
 Atom     1 has atomic number  6 and mass  12.00000

 Molecular mass:    72.00000 amu.
 Principal axes and moments of inertia in atomic units:
                           1         2         3
     Eigenvalues --   204.58069 251.54375 456.12436
           X            1.00000   0.00000   0.00000
           Y           -0.00000   1.00000   0.00000
           Z            0.00000  -0.00000   1.00000
 This molecule is an asymmetric top.
 Rotational symmetry number  1.
 Rotational temperatures (Kelvin)      0.42337     0.34433     0.18989
 Rotational constants (GHZ):           8.82166     7.17466     3.95669
    1 imaginary frequencies ignored.
 Zero-point vibrational energy      59180.1 (Joules/Mol)
                                   14.14439 (Kcal/Mol)
 Warning -- explicit consideration of   5 degrees of freedom as
           vibrations may cause significant error
 Vibrational temperatures:    292.88   622.31   727.31   775.02   779.76
          (Kelvin)           1217.74  1564.26  1637.19  1947.89  2270.67
                             2400.44

 Zero-point correction=                           0.022541 (Hartree/Particle)
 Thermal correction to Energy=                    0.026948
 Thermal correction to Enthalpy=                  0.027892
 Thermal correction to Gibbs Free Energy=        -0.005671
 Sum of electronic and zero-point Energies=           -227.285792
 Sum of electronic and thermal Energies=              -227.281385
 Sum of electronic and thermal Enthalpies=            -227.280441
 Sum of electronic and thermal Free Energies=         -227.314004

                     E (Thermal)             CV                S
                      KCal/Mol        Cal/Mol-Kelvin    Cal/Mol-Kelvin
 Total                   16.910             14.095             70.640
 Electronic               0.000              0.000              2.183
 Translational            0.889              2.981             38.739
 Rotational               0.889              2.981             24.666
 Vibrational             15.133              8.133              5.053
 Vibration     1          0.639              1.835              2.101
 Vibration     2          0.793              1.399              0.850
 Vibration     3          0.861              1.238              0.645
 Vibration     4          0.894              1.165              0.568
 Vibration     5          0.897              1.157              0.561

 Normal termination of Gaussian 09 at Sun Jun 19 13:56:06 2016.
