 Gaussian 09, Revision E.01,
 Gaussian 09:  EM64L-G09RevE.01 30-Nov-2015

 -----------------------------------------
 #p b3lyp/6-311+G(3df) freq symmetry=Loose
 -----------------------------------------

 ---------
 b3lyp opt
 ---------
 Symbolic Z-matrix:
 Charge =  2 Multiplicity = 1

                         Standard orientation:
 ---------------------------------------------------------------------
 Center     Atomic      Atomic             Coordinates (Angstroms)
 Number     Number       Type             X           Y           Z
 ---------------------------------------------------------------------
      1          6           0        1.101048    0.802115    0.000274
      2          6           0        2.122039   -0.054436    0.000185
      3          6           0       -2.601014   -0.049587    0.000597
      4          6           0       -0.272449   -0.993933    0.000160
      5          6           0       -1.194665    0.074482   -0.000909
      6          6           0       -0.198323    1.054534   -0.000111
      7          6           0        1.043364   -0.833175   -0.000197
 ---------------------------------------------------------------------

 SCF Done:  E(RB3LYP) =  -265.370310630     A.U. after   17 cycles

 The electronic state is 1-A.
 Alpha  occ. eigenvalues --  -10.83837 -10.77842 -10.77755 -10.77323 -10.77189
 Alpha  occ. eigenvalues --  -10.75031 -10.74907  -1.48120  -1.36222  -1.24310
 Alpha  occ. eigenvalues --   -1.23258  -1.10213  -1.04200  -0.97384  -0.93808
 Alpha  occ. eigenvalues --   -0.90572  -0.82229  -0.80811  -0.76193  -0.74798
 Alpha virt. eigenvalues --   -0.63896  -0.63492  -0.61959  -0.60491  -0.48021
 Alpha virt. eigenvalues --   -0.46576  -0.44082  -0.33491  -0.32858  -0.25975
 Alpha virt. eigenvalues --   -0.25867  -0.25239  -0.24710  -0.23912  -0.22524

 Mulliken charges:
               1
     1  C    0.260399
     2  C   -0.091275
     3  C   -0.147058
     4  C    0.269529
     5  C    0.702884
     6  C    0.667223
     7  C    0.338299
 Sum of Mulliken charges =   2.00000

 Dipole moment (field-independent basis, Debye):
    X=             -1.6696    Y=              0.2187    Z=             -0.0008  Tot=              1.6839
 Quadrupole moment (field-independent basis, Debye-Ang):
   XX=             -7.5977   YY=            -23.3243   ZZ=            -33.0151
   XY=             -0.4676   XZ=              0.0027   YZ=              0.0004

  Exact polarizability:  99.376   0.017  55.909   0.001  -0.001  32.718
 Approx polarizability: 275.385  -1.530 189.885   0.009  -0.011  49.731

 ******    1 imaginary frequencies (negative Signs) ******

                      1                      2                      3
                      A                      A                      A
 Frequencies --    -43.4284               140.1148               337.9891
 Red. masses --     12.0000                12.0000                12.0000
 Frc consts  --      0.0133                 0.1388                 0.8077
 IR Inten    --     12.8564                 0.1146                 0.1781

                      4                      5                      6
                      A                      A                      A
 Frequencies --    434.6123               460.8825               491.5861
 Red. masses --     12.0000                12.0000                12.0000
 Frc consts  --      1.3355                 1.5018                 1.7086
 IR Inten    --     78.7679                79.2507                 0.0445

                      7                      8                      9
                      A                      A                      A
 Frequencies --    498.3206               732.2084               862.4247
 Red. masses --     12.0000                12.0000                12.0000
 Frc consts  --      1.7557                 3.7905                 5.2586
 IR Inten    --      2.8397                 0.1048                16.2188

                     10                     11                     12
                      A                      A                      A
 Frequencies --    900.6400              1215.2788              1261.1958
 Red. masses --     12.0000                12.0000                12.0000
 Frc consts  --      5.7350                10.4420                11.2460
 IR Inten    --      7.6269                24.0409               149.8836

                     13                     14                     15
                      A                      A                      A
 Frequencies --   1498.5710              1582.4176              1716.2838
 Red. masses --     12.0000                12.0000                12.0000
 Frc consts  --     15.8776                17.7041                20.8262
 IR Inten    --     67.2609               440.0904                 4.1869

 - Thermochemistry -
 -------------------
 Temperature   298.150 Kelvin.  Pressure   1.00000 Atm.
 Atom     1 has atomic number  6 and mass  12.00000

 Molecular mass:    84.00000 amu.
 Principal axes and moments of inertia in atomic units:
                           1         2         3
     Eigenvalues --   147.77719 647.50668 795.28375
           X            1.00000  -0.00000   0.00000
           Y            0.00000   1.00000   0.00000
           Z           -0.00000  -0.00000   1.00000
 This molecule is an asymmetric top.
 Rotational symmetry number  1.
 Rotational temperatures (Kelvin)      0.58611     0.13377     0.10891
 Rotational constants (GHZ):          12.21258     2.78722     2.26930
    1 imaginary frequencies ignored.
 Zero-point vibrational energy      72568.6 (Joules/Mol)
                                   17.34432 (Kcal/Mol)
 Warning -- explicit consideration of   6 degrees of freedom as
           vibrations may cause significant error
 Vibrational temperatures:    201.59   486.29   625.31   663.11   707.28
          (Kelvin)            716.97  1053.48  1240.84  1295.82  1748.51
                             1814.58  2156.11  2276.74  2469.35

 Zero-point correction=                           0.027640 (Hartree/Particle)
 Thermal correction to Energy=                    0.032751
 Thermal correction to Enthalpy=                  0.033695
 Thermal correction to Gibbs Free Energy=        -0.000834
 Sum of electronic and zero-point Energies=           -265.342671
 Sum of electronic and thermal Energies=              -265.337559
 Sum of electronic and thermal Enthalpies=            -265.336615
 Sum of electronic and thermal Free Energies=         -265.371144

                     E (Thermal)             CV                S
                      KCal/Mol        Cal/Mol-Kelvin    Cal/Mol-Kelvin
 Total                   20.552             17.079             72.673
 Electronic               0.000              0.000              0.000
 Translational            0.889              2.981             39.198
 Rotational               0.889              2.981             25.834
 Vibrational             18.774             11.117              7.640
 Vibration     1          0.615              1.913              2.802
 Vibration     2          0.718              1.600              1.222
 Vibration     3          0.795              1.395              0.844
 Vibration     4          0.819              1.337              0.764
 Vibration     5          0.847              1.269              0.679
 Vibration     6          0.854              1.254              0.662

 1\1\GINC-BELVIS12\Freq\RB3LYP\6-311+G(3df)\C7(2+)\ROOT\19-Jun-2016\0\\
 #p b3lyp/6-311+G(3df) freq symmetry=Loose\\b3lyp opt\\2,1\C,1.297939,0
 .403052,0.092733\C,1.976957,-0.733752,0.243439\C,-2.461388,0.789651,-0
 .29284\C,-0.581933,-0.850525,0.009616\C,-1.098542,0.454403,-0.139632\C
 ,0.159245,1.059115,-0.065506\C,0.707722,-1.121943,0.15219\\Version=EM6
 4L-G09RevE.01\State=1-A\HF=-265.3703106\RMSD=2.090e-09\RMSF=1.103e-04\
 ZeroPoint=0.0276399\Thermal=0.0327513\Dipole=-0.5892657,0.2924082,-0.0
 784092\DipoleDeriv=0.8112975,0.5838546,0.0042506,0.024454,0.2719453,0.

 Normal termination of Gaussian 09 at Sun Jun 19 14:41:10 2016.
