 Gaussian 09, Revision E.01,
 Gaussian 09:  EM64L-G09RevE.01 30-Nov-2015

 -----------------------------------------
 #p b3lyp/6-311+G(3df) freq symmetry=Loose
 -----------------------------------------

 ---------
 b3lyp opt
 ---------
 Symbolic Z-matrix:
 Charge =  1 Multiplicity = 4

                         Standard orientation:
 ---------------------------------------------------------------------
 Center     Atomic      Atomic             Coordinates (Angstroms)
 Number     Number       Type             X           Y           Z
 ---------------------------------------------------------------------
      1          6           0        0.001579   -0.001339    1.129599
      2          6           0        0.675227    1.225411   -0.196133
      3          6           0        0.799008   -1.150793   -0.198463
      4          6           0        1.341598    0.069070   -0.171625
      5          6           0       -1.341772   -0.068575   -0.171793
      6          6           0       -0.675946   -1.225137   -0.195412
      7          6           0       -0.799694    1.151363   -0.196174
 ---------------------------------------------------------------------

 SCF Done:  E(UB3LYP) =  -265.855510948     A.U. after   21 cycles

 The electronic state is 4-A.
 Alpha  occ. eigenvalues --  -10.58947 -10.54745 -10.54737 -10.54712 -10.54710
 Alpha  occ. eigenvalues --  -10.50275 -10.50263  -1.25748  -1.08554  -1.07129
 Alpha  occ. eigenvalues --   -0.90662  -0.86038  -0.85667  -0.77304  -0.71088
 Alpha  occ. eigenvalues --   -0.65318  -0.63593  -0.58896  -0.58043  -0.57213
 Alpha  occ. eigenvalues --   -0.50175  -0.49833
 Alpha virt. eigenvalues --   -0.36309  -0.34064  -0.29310  -0.28003  -0.27904
 Alpha virt. eigenvalues --   -0.27496  -0.13203  -0.12734  -0.09937  -0.09641
 Alpha virt. eigenvalues --   -0.09591  -0.08252  -0.07215  -0.06970  -0.06813

  Beta  occ. eigenvalues --  -10.59143 -10.53149 -10.53143 -10.53119 -10.53118
  Beta  occ. eigenvalues --  -10.49898 -10.49885  -1.24380  -1.07186  -1.03975
  Beta  occ. eigenvalues --   -0.87724  -0.85607  -0.82982  -0.75551  -0.64493
  Beta  occ. eigenvalues --   -0.64433  -0.61616  -0.56725  -0.52858
  Beta virt. eigenvalues --   -0.42935  -0.37342  -0.33099  -0.30790  -0.30656
  Beta virt. eigenvalues --   -0.28046  -0.27521  -0.27469  -0.26813  -0.12322
  Beta virt. eigenvalues --   -0.10194  -0.09782  -0.09240  -0.08713  -0.07035

 Mulliken charges and spin densities:
               1          2
     1  C    0.018098  -0.091629
     2  C    0.141923   0.862909
     3  C    0.141518   0.864914
     4  C    0.200875  -0.179632
     5  C    0.187116  -0.177640
     6  C    0.155626   0.859191
     7  C    0.154843   0.861888
 Sum of Mulliken charges =   1.00000   3.00000

 Dipole moment (field-independent basis, Debye):
    X=             -0.0036    Y=              0.0007    Z=             -0.9233  Tot=              0.9233
 Quadrupole moment (field-independent basis, Debye-Ang):
   XX=            -31.9339   YY=            -30.3139   ZZ=            -34.8919
   XY=             -0.0880   XZ=              0.0020   YZ=             -0.0021

  Exact polarizability:  80.231   0.656  67.475  -0.002  -0.000  45.604
 Approx polarizability: 211.548   2.576 164.552   0.046  -0.024  96.324

 ******    1 imaginary frequencies (negative Signs) ******

                      1                      2                      3
                      A                      A                      A
 Frequencies --   -128.4582               164.8372               216.3696
 Red. masses --     12.0000                12.0000                12.0000
 Frc consts  --      0.1167                 0.1921                 0.3310
 IR Inten    --      0.0000                 0.8890                 6.1655

                      4                      5                      6
                      A                      A                      A
 Frequencies --    337.9019               374.9440               405.5891
 Red. masses --     12.0000                12.0000                12.0000
 Frc consts  --      0.8073                 0.9939                 1.1631
 IR Inten    --      0.9655                 0.0001                 0.6700

                      7                      8                      9
                      A                      A                      A
 Frequencies --    607.9555               650.3127               652.5787
 Red. masses --     12.0000                12.0000                12.0000
 Frc consts  --      2.6132                 2.9900                 3.0109
 IR Inten    --      4.2417                93.2875                38.9489

                     10                     11                     12
                      A                      A                      A
 Frequencies --    984.9854              1013.8915              1115.2851
 Red. masses --     12.0000                12.0000                12.0000
 Frc consts  --      6.8595                 7.2680                 8.7943
 IR Inten    --     11.6364                 0.8539                 0.0047

                     13                     14                     15
                      A                      A                      A
 Frequencies --   1130.7671              1349.8449              1510.3351
 Red. masses --     12.0000                12.0000                12.0000
 Frc consts  --      9.0402                12.8825                16.1279
 IR Inten    --    291.9864                 0.0983                90.4424

 - Thermochemistry -
 -------------------
 Temperature   298.150 Kelvin.  Pressure   1.00000 Atm.
 Atom     1 has atomic number  6 and mass  12.00000

 Molecular mass:    84.00000 amu.
 Principal axes and moments of inertia in atomic units:
                           1         2         3
     Eigenvalues --   306.46242 311.98911 490.79416
           X            1.00000  -0.00000  -0.00000
           Y            0.00000   1.00000  -0.00000
           Z            0.00000   0.00000   1.00000
 This molecule is an asymmetric top.
 Rotational symmetry number  1.
 Rotational temperatures (Kelvin)      0.28262     0.27762     0.17648
 Rotational constants (GHZ):           5.88895     5.78463     3.67719
    1 imaginary frequencies ignored.
 Zero-point vibrational energy      62897.2 (Joules/Mol)
                                   15.03280 (Kcal/Mol)
 Warning -- explicit consideration of   6 degrees of freedom as
           vibrations may cause significant error
 Vibrational temperatures:    237.16   311.31   486.16   539.46   583.55
          (Kelvin)            874.71   935.65   938.91  1417.17  1458.76
                             1604.64  1626.92  1942.12  2173.03

 Zero-point correction=                           0.023956 (Hartree/Particle)
 Thermal correction to Energy=                    0.029512
 Thermal correction to Enthalpy=                  0.030456
 Thermal correction to Gibbs Free Energy=        -0.005902
 Sum of electronic and zero-point Energies=           -265.831555
 Sum of electronic and thermal Energies=              -265.825999
 Sum of electronic and thermal Enthalpies=            -265.825055
 Sum of electronic and thermal Free Energies=         -265.861413

                     E (Thermal)             CV                S
                      KCal/Mol        Cal/Mol-Kelvin    Cal/Mol-Kelvin
 Total                   18.519             18.585             76.523
 Electronic               0.000              0.000              2.755
 Translational            0.889              2.981             39.198
 Rotational               0.889              2.981             25.354
 Vibrational             16.742             12.624              9.216
 Vibration     1          0.623              1.886              2.494
 Vibration     2          0.645              1.816              1.989
 Vibration     3          0.718              1.600              1.222
 Vibration     4          0.746              1.523              1.060
 Vibration     5          0.771              1.458              0.942
 Vibration     6          0.967              1.015              0.436

 Normal termination of Gaussian 09 at Tue Nov  1 20:49:48 2016.
