 Gaussian 09, Revision E.01,
 Gaussian 09:  EM64L-G09RevE.01 30-Nov-2015

 -----------------------------------------
 #p b3lyp/6-311+G(3df) freq symmetry=Loose
 -----------------------------------------

 ---------
 b3lyp opt
 ---------
 Symbolic Z-matrix:
 Charge =  1 Multiplicity = 2

                         Standard orientation:
 ---------------------------------------------------------------------
 Center     Atomic      Atomic             Coordinates (Angstroms)
 Number     Number       Type             X           Y           Z
 ---------------------------------------------------------------------
      1          6           0        0.647034    1.158256    0.201365
      2          6           0        0.877928    0.236805   -0.799969
      3          6           0       -1.553438   -0.003556    0.000152
      4          6           0       -0.753806    1.079817   -0.041710
      5          6           0        0.878660   -0.233488    0.800282
      6          6           0        0.652217   -1.155726   -0.201470
      7          6           0       -0.748594   -1.082108    0.041350
 ---------------------------------------------------------------------

 SCF Done:  E(UB3LYP) =  -265.887746170     A.U. after   25 cycles

 The electronic state is 2-A.
 Alpha  occ. eigenvalues --  -10.57258 -10.57245 -10.55558 -10.55547 -10.53604
 Alpha  occ. eigenvalues --  -10.53595 -10.50524  -1.31709  -1.10828  -1.09486
 Alpha  occ. eigenvalues --   -0.88429  -0.87827  -0.86170  -0.73889  -0.72727
 Alpha  occ. eigenvalues --   -0.70313  -0.62360  -0.59775  -0.55763  -0.55276
 Alpha  occ. eigenvalues --   -0.50262
 Alpha virt. eigenvalues --   -0.39535  -0.38980  -0.36990  -0.32134  -0.29835
 Alpha virt. eigenvalues --   -0.20661  -0.13169  -0.13018  -0.10681  -0.10678
 Alpha virt. eigenvalues --   -0.08469  -0.07903  -0.07695  -0.07611  -0.06812

  Beta  occ. eigenvalues --  -10.57178 -10.57166 -10.54881 -10.54879 -10.53568
  Beta  occ. eigenvalues --  -10.53551 -10.49473  -1.31435  -1.10031  -1.08994
  Beta  occ. eigenvalues --   -0.87390  -0.86977  -0.85612  -0.73574  -0.71835
  Beta  occ. eigenvalues --   -0.69725  -0.60889  -0.58897  -0.54734  -0.52714
  Beta virt. eigenvalues --   -0.40540  -0.37911  -0.37876  -0.35110  -0.30014
  Beta virt. eigenvalues --   -0.29433  -0.19144  -0.13060  -0.12236  -0.10494
  Beta virt. eigenvalues --   -0.10427  -0.08259  -0.07616  -0.07546  -0.07356

 Mulliken charges and spin densities:
               1          2
     1  C    0.266900  -0.044065
     2  C    0.156182   0.063256
     3  C   -0.048973   0.509806
     4  C    0.098632   0.229993
     5  C    0.156383   0.064313
     6  C    0.268862  -0.046947
     7  C    0.102014   0.223643
 Sum of Mulliken charges =   1.00000   1.00000

 Dipole moment (field-independent basis, Debye):
    X=              0.3511    Y=             -0.0038    Z=             -0.0000  Tot=              0.3511
 Quadrupole moment (field-independent basis, Debye-Ang):
   XX=            -30.9569   YY=            -32.3072   ZZ=            -34.7522
   XY=              0.0008   XZ=             -0.0037   YZ=              0.2523

  Exact polarizability:  70.461   0.002  71.855   0.002  -1.517  45.050
 Approx polarizability: 179.453  -0.242 228.602  -0.002  -1.504 107.746

 ******    1 imaginary frequencies (negative Signs) ******

                      1                      2                      3
                      A                      A                      A
 Frequencies --   -239.3968               216.8090               267.2710
 Red. masses --     12.0000                12.0000                12.0000
 Frc consts  --      0.4052                 0.3323                 0.5051
 IR Inten    --    131.4986                73.7860                 5.0958

                      4                      5                      6
                      A                      A                      A
 Frequencies --    446.6940               456.2639               481.5526
 Red. masses --     12.0000                12.0000                12.0000
 Frc consts  --      1.4108                 1.4719                 1.6395
 IR Inten    --     32.7101                 1.0241                 2.3341

                      7                      8                      9
                      A                      A                      A
 Frequencies --    563.3899               585.0192               717.5146
 Red. masses --     12.0000                12.0000                12.0000
 Frc consts  --      2.2441                 2.4198                 3.6399
 IR Inten    --      0.7812                 1.0874                56.1501

                     10                     11                     12
                      A                      A                      A
 Frequencies --    798.2725              1044.6659              1202.4460
 Red. masses --     12.0000                12.0000                12.0000
 Frc consts  --      4.5054                 7.7159                10.2226
 IR Inten    --     15.4661                17.8119                16.0104

                     13                     14                     15
                      A                      A                      A
 Frequencies --   1251.1871              1304.6534              1409.5268
 Red. masses --     12.0000                12.0000                12.0000
 Frc consts  --     11.0682                12.0343                14.0468
 IR Inten    --      1.6946                56.9133                40.3293

 - Thermochemistry -
 -------------------
 Temperature   298.150 Kelvin.  Pressure   1.00000 Atm.
 Atom     1 has atomic number  6 and mass  12.00000

 Molecular mass:    84.00000 amu.
 Principal axes and moments of inertia in atomic units:
                           1         2         3
     Eigenvalues --   278.10670 312.55180 473.67129
           X            1.00000  -0.00000   0.00000
           Y            0.00000   1.00000   0.00000
           Z            0.00000  -0.00000   1.00000
 This molecule is an asymmetric top.
 Rotational symmetry number  1.
 Rotational temperatures (Kelvin)      0.31144     0.27712     0.18286
 Rotational constants (GHZ):           6.48938     5.77421     3.81011
    1 imaginary frequencies ignored.
 Zero-point vibrational energy      64271.0 (Joules/Mol)
                                   15.36113 (Kcal/Mol)
 Warning -- explicit consideration of   7 degrees of freedom as
           vibrations may cause significant error
 Vibrational temperatures:    311.94   384.54   642.69   656.46   692.85
          (Kelvin)            810.59   841.71  1032.34  1148.53  1503.04
                             1730.05  1800.18  1877.10  2027.99

 Zero-point correction=                           0.024480 (Hartree/Particle)
 Thermal correction to Energy=                    0.029687
 Thermal correction to Enthalpy=                  0.030631
 Thermal correction to Gibbs Free Energy=        -0.004231
 Sum of electronic and zero-point Energies=           -265.863267
 Sum of electronic and thermal Energies=              -265.858060
 Sum of electronic and thermal Enthalpies=            -265.857115
 Sum of electronic and thermal Free Energies=         -265.891977

                     E (Thermal)             CV                S
                      KCal/Mol        Cal/Mol-Kelvin    Cal/Mol-Kelvin
 Total                   18.629             18.096             73.372
 Electronic               0.000              0.000              1.377
 Translational            0.889              2.981             39.198
 Rotational               0.889              2.981             25.224
 Vibrational             16.851             12.135              7.573
 Vibration     1          0.646              1.815              1.986
 Vibration     2          0.672              1.733              1.614
 Vibration     3          0.806              1.368              0.806
 Vibration     4          0.814              1.347              0.777
 Vibration     5          0.838              1.291              0.706
 Vibration     6          0.919              1.110              0.517
 Vibration     7          0.942              1.064              0.476

 Optimization completed.
    -- Stationary point found.
 Normal termination of Gaussian 09 at Tue Nov  1 20:20:40 2016.
