 Gaussian 09, Revision E.01,
 Gaussian 09:  EM64L-G09RevE.01 30-Nov-2015

 -----------------------------------------
 #p b3lyp/6-311+G(3df) freq symmetry=Loose
 -----------------------------------------

 ---------
 b3lyp opt
 ---------
 Symbolic Z-matrix:
 Charge =  1 Multiplicity = 2

                         Standard orientation:
 ---------------------------------------------------------------------
 Center     Atomic      Atomic             Coordinates (Angstroms)
 Number     Number       Type             X           Y           Z
 ---------------------------------------------------------------------
      1          6           0        2.357807   -0.000114    0.000211
      2          6           0       -1.459495    0.000328    0.000135
      3          6           0        1.006660   -0.000341   -0.000196
      4          6           0        0.169820   -1.168519   -0.000143
      5          6           0       -1.122233    1.277263   -0.000004
      6          6           0        0.170439    1.168159   -0.000068
      7          6           0       -1.122998   -1.276776    0.000065
 ---------------------------------------------------------------------

 SCF Done:  E(UB3LYP) =  -265.990058450     A.U. after   28 cycles

 The electronic state is 2-A.
 Alpha  occ. eigenvalues --  -10.56809 -10.55049 -10.52693 -10.52692 -10.49961
 Alpha  occ. eigenvalues --  -10.47399 -10.47393  -1.20552  -1.08687  -1.07301
 Alpha  occ. eigenvalues --   -0.92829  -0.86408  -0.82971  -0.75753  -0.69297
 Alpha  occ. eigenvalues --   -0.65755  -0.58408  -0.57491  -0.55903  -0.55705
 Alpha  occ. eigenvalues --   -0.48785
 Alpha virt. eigenvalues --   -0.39409  -0.39057  -0.36355  -0.31066  -0.25819
 Alpha virt. eigenvalues --   -0.23914  -0.14729  -0.10688  -0.10197  -0.10086
 Alpha virt. eigenvalues --   -0.09961  -0.08592  -0.07015  -0.06057  -0.05778

  Beta  occ. eigenvalues --  -10.56866 -10.54906 -10.52032 -10.52029 -10.49811
  Beta  occ. eigenvalues --  -10.46926 -10.46920  -1.20050  -1.08482  -1.06723
  Beta  occ. eigenvalues --   -0.92302  -0.84951  -0.82221  -0.75454  -0.68832
  Beta  occ. eigenvalues --   -0.63429  -0.58275  -0.57341  -0.55085  -0.52332
  Beta virt. eigenvalues --   -0.39165  -0.39082  -0.38732  -0.31370  -0.30231
  Beta virt. eigenvalues --   -0.24564  -0.23540  -0.14559  -0.10574  -0.10033
  Beta virt. eigenvalues --   -0.09675  -0.09386  -0.08472  -0.06883  -0.06014

 Mulliken charges and spin densities:
               1          2
     1  C   -0.262988   0.023903
     2  C    0.696903  -0.067464
     3  C    0.824637  -0.033208
     4  C    0.014005   0.348199
     5  C   -0.143000   0.190435
     6  C    0.013477   0.347861
     7  C   -0.143035   0.190275
 Sum of Mulliken charges =   1.00000   1.00000

 Dipole moment (field-independent basis, Debye):
    X=              0.5003    Y=              0.0002    Z=             -0.0002  Tot=              0.5003
 Quadrupole moment (field-independent basis, Debye-Ang):
   XX=            -27.1298   YY=            -31.9490   ZZ=            -35.7657
   XY=             -0.0039   XZ=             -0.0012   YZ=              0.0001

  Exact polarizability:  90.668   0.003  88.172  -0.001   0.000  35.533
 Approx polarizability: 230.144  -0.009 252.956  -0.006   0.001  54.951

 ******    1 imaginary frequencies (negative Signs) ******

                      1                      2                      3
                      A                      A                      A
 Frequencies --   -186.2020               157.1767               271.7268
 Red. masses --     12.0000                12.0000                12.0000
 Frc consts  --      0.2451                 0.1747                 0.5220
 IR Inten    --      9.4318                 1.2935               126.5355

                      4                      5                      6
                      A                      A                      A
 Frequencies --    338.5655               443.4647               448.9721
 Red. masses --     12.0000                12.0000                12.0000
 Frc consts  --      0.8104                 1.3904                 1.4252
 IR Inten    --     85.2688                 1.1750                 0.0000

                      7                      8                      9
                      A                      A                      A
 Frequencies --    563.2989               586.8912               696.1279
 Red. masses --     12.0000                12.0000                12.0000
 Frc consts  --      2.2434                 2.4353                 3.4262
 IR Inten    --      1.2203                21.7388               276.1323

                     10                     11                     12
                      A                      A                      A
 Frequencies --    876.1565              1145.9311              1275.5613
 Red. masses --     12.0000                12.0000                12.0000
 Frc consts  --      5.4274                 9.2843                11.5036
 IR Inten    --      1.8585                 6.1908               169.5878

                     13                     14                     15
                      A                      A                      A
 Frequencies --   1587.5610              1734.5210              1748.8704
 Red. masses --     12.0000                12.0000                12.0000
 Frc consts  --     17.8194                21.2711                21.6245
 IR Inten    --    176.3376               206.4682               246.4028

 - Thermochemistry -
 -------------------
 Temperature   298.150 Kelvin.  Pressure   1.00000 Atm.
 Atom     1 has atomic number  6 and mass  12.00000

 Molecular mass:    84.00000 amu.
 Principal axes and moments of inertia in atomic units:
                           1         2         3
     Eigenvalues --   256.75628 483.42920 740.18547
           X            1.00000  -0.00000  -0.00000
           Y           -0.00000   1.00000   0.00000
           Z            0.00000  -0.00000   1.00000
 This molecule is an asymmetric top.
 Rotational symmetry number  1.
 Rotational temperatures (Kelvin)      0.33734     0.17917     0.11702
 Rotational constants (GHZ):           7.02901     3.73321     2.43823
    1 imaginary frequencies ignored.
 Zero-point vibrational energy      71027.2 (Joules/Mol)
                                   16.97591 (Kcal/Mol)
 Warning -- explicit consideration of   7 degrees of freedom as
           vibrations may cause significant error
 Vibrational temperatures:    226.14   390.95   487.12   638.05   645.97
          (Kelvin)            810.46   844.40  1001.57  1260.59  1648.74
                             1835.25  2284.14  2495.59  2516.23

 Zero-point correction=                           0.027053 (Hartree/Particle)
 Thermal correction to Energy=                    0.032443
 Thermal correction to Enthalpy=                  0.033388
 Thermal correction to Gibbs Free Energy=        -0.002320
 Sum of electronic and zero-point Energies=           -265.963006
 Sum of electronic and thermal Energies=              -265.957615
 Sum of electronic and thermal Enthalpies=            -265.956671
 Sum of electronic and thermal Free Energies=         -265.992378

                     E (Thermal)             CV                S
                      KCal/Mol        Cal/Mol-Kelvin    Cal/Mol-Kelvin
 Total                   20.359             17.980             75.152
 Electronic               0.000              0.000              1.377
 Translational            0.889              2.981             39.198
 Rotational               0.889              2.981             26.022
 Vibrational             18.581             12.019              8.555
 Vibration     1          0.621              1.895              2.583
 Vibration     2          0.675              1.725              1.585
 Vibration     3          0.719              1.598              1.219
 Vibration     4          0.803              1.375              0.816
 Vibration     5          0.808              1.363              0.799
 Vibration     6          0.919              1.111              0.517
 Vibration     7          0.944              1.060              0.473

 Optimization completed.
    -- Stationary point found.
 Normal termination of Gaussian 09 at Tue Nov  1 20:28:41 2016.
