 Gaussian 09, Revision E.01,
 Gaussian 09:  EM64L-G09RevE.01 30-Nov-2015

 -----------------------------------------
 #p b3lyp/6-311+G(3df) freq symmetry=Loose
 -----------------------------------------

 ---------
 b3lyp opt
 ---------
 Symbolic Z-matrix:
 Charge =  1 Multiplicity = 4

                         Standard orientation:
 ---------------------------------------------------------------------
 Center     Atomic      Atomic             Coordinates (Angstroms)
 Number     Number       Type             X           Y           Z
 ---------------------------------------------------------------------
      1          6           0       -1.385990    1.223117   -0.000000
      2          6           0        0.618203   -1.214077    0.000000
      3          6           0       -1.354820   -0.066830   -0.000000
      4          6           0        1.100479    0.636913    0.000000
      5          6           0        1.747457   -0.591486    0.000000
      6          6           0       -0.725330   -1.254975   -0.000000
      7          6           0       -0.000000    1.267338   -0.000000
 ---------------------------------------------------------------------

 SCF Done:  E(UB3LYP) =  -265.995767637     A.U. after   20 cycles

 The electronic state is 4-A".
 Alpha  occ. eigenvalues --  -10.52910 -10.52789 -10.51687 -10.51540 -10.51378
 Alpha  occ. eigenvalues --  -10.49150 -10.49121  -1.20384  -1.11836  -1.06628
 Alpha  occ. eigenvalues --   -0.97749  -0.88026  -0.77776  -0.76918  -0.71120
 Alpha  occ. eigenvalues --   -0.69881  -0.61514  -0.60403  -0.58426  -0.57823
 Alpha  occ. eigenvalues --   -0.50368  -0.42891
 Alpha virt. eigenvalues --   -0.36264  -0.32260  -0.30648  -0.22786  -0.15110
 Alpha virt. eigenvalues --   -0.15056  -0.14332  -0.10333  -0.10327  -0.10271
 Alpha virt. eigenvalues --   -0.08749  -0.06350  -0.06262  -0.06036  -0.05900

  Beta  occ. eigenvalues --  -10.53300 -10.53186 -10.51046 -10.50897 -10.49356
  Beta  occ. eigenvalues --  -10.47489 -10.47457  -1.18577  -1.10378  -1.03502
  Beta  occ. eigenvalues --   -0.94646  -0.87746  -0.76434  -0.75912  -0.67650
  Beta  occ. eigenvalues --   -0.66134  -0.57588  -0.55321  -0.55316
  Beta virt. eigenvalues --   -0.43490  -0.37331  -0.32468  -0.32337  -0.30304
  Beta virt. eigenvalues --   -0.29428  -0.21043  -0.14867  -0.11835  -0.10322
  Beta virt. eigenvalues --   -0.10115  -0.09821  -0.08971  -0.08503  -0.05883

 Mulliken charges and spin densities:
               1          2
     1  C   -0.047204   0.964412
     2  C    0.161940  -0.400065
     3  C    0.164596  -0.388493
     4  C    0.285378   0.289701
     5  C   -0.033635   0.967020
     6  C    0.179940   1.303577
     7  C    0.288985   0.263848
 Sum of Mulliken charges =   1.00000   3.00000

 Dipole moment (field-independent basis, Debye):
    X=             -0.3885    Y=             -0.6737    Z=             -0.0000  Tot=              0.7777
 Quadrupole moment (field-independent basis, Debye-Ang):
   XX=            -27.4857   YY=            -27.0333   ZZ=            -36.3919
   XY=              0.3749   XZ=             -0.0000   YZ=              0.0000

  Exact polarizability:  85.140 -12.426  70.752   0.000  -0.001  33.668
 Approx polarizability: 216.436 -38.288 171.019   0.000  -0.000  49.162

 ******    2 imaginary frequencies (negative Signs) ******

                      1                      2                      3
                     A"                     A'                     A"
 Frequencies --   -646.4025              -155.6208               108.2588
 Red. masses --     12.0000                12.0000                12.0000
 Frc consts  --      2.9542                 0.1712                 0.0829
 IR Inten    --      0.0005                 0.1236                 2.1294

                      4                      5                      6
                     A"                     A'                     A'
 Frequencies --    346.9082               366.7734               397.3428
 Red. masses --     12.0000                12.0000                12.0000
 Frc consts  --      0.8509                 0.9511                 1.1163
 IR Inten    --      0.0009                 1.2164                30.6289

                      7                      8                      9
                     A"                     A'                     A'
 Frequencies --    455.4002               578.5639               971.4823
 Red. masses --     12.0000                12.0000                12.0000
 Frc consts  --      1.4663                 2.3667                 6.6727
 IR Inten    --      1.3909                 0.0044                 5.7707

                     10                     11                     12
                     A'                     A'                     A'
 Frequencies --   1017.5033              1120.9033              1233.0911
 Red. masses --     12.0000                12.0000                12.0000
 Frc consts  --      7.3199                 8.8832                10.7503
 IR Inten    --      0.0368                77.4891                 4.8867

                     13                     14                     15
                     A'                     A'                     A'
 Frequencies --   1347.9677              1706.1295              1962.1830
 Red. masses --     12.0000                12.0000                12.0000
 Frc consts  --     12.8467                20.5805                27.2214
 IR Inten    --      0.1000                 2.6104                 5.7647

 - Thermochemistry -
 -------------------
 Temperature   298.150 Kelvin.  Pressure   1.00000 Atm.
 Atom     1 has atomic number  6 and mass  12.00000

 Molecular mass:    84.00000 amu.
 Principal axes and moments of inertia in atomic units:
                           1         2         3
     Eigenvalues --   251.80866 427.00206 678.81073
           X            0.86420   0.50314   0.00000
           Y           -0.50314   0.86420   0.00000
           Z           -0.00000   0.00000   1.00000
 This molecule is an asymmetric top.
 Rotational symmetry number  1.
 Rotational temperatures (Kelvin)      0.34397     0.20284     0.12760
 Rotational constants (GHZ):           7.16711     4.22654     2.65868
    2 imaginary frequencies ignored.
 Zero-point vibrational energy      69458.2 (Joules/Mol)
                                   16.60091 (Kcal/Mol)
 Warning -- explicit consideration of   6 degrees of freedom as
           vibrations may cause significant error
 Vibrational temperatures:    155.76   499.12   527.70   571.69   655.22
          (Kelvin)            832.42  1397.74  1463.96  1612.73  1774.14
                             1939.42  2454.74  2823.14

 Zero-point correction=                           0.026455 (Hartree/Particle)
 Thermal correction to Energy=                    0.031583
 Thermal correction to Enthalpy=                  0.032527
 Thermal correction to Gibbs Free Energy=        -0.003523
 Sum of electronic and zero-point Energies=           -265.969312
 Sum of electronic and thermal Energies=              -265.964185
 Sum of electronic and thermal Enthalpies=            -265.963240
 Sum of electronic and thermal Free Energies=         -265.999290

                     E (Thermal)             CV                S
                      KCal/Mol        Cal/Mol-Kelvin    Cal/Mol-Kelvin
 Total                   19.819             16.319             75.874
 Electronic               0.000              0.000              2.755
 Translational            0.889              2.981             39.198
 Rotational               0.889              2.981             25.793
 Vibrational             18.041             10.358              8.128
 Vibration     1          0.606              1.943              3.300
 Vibration     2          0.725              1.582              1.180
 Vibration     3          0.740              1.541              1.093
 Vibration     4          0.764              1.476              0.972
 Vibration     5          0.814              1.349              0.780
 Vibration     6          0.935              1.078              0.488

 Normal termination of Gaussian 09 at Tue Nov  1 20:28:30 2016.
