 Gaussian 09, Revision E.01,
 Gaussian 09:  EM64L-G09RevE.01 30-Nov-2015

 -----------------------------------------
 #p b3lyp/6-311+G(3df) freq symmetry=Loose
 -----------------------------------------

 ---------
 b3lyp opt
 ---------
 Symbolic Z-matrix:
 Charge =  2 Multiplicity = 1

                         Standard orientation:
 ---------------------------------------------------------------------
 Center     Atomic      Atomic             Coordinates (Angstroms)
 Number     Number       Type             X           Y           Z
 ---------------------------------------------------------------------
      1          6           0        0.601487    1.127978   -0.001312
      2          6           0        0.927618    0.000100   -0.824206
      3          6           0       -1.488394    0.000191    0.000593
      4          6           0       -0.782112    1.099206   -0.001421
      5          6           0        0.922594   -0.000299    0.829367
      6          6           0        0.601231   -1.128093   -0.001752
      7          6           0       -0.782424   -1.099083   -0.001270
 ---------------------------------------------------------------------

 SCF Done:  E(RB3LYP) =  -265.309810075     A.U. after   16 cycles

 The electronic state is 1-A.
 Alpha  occ. eigenvalues --  -10.81998 -10.81955 -10.81543 -10.81539 -10.79600
 Alpha  occ. eigenvalues --  -10.79596 -10.76250  -1.56285  -1.36468  -1.32767
 Alpha  occ. eigenvalues --   -1.13909  -1.13524  -1.11024  -1.01176  -0.95862
 Alpha  occ. eigenvalues --   -0.95214  -0.86745  -0.82631  -0.78535  -0.77730
 Alpha virt. eigenvalues --   -0.65922  -0.63567  -0.63147  -0.60203  -0.57845
 Alpha virt. eigenvalues --   -0.52126  -0.43163  -0.30196  -0.29671  -0.27225
 Alpha virt. eigenvalues --   -0.26590  -0.24373  -0.24058  -0.23330  -0.23125

 Mulliken charges:
               1
     1  C    0.588678
     2  C    0.087666
     3  C    0.544146
     4  C    0.052276
     5  C    0.086982
     6  C    0.588379
     7  C    0.051873
 Sum of Mulliken charges =   2.00000

 Dipole moment (field-independent basis, Debye):
    X=             -0.3080    Y=             -0.0001    Z=             -0.0170  Tot=              0.3084
 Quadrupole moment (field-independent basis, Debye-Ang):
   XX=            -19.8723   YY=            -22.3361   ZZ=            -30.0732
   XY=             -0.0000   XZ=             -0.0035   YZ=             -0.0001

  Exact polarizability:  59.856   0.000  55.575   0.011  -0.001  39.974
 Approx polarizability: 163.718   0.006 164.469  -0.031  -0.004 100.600

 ******    1 imaginary frequencies (negative Signs) ******

                      1                      2                      3
                      A                      A                      A
 Frequencies --   -180.0357               327.0120               367.1010
 Red. masses --     12.0000                12.0000                12.0000
 Frc consts  --      0.2292                 0.7561                 0.9528
 IR Inten    --     40.8140                19.0787                 0.0010

                      4                      5                      6
                      A                      A                      A
 Frequencies --    424.7850               529.0232               637.8417
 Red. masses --     12.0000                12.0000                12.0000
 Frc consts  --      1.2758                 1.9787                 2.8765
 IR Inten    --      0.1193                 0.0022                 2.4817

                      7                      8                      9
                      A                      A                      A
 Frequencies --    642.7191               673.9667               762.8797
 Red. masses --     12.0000                12.0000                12.0000
 Frc consts  --      2.9206                 3.2115                 4.1148
 IR Inten    --      3.1824                12.8583                 0.0005

                     10                     11                     12
                      A                      A                      A
 Frequencies --   1149.4471              1194.2521              1196.0675
 Red. masses --     12.0000                12.0000                12.0000
 Frc consts  --      9.3413                10.0838                10.1145
 IR Inten    --     16.4799                 0.0008                 0.0059

                     13                     14                     15
                      A                      A                      A
 Frequencies --   1230.0419              1550.3876              1583.1737
 Red. masses --     12.0000                12.0000                12.0000
 Frc consts  --     10.6972                16.9946                17.7210
 IR Inten    --      5.2569                 6.9019               111.9000

 - Thermochemistry -
 -------------------
 Temperature   298.150 Kelvin.  Pressure   1.00000 Atm.
 Atom     1 has atomic number  6 and mass  12.00000

 Molecular mass:    84.00000 amu.
 Principal axes and moments of inertia in atomic units:
                           1         2         3
     Eigenvalues --   271.18695 310.30979 464.32226
           X            1.00000  -0.00000  -0.00000
           Y            0.00000   1.00000  -0.00000
           Z            0.00000   0.00000   1.00000
 This molecule is an asymmetric top.
 Rotational symmetry number  1.
 Rotational temperatures (Kelvin)      0.31939     0.27912     0.18654
 Rotational constants (GHZ):           6.65497     5.81593     3.88683
    1 imaginary frequencies ignored.
 Zero-point vibrational energy      73383.1 (Joules/Mol)
                                   17.53898 (Kcal/Mol)
 Warning -- explicit consideration of   4 degrees of freedom as
           vibrations may cause significant error
 Vibrational temperatures:    470.50   528.18   611.17   761.15   917.71
          (Kelvin)            924.73   969.69  1097.61  1653.80  1718.26
                             1720.87  1769.75  2230.66  2277.83

 Zero-point correction=                           0.027950 (Hartree/Particle)
 Thermal correction to Energy=                    0.032571
 Thermal correction to Enthalpy=                  0.033515
 Thermal correction to Gibbs Free Energy=         0.000379
 Sum of electronic and zero-point Energies=           -265.281860
 Sum of electronic and thermal Energies=              -265.277239
 Sum of electronic and thermal Enthalpies=            -265.276295
 Sum of electronic and thermal Free Energies=         -265.309431

                     E (Thermal)             CV                S
                      KCal/Mol        Cal/Mol-Kelvin    Cal/Mol-Kelvin
 Total                   20.439             16.175             69.741
 Electronic               0.000              0.000              0.000
 Translational            0.889              2.981             39.198
 Rotational               0.889              2.981             25.172
 Vibrational             18.661             10.214              5.370
 Vibration     1          0.711              1.622              1.275
 Vibration     2          0.740              1.540              1.092
 Vibration     3          0.787              1.416              0.876
 Vibration     4          0.884              1.186              0.589

 1\1\GINC-BELVIS12\Freq\RB3LYP\6-311+G(3df)\C7(2+)\ROOT\19-Jun-2016\0\\
 #p b3lyp/6-311+G(3df) freq symmetry=Loose\\b3lyp opt\\2,1\C,1.220996,0
 .170494,-0.33797\C,0.505392,0.933636,0.642413\C,-0.47177,-1.390692,0.2
 42334\C,0.756177,-1.112179,-0.105876\C,0.079585,0.794631,-0.949346\C,-
 0.839077,0.953471,0.14463\C,-1.251302,-0.349361,0.363816\\Version=EM64
 L-G09RevE.01\State=1-A\HF=-265.3098101\RMSD=1.524e-09\RMSF=1.081e-04\Z
 eroPoint=0.0279502\Thermal=0.032571\Dipole=-0.0367198,-0.1126436,0.026
 2312\DipoleDeriv=-0.0328707,-0.3398965,0.2136324,-0.0262678,0.1053605,

 Normal termination of Gaussian 09 at Sun Jun 19 14:20:05 2016.
