 Gaussian 09, Revision E.01,
 Gaussian 09:  EM64L-G09RevE.01 30-Nov-2015

 -----------------------------------------
 #p b3lyp/6-311+G(3df) freq symmetry=Loose
 -----------------------------------------

 ---------
 b3lyp opt
 ---------
 Symbolic Z-matrix:
 Charge =  1 Multiplicity = 4

                         Standard orientation:
 ---------------------------------------------------------------------
 Center     Atomic      Atomic             Coordinates (Angstroms)
 Number     Number       Type             X           Y           Z
 ---------------------------------------------------------------------
      1          6           0        0.358730   -2.225430    0.678376
      2          6           0       -0.465486    0.250280   -0.000000
      3          6           0        0.358730   -2.225430   -0.678376
      4          6           0       -1.349646    1.242104   -0.000000
      5          6           0       -0.000000    1.612773    0.000000
      6          6           0        1.102731    2.432506    0.000000
      7          6           0       -0.005148   -1.086822   -0.000000
 ---------------------------------------------------------------------

 SCF Done:  E(UB3LYP) =  -265.913124057     A.U. after   24 cycles

 The electronic state is 4-A'.
 Alpha  occ. eigenvalues --  -10.55146 -10.53384 -10.53104 -10.52457 -10.52412
 Alpha  occ. eigenvalues --  -10.48436 -10.48364  -1.23905  -1.19925  -1.02077
 Alpha  occ. eigenvalues --   -0.97249  -0.76788  -0.76602  -0.72576  -0.69079
 Alpha  occ. eigenvalues --   -0.67859  -0.64090  -0.56949  -0.56277  -0.53891
 Alpha  occ. eigenvalues --   -0.53816  -0.49186
 Alpha virt. eigenvalues --   -0.37633  -0.30065  -0.28247  -0.24708  -0.23865
 Alpha virt. eigenvalues --   -0.15704  -0.11738  -0.11162  -0.10769  -0.08685
 Alpha virt. eigenvalues --   -0.07502  -0.06635  -0.06467  -0.05985  -0.05533

  Beta  occ. eigenvalues --  -10.54850 -10.52121 -10.52045 -10.51979 -10.51915
  Beta  occ. eigenvalues --  -10.47342 -10.47269  -1.22681  -1.18945  -0.98389
  Beta  occ. eigenvalues --   -0.95803  -0.74319  -0.73264  -0.70216  -0.65486
  Beta  occ. eigenvalues --   -0.64612  -0.62619  -0.54605  -0.47657
  Beta virt. eigenvalues --   -0.44596  -0.41823  -0.36821  -0.34934  -0.26840
  Beta virt. eigenvalues --   -0.25955  -0.22242  -0.18847  -0.15032  -0.11231
  Beta virt. eigenvalues --   -0.10587  -0.10395  -0.08385  -0.06893  -0.06203

 Mulliken charges and spin densities:
               1          2
     1  C   -0.112614   0.550838
     2  C    0.293253  -0.003113
     3  C   -0.112614   0.550838
     4  C   -0.089934   0.610961
     5  C    0.666933   0.219492
     6  C   -0.280305   0.647402
     7  C    0.635281   0.423581
 Sum of Mulliken charges =   1.00000   3.00000

 Dipole moment (field-independent basis, Debye):
    X=             -0.8572    Y=              0.9323    Z=              0.0000  Tot=              1.2665
 Quadrupole moment (field-independent basis, Debye-Ang):
   XX=            -33.9770   YY=            -23.2947   ZZ=            -36.3973
   XY=             -1.6737   XZ=              0.0000   YZ=              0.0000

  Exact polarizability:  86.744 -74.106 370.668   0.000  -0.000  68.611
 Approx polarizability: 187.409-177.556 655.933  -0.000   0.000 103.048

 ******    1 imaginary frequencies (negative Signs) ******

                      1                      2                      3
                     A"                     A'                     A"
 Frequencies --   -156.2539               117.8449               183.0221
 Red. masses --     12.0000                12.0000                12.0000
 Frc consts  --      0.1726                 0.0982                 0.2368
 IR Inten    --    321.0986                 7.6238                 1.7215

                      4                      5                      6
                     A"                     A'                     A"
 Frequencies --    229.2698               264.7880               330.0687
 Red. masses --     12.0000                12.0000                12.0000
 Frc consts  --      0.3716                 0.4957                 0.7703
 IR Inten    --    556.0333                77.8120                52.8793

                      7                      8                      9
                     A'                     A"                     A'
 Frequencies --    491.2925               552.3533               589.1960
 Red. masses --     12.0000                12.0000                12.0000
 Frc consts  --      1.7065                 2.1571                 2.4544
 IR Inten    --   1922.4592                 0.7729               854.0483

                     10                     11                     12
                     A'                     A'                     A'
 Frequencies --    694.1192               883.7372              1244.3325
 Red. masses --     12.0000                12.0000                12.0000
 Frc consts  --      3.4064                 5.5218                10.9472
 IR Inten    --   2644.9783               112.5373               259.0337

                     13                     14                     15
                     A'                     A'                     A'
 Frequencies --   1309.2147              1653.5554              1778.1623
 Red. masses --     12.0000                12.0000                12.0000
 Frc consts  --     12.1186                19.3317                22.3550
 IR Inten    --    629.9132                71.2087               285.8007

 - Thermochemistry -
 -------------------
 Temperature   298.150 Kelvin.  Pressure   1.00000 Atm.
 Atom     1 has atomic number  6 and mass  12.00000

 Molecular mass:    84.00000 amu.
 Principal axes and moments of inertia in atomic units:
                           1         2         3
     Eigenvalues --   188.73483 949.531881059.38432
           X           -0.03955   0.99922   0.00000
           Y            0.99922   0.03955   0.00000
           Z            0.00000   0.00000   1.00000
 This molecule is an asymmetric top.
 Rotational symmetry number  1.
 Rotational temperatures (Kelvin)      0.45892     0.09122     0.08176
 Rotational constants (GHZ):           9.56231     1.90066     1.70358
    1 imaginary frequencies ignored.
 Zero-point vibrational energy      61733.0 (Joules/Mol)
                                   14.75455 (Kcal/Mol)
 Warning -- explicit consideration of   8 degrees of freedom as
           vibrations may cause significant error
 Vibrational temperatures:    169.55   263.33   329.87   380.97   474.89
          (Kelvin)            706.86   794.71   847.72   998.68  1271.50
                             1790.31  1883.67  2379.09  2558.38

 Zero-point correction=                           0.023513 (Hartree/Particle)
 Thermal correction to Energy=                    0.029787
 Thermal correction to Enthalpy=                  0.030731
 Thermal correction to Gibbs Free Energy=        -0.007814
 Sum of electronic and zero-point Energies=           -265.889611
 Sum of electronic and thermal Energies=              -265.883337
 Sum of electronic and thermal Enthalpies=            -265.882393
 Sum of electronic and thermal Free Energies=         -265.920938

                     E (Thermal)             CV                S
                      KCal/Mol        Cal/Mol-Kelvin    Cal/Mol-Kelvin
 Total                   18.691             20.122             81.124
 Electronic               0.000              0.000              2.755
 Translational            0.889              2.981             39.198
 Rotational               0.889              2.981             26.743
 Vibrational             16.914             14.161             12.428
 Vibration     1          0.608              1.935              3.135
 Vibration     2          0.631              1.863              2.297
 Vibration     3          0.652              1.796              1.885
 Vibration     4          0.671              1.738              1.630
 Vibration     5          0.713              1.615              1.260
 Vibration     6          0.847              1.269              0.680
 Vibration     7          0.908              1.135              0.539
 Vibration     8          0.946              1.055              0.469

 Optimization completed.
    -- Stationary point found.
 Normal termination of Gaussian 09 at Tue Nov  1 19:53:52 2016.
