 Gaussian 09, Revision E.01,
 Gaussian 09:  EM64L-G09RevE.01 30-Nov-2015

 -----------------------------------------
 #p b3lyp/6-311+G(3df) freq symmetry=Loose
 -----------------------------------------

 ---------
 b3lyp opt
 ---------
 Symbolic Z-matrix:
 Charge =  2 Multiplicity = 3

                         Standard orientation:
 ---------------------------------------------------------------------
 Center     Atomic      Atomic             Coordinates (Angstroms)
 Number     Number       Type             X           Y           Z
 ---------------------------------------------------------------------
      1          6           0        2.697804   -1.199792    0.000035
      2          6           0        1.812466   -0.117444    0.000113
      3          6           0       -0.899082    0.137265   -0.000373
      4          6           0        0.433397    0.440079   -0.000023
      5          6           0       -2.107992   -0.116843   -0.000735
      6          6           0       -3.455868   -0.368719    0.000737
      7          6           0        1.519275    1.225454    0.000246
 ---------------------------------------------------------------------

 SCF Done:  E(UB3LYP) =  -265.403858820     A.U. after   36 cycles

 The electronic state is 3-A.
 Alpha  occ. eigenvalues --  -10.76271 -10.76194 -10.75785 -10.75482 -10.73497
 Alpha  occ. eigenvalues --  -10.72581 -10.67330  -1.43332  -1.28806  -1.21671
 Alpha  occ. eigenvalues --   -1.19511  -1.11317  -0.96241  -0.92470  -0.90071
 Alpha  occ. eigenvalues --   -0.81282  -0.80765  -0.76473  -0.75739  -0.74941
 Alpha  occ. eigenvalues --   -0.71541
 Alpha virt. eigenvalues --   -0.60982  -0.60343  -0.54454  -0.48506  -0.43038
 Alpha virt. eigenvalues --   -0.37992  -0.32126  -0.30849  -0.28467  -0.26923
 Alpha virt. eigenvalues --   -0.25075  -0.24880  -0.22668  -0.21632  -0.20728

  Beta  occ. eigenvalues --  -10.75897 -10.75319 -10.74703 -10.74572 -10.73778
  Beta  occ. eigenvalues --  -10.72140 -10.67059  -1.42164  -1.28570  -1.19535
  Beta  occ. eigenvalues --   -1.17106  -1.10684  -0.93413  -0.89901  -0.87847
  Beta  occ. eigenvalues --   -0.79675  -0.79228  -0.74342  -0.74160
  Beta virt. eigenvalues --   -0.62759  -0.62565  -0.58612  -0.57036  -0.52204
  Beta virt. eigenvalues --   -0.45837  -0.38517  -0.37088  -0.31723  -0.29513
  Beta virt. eigenvalues --   -0.27792  -0.26159  -0.24708  -0.24597  -0.21541

 Mulliken charges and spin densities:
               1          2
     1  C   -0.041282   0.559387
     2  C    0.503493   0.357672
     3  C   -0.423515  -0.009591
     4  C    0.240070   0.057471
     5  C    1.631512   0.173882
     6  C   -0.074023   0.122129
     7  C    0.163745   0.739051
 Sum of Mulliken charges =   2.00000   2.00000

 Dipole moment (field-independent basis, Debye):
    X=             -0.1320    Y=              0.1125    Z=             -0.0011  Tot=              0.1735
 Quadrupole moment (field-independent basis, Debye-Ang):
   XX=             12.1585   YY=            -26.9907   ZZ=            -32.0662
   XY=              1.3577   XZ=              0.0071   YZ=              0.0011

  Exact polarizability: 168.341  -5.690  61.002   0.106   0.011  36.834
 Approx polarizability: 412.167   0.448 112.416  -0.012   0.004  53.534

 ******    1 imaginary frequencies (negative Signs) ******

                      1                      2                      3
                      A                      A                      A
 Frequencies --     -8.1153                82.8763               166.6400
 Red. masses --     12.0000                12.0000                12.0000
 Frc consts  --      0.0005                 0.0486                 0.1963
 IR Inten    --      3.7521                 1.2785                 0.0029

                      4                      5                      6
                      A                      A                      A
 Frequencies --    223.6999               299.2298               310.7371
 Red. masses --     12.0000                12.0000                12.0000
 Frc consts  --      0.3538                 0.6331                 0.6827
 IR Inten    --      0.7663                 6.2400                 6.1675

                      7                      8                      9
                      A                      A                      A
 Frequencies --    523.6631               562.6126               607.2793
 Red. masses --     12.0000                12.0000                12.0000
 Frc consts  --      1.9388                 2.2379                 2.6074
 IR Inten    --      1.1464                 0.0076                16.7447

                     10                     11                     12
                      A                      A                      A
 Frequencies --    789.5242               950.5056              1222.2500
 Red. masses --     12.0000                12.0000                12.0000
 Frc consts  --      4.4072                 6.3876                10.5621
 IR Inten    --     41.2754                 1.1724               778.7889

                     13                     14                     15
                      A                      A                      A
 Frequencies --   1388.9793              1703.7264              2147.9700
 Red. masses --     12.0000                12.0000                12.0000
 Frc consts  --     13.6403                20.5225                32.6203
 IR Inten    --    176.8117                 6.3597              1368.6167

 - Thermochemistry -
 -------------------
 Temperature   298.150 Kelvin.  Pressure   1.00000 Atm.
 Atom     1 has atomic number  6 and mass  12.00000

 Molecular mass:    84.00000 amu.
 Principal axes and moments of inertia in atomic units:
                           1         2         3
     Eigenvalues --   142.149101296.476861438.62585
           X            1.00000  -0.00000  -0.00000
           Y            0.00000   1.00000  -0.00000
           Z            0.00000   0.00000   1.00000
 This molecule is an asymmetric top.
 Rotational symmetry number  1.
 Rotational temperatures (Kelvin)      0.60932     0.06681     0.06021
 Rotational constants (GHZ):          12.69611     1.39204     1.25449
    1 imaginary frequencies ignored.
 Zero-point vibrational energy      65673.2 (Joules/Mol)
                                   15.69626 (Kcal/Mol)
 Warning -- explicit consideration of   8 degrees of freedom as
           vibrations may cause significant error
 Vibrational temperatures:    119.24   239.76   321.85   430.52   447.08
          (Kelvin)            753.43   809.47   873.74  1135.95  1367.56
                             1758.54  1998.43  2451.28  3090.45

 Zero-point correction=                           0.025014 (Hartree/Particle)
 Thermal correction to Energy=                    0.031278
 Thermal correction to Enthalpy=                  0.032222
 Thermal correction to Gibbs Free Energy=        -0.006458
 Sum of electronic and zero-point Energies=           -265.378845
 Sum of electronic and thermal Energies=              -265.372581
 Sum of electronic and thermal Enthalpies=            -265.371637
 Sum of electronic and thermal Free Energies=         -265.410317

                     E (Thermal)             CV                S
                      KCal/Mol        Cal/Mol-Kelvin    Cal/Mol-Kelvin
 Total                   19.627             19.712             81.409
 Electronic               0.000              0.000              2.183
 Translational            0.889              2.981             39.198
 Rotational               0.889              2.981             27.075
 Vibrational             17.850             13.750             12.953
 Vibration     1          0.600              1.961              3.822
 Vibration     2          0.624              1.883              2.473
 Vibration     3          0.649              1.805              1.929
 Vibration     4          0.692              1.675              1.421
 Vibration     5          0.700              1.653              1.358
 Vibration     6          0.879              1.198              0.602
 Vibration     7          0.918              1.112              0.519
 Vibration     8          0.966              1.016              0.437

 Normal termination of Gaussian 09 at Sun Jun 19 15:12:40 2016.
