 Gaussian 09, Revision E.01,
 Gaussian 09:  EM64L-G09RevE.01 30-Nov-2015

 -----------------------------------------
 #p b3lyp/6-311+G(3df) freq symmetry=Loose
 -----------------------------------------

 ---------
 b3lyp opt
 ---------
 Symbolic Z-matrix:
 Charge =  1 Multiplicity = 2

                         Standard orientation:
 ---------------------------------------------------------------------
 Center     Atomic      Atomic             Coordinates (Angstroms)
 Number     Number       Type             X           Y           Z
 ---------------------------------------------------------------------
      1          6           0        0.000000    0.000000   -3.867482
      2          6           0        0.000000    0.000000   -2.549997
      3          6           0        0.000000    0.000000   -1.277072
      4          6           0        0.000000    0.000000    0.000000
      5          6           0       -0.000000    0.000000    1.277072
      6          6           0       -0.000000    0.000000    2.549997
      7          6           0       -0.000000    0.000000    3.867482
 ---------------------------------------------------------------------

 SCF Done:  E(UB3LYP) =  -266.071928193     A.U. after   14 cycles

 Unable to determine electronic state:  an orbital has unidentified symmetry.
 Alpha  occ. eigenvalues --  -10.51614 -10.51614 -10.49912 -10.49911 -10.49450
 Alpha  occ. eigenvalues --  -10.45530 -10.45528  -1.10964  -1.07036  -1.02706
 Alpha  occ. eigenvalues --   -0.96962  -0.90937  -0.86462  -0.66156  -0.65400
 Alpha  occ. eigenvalues --   -0.60229  -0.59255  -0.53224  -0.53192  -0.52882
 Alpha  occ. eigenvalues --   -0.51183
 Alpha virt. eigenvalues --   -0.39136  -0.38418  -0.28048  -0.26872  -0.15979
 Alpha virt. eigenvalues --   -0.15293  -0.14237  -0.12081  -0.10083  -0.09851
 Alpha virt. eigenvalues --   -0.07894  -0.06361  -0.06140  -0.04646  -0.04405

  Beta  occ. eigenvalues --  -10.51916 -10.51914 -10.49583 -10.49582 -10.48893
  Beta  occ. eigenvalues --  -10.45108 -10.45106  -1.10409  -1.06481  -1.00926
  Beta  occ. eigenvalues --   -0.95981  -0.90219  -0.86061  -0.65334  -0.64543
  Beta  occ. eigenvalues --   -0.59119  -0.57987  -0.52525  -0.52498  -0.50383
  Beta virt. eigenvalues --   -0.44588  -0.38459  -0.36873  -0.26457  -0.25037
  Beta virt. eigenvalues --   -0.15920  -0.13928  -0.12946  -0.11962  -0.09909
  Beta virt. eigenvalues --   -0.09837  -0.07609  -0.06133  -0.06129  -0.04602

 Mulliken charges and spin densities:
               1          2
     1  C   -0.562320   0.153532
     2  C    1.540563   0.274392
     3  C   -0.342154   0.023812
     4  C   -0.272178   0.096529
     5  C   -0.342154   0.023812
     6  C    1.540563   0.274392
     7  C   -0.562320   0.153532
 Sum of Mulliken charges =   1.00000   1.00000

 Dipole moment (field-independent basis, Debye):
    X=             -0.0000    Y=              0.0000    Z=              0.0000  Tot=              0.0000
 Quadrupole moment (field-independent basis, Debye-Ang):
   XX=            -35.8593   YY=            -34.1440   ZZ=            -16.9638
   XY=             -0.0000   XZ=              0.0000   YZ=              0.0000

  Exact polarizability:  39.957  -0.000  64.766  -0.000   0.000 260.045
 Approx polarizability:  58.082   0.000  59.315  -0.000  -0.000 836.149

 ******    2 imaginary frequencies (negative Signs) ******

                      1                      2                      3
                     ?A                     ?B                     ?B
 Frequencies --   -830.7032              -754.1068                72.9866
 Red. masses --     12.0000                12.0000                12.0000
 Frc consts  --      4.8789                 4.0207                 0.0377
 IR Inten    --      0.0000               815.7491                 3.4619

                      4                      5                      6
                     ?B                     ?A                     ?B
 Frequencies --     83.0999               159.8622               254.4265
 Red. masses --     12.0000                12.0000                12.0000
 Frc consts  --      0.0488                 0.1807                 0.4577
 IR Inten    --      1.8166                 0.0000                 3.0701

                      7                      8                      9
                     ?A                     ?A                     SGG
 Frequencies --    283.8518               535.7324               579.5268
 Red. masses --     12.0000                12.0000                12.0000
 Frc consts  --      0.5697                 2.0292                 2.3745
 IR Inten    --      0.0000                 0.0000                 0.0000

                     10                     11                     12
                     ?B                     ?B                     SGU
 Frequencies --    594.6656               651.3596              1063.5102
 Red. masses --     12.0000                12.0000                12.0000
 Frc consts  --      2.5002                 2.9997                 7.9968
 IR Inten    --     14.9597                 5.2978               200.5725

                     13                     14                     15
                     SGG                    SGU                    SGU
 Frequencies --   1490.4238              1863.2093              1931.5225
 Red. masses --     12.0000                12.0000                12.0000
 Frc consts  --     15.7055                24.5445                26.3773
 IR Inten    --      0.0000                29.5898              3858.4541

                     16
                     SGG
 Frequencies --   2133.2818
 Red. masses --     12.0000
 Frc consts  --     32.1757
 IR Inten    --      0.0000

 - Thermochemistry -
 -------------------
 Temperature   298.150 Kelvin.  Pressure   1.00000 Atm.
 Atom     1 has atomic number  6 and mass  12.00000

 Molecular mass:    84.00000 amu.
 Principal axes and moments of inertia in atomic units:
                           1         2         3
     Eigenvalues --     0.000001979.010931979.01093
           X           -0.00000   1.00000   0.00000
           Y           -0.00000   0.00000   1.00000
           Z            1.00000   0.00000   0.00000
 This molecule is a prolate symmetric top.
 Rotational symmetry number  2.
 Warning -- assumption of classical behavior for rotation
           may cause significant error
 Rotational temperature (Kelvin)      0.04377
 Rotational constant (GHZ):           0.911941
    2 imaginary frequencies ignored.
 Zero-point vibrational energy      69966.3 (Joules/Mol)
                                   16.72236 (Kcal/Mol)
 Warning -- explicit consideration of   8 degrees of freedom as
           vibrations may cause significant error
 Vibrational temperatures:    105.01   119.56   230.01   366.06   408.40
          (Kelvin)            770.80   833.81   855.59   937.16  1530.15
                             2144.38  2680.74  2779.03  3069.31

 Zero-point correction=                           0.026649 (Hartree/Particle)
 Thermal correction to Energy=                    0.032815
 Thermal correction to Enthalpy=                  0.033759
 Thermal correction to Gibbs Free Energy=        -0.001568
 Sum of electronic and zero-point Energies=           -266.045279
 Sum of electronic and thermal Energies=              -266.039113
 Sum of electronic and thermal Enthalpies=            -266.038169
 Sum of electronic and thermal Free Energies=         -266.073496

                     E (Thermal)             CV                S
                      KCal/Mol        Cal/Mol-Kelvin    Cal/Mol-Kelvin
 Total                   20.592             18.894             74.353
 Electronic               0.000              0.000              1.377
 Translational            0.889              2.981             39.198
 Rotational               0.592              1.987             18.150
 Vibrational             19.111             13.926             15.628
 Vibration     1          0.599              1.967              4.071
 Vibration     2          0.600              1.961              3.816
 Vibration     3          0.622              1.892              2.551
 Vibration     4          0.665              1.755              1.700
 Vibration     5          0.682              1.704              1.510
 Vibration     6          0.891              1.171              0.575
 Vibration     7          0.936              1.076              0.486
 Vibration     8          0.952              1.043              0.459

 Optimization completed.
    -- Stationary point found.
 Normal termination of Gaussian 09 at Tue Nov  1 20:09:52 2016.
