 Gaussian 09, Revision E.01,
 Gaussian 09:  EM64L-G09RevE.01 30-Nov-2015

 -----------------------------------------
 #p b3lyp/6-311+G(3df) freq symmetry=Loose
 -----------------------------------------

 ---------
 b3lyp opt
 ---------
 Symbolic Z-matrix:
 Charge =  1 Multiplicity = 2

                         Standard orientation:
 ---------------------------------------------------------------------
 Center     Atomic      Atomic             Coordinates (Angstroms)
 Number     Number       Type             X           Y           Z
 ---------------------------------------------------------------------
      1          6           0        1.193181    1.169374   -0.255573
      2          6           0        0.268709   -0.759510    0.734763
      3          6           0       -0.911606   -0.000681    0.058018
      4          6           0        1.194109   -1.167905   -0.256624
      5          6           0       -2.299447    0.000836   -0.215794
      6          6           0        0.284939    0.000314   -0.800930
      7          6           0        0.270115    0.757573    0.736140
 ---------------------------------------------------------------------

 SCF Done:  E(UB3LYP) =  -265.798839030     A.U. after   31 cycles

 The electronic state is 2-A.
 Alpha  occ. eigenvalues --  -10.58294 -10.56998 -10.56975 -10.55812 -10.55708
 Alpha  occ. eigenvalues --  -10.54515 -10.54496  -1.36055  -1.07087  -1.06147
 Alpha  occ. eigenvalues --   -0.97949  -0.90759  -0.74586  -0.72079  -0.69774
 Alpha  occ. eigenvalues --   -0.68465  -0.64486  -0.58901  -0.55149  -0.54454
 Alpha  occ. eigenvalues --   -0.50893
 Alpha virt. eigenvalues --   -0.40916  -0.39102  -0.36629  -0.35151  -0.31201
 Alpha virt. eigenvalues --   -0.17877  -0.14396  -0.14019  -0.11914  -0.10984
 Alpha virt. eigenvalues --   -0.10119  -0.08315  -0.07731  -0.07529  -0.06708

  Beta  occ. eigenvalues --  -10.58396 -10.56615 -10.56591 -10.55811 -10.54720
  Beta  occ. eigenvalues --  -10.54442 -10.54420  -1.35941  -1.05937  -1.05707
  Beta  occ. eigenvalues --   -0.96681  -0.89964  -0.74459  -0.70881  -0.68683
  Beta  occ. eigenvalues --   -0.67529  -0.64198  -0.57151  -0.54411  -0.54151
  Beta virt. eigenvalues --   -0.40248  -0.39859  -0.38146  -0.36002  -0.31548
  Beta virt. eigenvalues --   -0.30733  -0.17018  -0.14239  -0.13724  -0.11733
  Beta virt. eigenvalues --   -0.10651  -0.09991  -0.08245  -0.07456  -0.07453

 Mulliken charges and spin densities:
               1          2
     1  C   -0.215009   0.029875
     2  C    0.203655   0.196079
     3  C    0.656762  -0.072999
     4  C   -0.212995   0.028302
     5  C    0.447934   0.617585
     6  C   -0.088153   0.006180
     7  C    0.207806   0.194977
 Sum of Mulliken charges =   1.00000   1.00000

 Dipole moment (field-independent basis, Debye):
    X=             -1.5169    Y=             -0.0062    Z=              0.9263  Tot=              1.7774
 Quadrupole moment (field-independent basis, Debye-Ang):
   XX=            -35.5207   YY=            -34.2499   ZZ=            -33.3505
   XY=             -0.0025   XZ=              0.6171   YZ=              0.0075

  Exact polarizability:  82.351   0.011  59.994   0.975  -0.005  49.097
 Approx polarizability: 171.873   0.065 132.492   0.105  -0.024 118.892

 ******    1 imaginary frequencies (negative Signs) ******

                      1                      2                      3
                      A                      A                      A
 Frequencies --   -309.5644                77.0436               160.1315
 Red. masses --     12.0000                12.0000                12.0000
 Frc consts  --      0.6775                 0.0420                 0.1813
 IR Inten    --     35.8576                 0.0154                18.1019

                      4                      5                      6
                      A                      A                      A
 Frequencies --    214.3771               294.1749               547.9573
 Red. masses --     12.0000                12.0000                12.0000
 Frc consts  --      0.3249                 0.6118                 2.1229
 IR Inten    --      6.9393                 0.4114                19.0764

                      7                      8                      9
                      A                      A                      A
 Frequencies --    557.1189               593.5149               610.5688
 Red. masses --     12.0000                12.0000                12.0000
 Frc consts  --      2.1945                 2.4905                 2.6357
 IR Inten    --      6.2517                 1.7699                 5.9776

                     10                     11                     12
                      A                      A                      A
 Frequencies --    725.8829               834.1168               986.9618
 Red. masses --     12.0000                12.0000                12.0000
 Frc consts  --      3.7253                 4.9191                 6.8870
 IR Inten    --      1.6901                12.5170                23.7544

                     13                     14                     15
                      A                      A                      A
 Frequencies --   1062.6928              1171.4422              1306.3635
 Red. masses --     12.0000                12.0000                12.0000
 Frc consts  --      7.9845                 9.7023                12.0659
 IR Inten    --     10.7062               104.6697                 6.8685

 - Thermochemistry -
 -------------------
 Temperature   298.150 Kelvin.  Pressure   1.00000 Atm.
 Atom     1 has atomic number  6 and mass  12.00000

 Molecular mass:    84.00000 amu.
 Principal axes and moments of inertia in atomic units:
                           1         2         3
     Eigenvalues --   247.97121 475.61391 560.36977
           X            1.00000   0.00000   0.00000
           Y           -0.00000   1.00000   0.00000
           Z           -0.00000  -0.00000   1.00000
 This molecule is an asymmetric top.
 Rotational symmetry number  1.
 Rotational temperatures (Kelvin)      0.34929     0.18211     0.15457
 Rotational constants (GHZ):           7.27803     3.79455     3.22063
    1 imaginary frequencies ignored.
 Zero-point vibrational energy      54683.4 (Joules/Mol)
                                   13.06964 (Kcal/Mol)
 Warning -- explicit consideration of   8 degrees of freedom as
           vibrations may cause significant error
 Vibrational temperatures:    110.85   230.39   308.44   423.25   788.39
          (Kelvin)            801.57   853.93   878.47  1044.38  1200.11
                             1420.02  1528.98  1685.44  1879.56

 Zero-point correction=                           0.020828 (Hartree/Particle)
 Thermal correction to Energy=                    0.026995
 Thermal correction to Enthalpy=                  0.027939
 Thermal correction to Gibbs Free Energy=        -0.009555
 Sum of electronic and zero-point Energies=           -265.778011
 Sum of electronic and thermal Energies=              -265.771844
 Sum of electronic and thermal Enthalpies=            -265.770900
 Sum of electronic and thermal Free Energies=         -265.808394

                     E (Thermal)             CV                S
                      KCal/Mol        Cal/Mol-Kelvin    Cal/Mol-Kelvin
 Total                   16.940             20.095             78.912
 Electronic               0.000              0.000              1.377
 Translational            0.889              2.981             39.198
 Rotational               0.889              2.981             25.694
 Vibrational             15.162             14.134             12.642
 Vibration     1          0.599              1.964              3.965
 Vibration     2          0.622              1.891              2.548
 Vibration     3          0.644              1.819              2.006
 Vibration     4          0.689              1.685              1.450
 Vibration     5          0.903              1.144              0.548
 Vibration     6          0.913              1.124              0.530
 Vibration     7          0.951              1.046              0.461
 Vibration     8          0.970              1.009              0.432

 Normal termination of Gaussian 09 at Tue Nov  1 19:58:49 2016.
