 Gaussian 09, Revision E.01,
 Gaussian 09:  EM64L-G09RevE.01 30-Nov-2015

 -----------------------------------------
 #p b3lyp/6-311+G(3df) freq symmetry=Loose
 -----------------------------------------

 ---------
 b3lyp opt
 ---------
 Symbolic Z-matrix:
 Charge =  1 Multiplicity = 2

                         Standard orientation:
 ---------------------------------------------------------------------
 Center     Atomic      Atomic             Coordinates (Angstroms)
 Number     Number       Type             X           Y           Z
 ---------------------------------------------------------------------
      1          6           0       -0.716500   -1.519405    0.000000
      2          6           0        0.000000    1.351937    0.000000
      3          6           0       -1.314052   -0.351075    0.000000
      4          6           0        1.380637   -0.256807    0.000000
      5          6           0        1.286312    1.083113    0.000000
      6          6           0       -1.224667    0.938847    0.000000
      7          6           0        0.588271   -1.246608    0.000000
 ---------------------------------------------------------------------

 SCF Done:  E(UB3LYP) =  -266.102713682     A.U. after   19 cycles

 The electronic state is 2-A'.
 Alpha  occ. eigenvalues --  -10.52505 -10.52284 -10.49884 -10.49829 -10.49780
 Alpha  occ. eigenvalues --  -10.49456 -10.49144  -1.18623  -1.08989  -1.07641
 Alpha  occ. eigenvalues --   -0.95179  -0.89516  -0.79643  -0.79272  -0.69040
 Alpha  occ. eigenvalues --   -0.68810  -0.59222  -0.58454  -0.58237  -0.56532
 Alpha  occ. eigenvalues --   -0.46760
 Alpha virt. eigenvalues --   -0.35031  -0.34835  -0.32744  -0.32502  -0.27180
 Alpha virt. eigenvalues --   -0.15323  -0.12027  -0.10803  -0.10310  -0.10216
 Alpha virt. eigenvalues --   -0.10120  -0.08738  -0.06198  -0.06001  -0.05897

  Beta  occ. eigenvalues --  -10.52653 -10.52419 -10.49603 -10.49150 -10.48994
  Beta  occ. eigenvalues --  -10.48972 -10.48868  -1.18278  -1.08325  -1.07127
  Beta  occ. eigenvalues --   -0.94004  -0.89546  -0.79170  -0.78619  -0.68622
  Beta  occ. eigenvalues --   -0.67463  -0.58147  -0.57880  -0.54832  -0.54377
  Beta virt. eigenvalues --   -0.36519  -0.33755  -0.32601  -0.32476  -0.32035
  Beta virt. eigenvalues --   -0.27024  -0.15259  -0.11634  -0.10156  -0.10050
  Beta virt. eigenvalues --   -0.09944  -0.09749  -0.08659  -0.06190  -0.05906

 Mulliken charges and spin densities:
               1          2
     1  C   -0.037779   0.457138
     2  C    0.468496  -0.144306
     3  C    0.418290  -0.137630
     4  C   -0.026133   0.121005
     5  C   -0.028467   0.492527
     6  C    0.146911   0.184686
     7  C    0.058683   0.026581
 Sum of Mulliken charges =   1.00000   1.00000

 Dipole moment (field-independent basis, Debye):
    X=             -0.4296    Y=              0.2008    Z=              0.0000  Tot=              0.4743
 Quadrupole moment (field-independent basis, Debye-Ang):
   XX=            -28.4794   YY=            -28.4654   ZZ=            -34.8910
   XY=             -0.2240   XZ=              0.0000   YZ=              0.0000

  Exact polarizability:  77.050   9.921  81.973  -0.000   0.000  33.939
 Approx polarizability: 198.254  40.127 217.912  -0.000  -0.000  50.222

 ******    1 imaginary frequencies (negative Signs) ******

                      1                      2                      3
                     A'                     A"                     A'
 Frequencies --   -130.4491               322.8808               419.3689
 Red. masses --     12.0000                12.0000                12.0000
 Frc consts  --      0.1203                 0.7371                 1.2434
 IR Inten    --     81.3205                12.0323                 0.4761

                      4                      5                      6
                     A"                     A'                     A"
 Frequencies --    467.4950               477.7881               481.4995
 Red. masses --     12.0000                12.0000                12.0000
 Frc consts  --      1.5452                 1.6140                 1.6392
 IR Inten    --      0.2266                26.5406                 3.5449

                      7                      8                      9
                     A'                     A"                     A'
 Frequencies --    511.0048               523.4000              1074.3378
 Red. masses --     12.0000                12.0000                12.0000
 Frc consts  --      1.8462                 1.9369                 8.1604
 IR Inten    --     25.9875                 0.0173                 1.4311

                     10                     11                     12
                     A'                     A'                     A'
 Frequencies --   1178.4037              1202.4580              1389.6555
 Red. masses --     12.0000                12.0000                12.0000
 Frc consts  --      9.8179                10.2228                13.6536
 IR Inten    --     96.0109                 8.0450                88.2391

                     13                     14                     15
                     A'                     A'                     A'
 Frequencies --   1673.6836              1739.6951              1909.0926
 Red. masses --     12.0000                12.0000                12.0000
 Frc consts  --     19.8052                21.3982                25.7683
 IR Inten    --     52.5909                50.1810                18.7589

 - Thermochemistry -
 -------------------
 Temperature   298.150 Kelvin.  Pressure   1.00000 Atm.
 Atom     1 has atomic number  6 and mass  12.00000

 Molecular mass:    84.00000 amu.
 Principal axes and moments of inertia in atomic units:
                           1         2         3
     Eigenvalues --   302.98702 364.69627 667.68329
           X            0.63262   0.77446   0.00000
           Y            0.77446  -0.63262   0.00000
           Z            0.00000  -0.00000   1.00000
 This molecule is an asymmetric top.
 Rotational symmetry number  1.
 Rotational temperatures (Kelvin)      0.28587     0.23750     0.12972
 Rotational constants (GHZ):           5.95650     4.94861     2.70299
    1 imaginary frequencies ignored.
 Zero-point vibrational energy      79974.9 (Joules/Mol)
                                   19.11447 (Kcal/Mol)
 Warning -- explicit consideration of   7 degrees of freedom as
           vibrations may cause significant error
 Vibrational temperatures:    464.55   603.38   672.62   687.43   692.77
          (Kelvin)            735.22   753.05  1545.73  1695.46  1730.07
                             1999.40  2408.05  2503.03  2746.76

 Zero-point correction=                           0.030461 (Hartree/Particle)
 Thermal correction to Energy=                    0.035204
 Thermal correction to Enthalpy=                  0.036148
 Thermal correction to Gibbs Free Energy=         0.001865
 Sum of electronic and zero-point Energies=           -266.072253
 Sum of electronic and thermal Energies=              -266.067510
 Sum of electronic and thermal Enthalpies=            -266.066566
 Sum of electronic and thermal Free Energies=         -266.100849

                     E (Thermal)             CV                S
                      KCal/Mol        Cal/Mol-Kelvin    Cal/Mol-Kelvin
 Total                   22.091             16.280             72.155
 Electronic               0.000              0.000              1.377
 Translational            0.889              2.981             39.198
 Rotational               0.889              2.981             25.804
 Vibrational             20.313             10.318              5.776
 Vibration     1          0.708              1.630              1.295
 Vibration     2          0.782              1.428              0.894
 Vibration     3          0.825              1.322              0.745
 Vibration     4          0.834              1.299              0.716
 Vibration     5          0.838              1.291              0.706
 Vibration     6          0.866              1.226              0.631
 Vibration     7          0.878              1.198              0.602

 Normal termination of Gaussian 09 at Tue Nov  1 19:52:49 2016.
