 Gaussian 09, Revision E.01,
 Gaussian 09:  EM64L-G09RevE.01 30-Nov-2015

 -----------------------------------------
 #p b3lyp/6-311+G(3df) freq symmetry=Loose
 -----------------------------------------

 ---------
 b3lyp opt
 ---------
 Symbolic Z-matrix:
 Charge =  2 Multiplicity = 1

                         Standard orientation:
 ---------------------------------------------------------------------
 Center     Atomic      Atomic             Coordinates (Angstroms)
 Number     Number       Type             X           Y           Z
 ---------------------------------------------------------------------
      1          6           0        1.158085   -1.000363    0.631013
      2          6           0        0.604093    0.507484    0.634780
      3          6           0       -1.876341    0.001084   -0.000314
      4          6           0       -0.823149    0.490344    0.629957
      5          6           0       -0.823314   -0.492038   -0.628685
      6          6           0        1.157076    1.002034   -0.631102
      7          6           0        0.603551   -0.508545   -0.635649
 ---------------------------------------------------------------------

 SCF Done:  E(RB3LYP) =  -265.288331819     A.U. after   16 cycles

 The electronic state is 1-A.
 Alpha  occ. eigenvalues --  -10.87163 -10.87147 -10.80939 -10.80926 -10.80535
 Alpha  occ. eigenvalues --  -10.79098 -10.79081  -1.58117  -1.44539  -1.24584
 Alpha  occ. eigenvalues --   -1.19249  -1.19010  -1.06009  -0.96440  -0.94604
 Alpha  occ. eigenvalues --   -0.92161  -0.89882  -0.84840  -0.78934  -0.75147
 Alpha virt. eigenvalues --   -0.66998  -0.62778  -0.61694  -0.59495  -0.56144
 Alpha virt. eigenvalues --   -0.49600  -0.48526  -0.36505  -0.33855  -0.31716
 Alpha virt. eigenvalues --   -0.27928  -0.27268  -0.26298  -0.24624  -0.23807

 Mulliken charges:
               1
     1  C    0.177146
     2  C    0.166808
     3  C    0.241441
     4  C    0.537268
     5  C    0.537631
     6  C    0.176726
     7  C    0.162981
 Sum of Mulliken charges =   2.00000

 Dipole moment (field-independent basis, Debye):
    X=             -2.0046    Y=              0.0016    Z=              0.0008  Tot=              2.0046
 Quadrupole moment (field-independent basis, Debye-Ang):
   XX=            -19.4683   YY=            -28.2755   ZZ=            -28.1620
   XY=              0.0069   XZ=              0.0005   YZ=              3.5088

  Exact polarizability:  75.356  -0.011  48.685   0.002  -3.234  43.035
 Approx polarizability: 225.380  -0.067 128.142   0.005 -10.341 108.092

 ******    1 imaginary frequencies (negative Signs) ******

                      1                      2                      3
                      A                      A                      A
 Frequencies --   -116.6124               226.0173               407.2336
 Red. masses --     12.0000                12.0000                12.0000
 Frc consts  --      0.0961                 0.3612                 1.1725
 IR Inten    --      0.2904                 0.6237                14.5331

                      4                      5                      6
                      A                      A                      A
 Frequencies --    452.0232               525.2909               577.0965
 Red. masses --     12.0000                12.0000                12.0000
 Frc consts  --      1.4446                 1.9509                 2.3547
 IR Inten    --      3.5209                23.5848                12.4918

                      7                      8                      9
                      A                      A                      A
 Frequencies --    603.7183               645.3856               746.5019
 Red. masses --     12.0000                12.0000                12.0000
 Frc consts  --      2.5769                 2.9449                 3.9400
 IR Inten    --     19.2080                20.0098                17.8917

                     10                     11                     12
                      A                      A                      A
 Frequencies --    847.0122               986.9392              1031.5254
 Red. masses --     12.0000                12.0000                12.0000
 Frc consts  --      5.0724                 6.8867                 7.5230
 IR Inten    --     65.1015                47.0869                20.7309

                     13                     14                     15
                      A                      A                      A
 Frequencies --   1114.9820              1388.8947              1675.3754
 Red. masses --     12.0000                12.0000                12.0000
 Frc consts  --      8.7896                13.6386                19.8452
 IR Inten    --     79.7245                 4.7890               209.2679

 - Thermochemistry -
 -------------------
 Temperature   298.150 Kelvin.  Pressure   1.00000 Atm.
 Atom     1 has atomic number  6 and mass  12.00000

 Molecular mass:    84.00000 amu.
 Principal axes and moments of inertia in atomic units:
                           1         2         3
     Eigenvalues --   231.36425 457.70273 483.75473
           X            1.00000   0.00000   0.00000
           Y            0.00000   1.00000  -0.00000
           Z           -0.00000   0.00000   1.00000
 This molecule is an asymmetric top.
 Rotational symmetry number  1.
 Rotational temperatures (Kelvin)      0.37436     0.18924     0.17904
 Rotational constants (GHZ):           7.80043     3.94304     3.73069
    1 imaginary frequencies ignored.
 Zero-point vibrational energy      67158.3 (Joules/Mol)
                                   16.05123 (Kcal/Mol)
 Warning -- explicit consideration of   6 degrees of freedom as
           vibrations may cause significant error
 Vibrational temperatures:    325.19   585.92   650.36   755.78   830.31
          (Kelvin)            868.61   928.56  1074.05  1218.66  1419.98
                             1484.13  1604.21  1998.31  2410.49

 Zero-point correction=                           0.025579 (Hartree/Particle)
 Thermal correction to Energy=                    0.030437
 Thermal correction to Enthalpy=                  0.031381
 Thermal correction to Gibbs Free Energy=        -0.002295
 Sum of electronic and zero-point Energies=           -265.262753
 Sum of electronic and thermal Energies=              -265.257895
 Sum of electronic and thermal Enthalpies=            -265.256950
 Sum of electronic and thermal Free Energies=         -265.290627

                     E (Thermal)             CV                S
                      KCal/Mol        Cal/Mol-Kelvin    Cal/Mol-Kelvin
 Total                   19.100             17.282             70.878
 Electronic               0.000              0.000              0.000
 Translational            0.889              2.981             39.198
 Rotational               0.889              2.981             25.441
 Vibrational             17.322             11.321              6.238
 Vibration     1          0.650              1.801              1.910
 Vibration     2          0.772              1.455              0.936
 Vibration     3          0.811              1.356              0.790
 Vibration     4          0.880              1.194              0.598
 Vibration     5          0.934              1.081              0.491
 Vibration     6          0.962              1.024              0.443

 1\1\GINC-BELVIS12\Freq\RB3LYP\6-311+G(3df)\C7(2+)\ROOT\19-Jun-2016\0\\
 #p b3lyp/6-311+G(3df) freq symmetry=Loose\\b3lyp opt\\2,1\C,-1.059609,
 -1.261447,-0.161385\C,0.497611,-0.879754,-0.061887\C,0.257263,1.343155
 ,1.284682\C,0.675063,0.145265,0.915448\C,-0.451718,1.032275,0.213428\C
 ,0.745074,-0.395523,-1.424645\C,-0.663684,0.016028,-0.765642\\Version=
 EM64L-G09RevE.01\State=1-A\HF=-265.2883318\RMSD=4.673e-09\RMSF=1.705e-
 04\ZeroPoint=0.0255793\Thermal=0.0304372\Dipole=0.1083683,0.5642412,0.
 5402477\DipoleDeriv=0.6445,0.4123492,0.0662398,0.4219565,0.7593201,0.0

 Normal termination of Gaussian 09 at Sun Jun 19 14:41:45 2016.
