 Gaussian 09, Revision E.01,
 Gaussian 09:  EM64L-G09RevE.01 30-Nov-2015

 -----------------------------------------
 #p b3lyp/6-311+G(3df) freq symmetry=Loose
 -----------------------------------------

 ---------
 b3lyp opt
 ---------
 Symbolic Z-matrix:
 Charge =  1 Multiplicity = 2

                         Standard orientation:
 ---------------------------------------------------------------------
 Center     Atomic      Atomic             Coordinates (Angstroms)
 Number     Number       Type             X           Y           Z
 ---------------------------------------------------------------------
      1          6           0       -0.330927    2.236179    0.650978
      2          6           0        0.412343   -0.267149   -0.000000
      3          6           0       -0.330927    2.236179   -0.650978
      4          6           0        1.399971   -1.259760   -0.000000
      5          6           0       -0.045071   -1.581399    0.000000
      6          6           0       -1.105391   -2.415013    0.000000
      7          6           0       -0.000000    1.050911   -0.000000
 ---------------------------------------------------------------------

 SCF Done:  E(UB3LYP) =  -265.932046434     A.U. after   22 cycles

 The electronic state is 2-A".
 Alpha  occ. eigenvalues --  -10.57183 -10.53873 -10.53070 -10.51179 -10.50128
 Alpha  occ. eigenvalues --  -10.50016 -10.49888  -1.23092  -1.20165  -1.01724
 Alpha  occ. eigenvalues --   -0.98389  -0.76479  -0.76075  -0.72557  -0.66619
 Alpha  occ. eigenvalues --   -0.66532  -0.64554  -0.56059  -0.54487  -0.52073
 Alpha  occ. eigenvalues --   -0.52011
 Alpha virt. eigenvalues --   -0.43256  -0.37362  -0.30658  -0.28012  -0.24591
 Alpha virt. eigenvalues --   -0.21897  -0.15398  -0.11855  -0.11001  -0.10830
 Alpha virt. eigenvalues --   -0.08496  -0.07663  -0.06490  -0.06279  -0.05762

  Beta  occ. eigenvalues --  -10.57024 -10.53311 -10.52852 -10.51296 -10.49698
  Beta  occ. eigenvalues --  -10.49661 -10.49584  -1.22924  -1.20020  -0.99791
  Beta  occ. eigenvalues --   -0.97464  -0.75922  -0.75099  -0.71592  -0.66198
  Beta  occ. eigenvalues --   -0.64746  -0.64164  -0.55114  -0.52298  -0.52045
  Beta virt. eigenvalues --   -0.44023  -0.39330  -0.36640  -0.30229  -0.27234
  Beta virt. eigenvalues --   -0.23593  -0.19184  -0.15191  -0.11612  -0.10793
  Beta virt. eigenvalues --   -0.10723  -0.08415  -0.07473  -0.06299  -0.05898

 Mulliken charges and spin densities:
               1          2
     1  C   -0.111433   0.182323
     2  C    0.538427   0.174632
     3  C   -0.111433   0.182323
     4  C   -0.150020  -0.048071
     5  C    0.822362   0.205783
     6  C   -0.297962   0.288820
     7  C    0.310060   0.014188
 Sum of Mulliken charges =   1.00000   1.00000

 Dipole moment (field-independent basis, Debye):
    X=             -0.6801    Y=              0.9424    Z=              0.0000  Tot=              1.1621
 Quadrupole moment (field-independent basis, Debye-Ang):
   XX=            -36.7107   YY=            -21.1004   ZZ=            -35.7176
   XY=             -0.2615   XZ=              0.0000   YZ=              0.0000

  Exact polarizability:  62.095   0.543 160.492  -0.000   0.000  42.524
 Approx polarizability: 135.237  31.078 394.569  -0.000   0.000 116.696

 ******    1 imaginary frequencies (negative Signs) ******

                      1                      2                      3
                     A"                     A'                     A"
 Frequencies --    -37.6697               100.0417               142.3432
 Red. masses --     12.0000                12.0000                12.0000
 Frc consts  --      0.0100                 0.0708                 0.1433
 IR Inten    --      1.7969                 3.0171                19.6947

                      4                      5                      6
                     A'                     A"                     A"
 Frequencies --    237.2366               238.7289               508.2513
 Red. masses --     12.0000                12.0000                12.0000
 Frc consts  --      0.3979                 0.4029                 1.8264
 IR Inten    --      8.2167                 7.8760                11.2862

                      7                      8                      9
                     A'                     A'                     A"
 Frequencies --    556.8873               576.1168               744.3450
 Red. masses --     12.0000                12.0000                12.0000
 Frc consts  --      2.1926                 2.3467                 3.9172
 IR Inten    --      0.4035                12.5794                 0.8358

                     10                     11                     12
                     A'                     A'                     A'
 Frequencies --    778.7038               978.3284              1277.7444
 Red. masses --     12.0000                12.0000                12.0000
 Frc consts  --      4.2872                 6.7671                11.5430
 IR Inten    --     24.2036                23.4402               369.8889

                     13                     14                     15
                     A'                     A'                     A'
 Frequencies --   1451.7472              1669.6556              1774.7131
 Red. masses --     12.0000                12.0000                12.0000
 Frc consts  --     14.9009                19.7099                22.2683
 IR Inten    --    118.6278               515.5113               124.7919

 - Thermochemistry -
 -------------------
 Temperature   298.150 Kelvin.  Pressure   1.00000 Atm.
 Atom     1 has atomic number  6 and mass  12.00000

 Molecular mass:    84.00000 amu.
 Principal axes and moments of inertia in atomic units:
                           1         2         3
     Eigenvalues --   188.51012 941.297401057.16829
           X           -0.03492   0.99939   0.00000
           Y            0.99939   0.03492   0.00000
           Z            0.00000   0.00000   1.00000
 This molecule is an asymmetric top.
 Rotational symmetry number  1.
 Rotational temperatures (Kelvin)      0.45947     0.09202     0.08193
 Rotational constants (GHZ):           9.57371     1.91729     1.70715
    1 imaginary frequencies ignored.
 Zero-point vibrational energy      66003.0 (Joules/Mol)
                                   15.77510 (Kcal/Mol)
 Warning -- explicit consideration of   7 degrees of freedom as
           vibrations may cause significant error
 Vibrational temperatures:    143.94   204.80   341.33   343.48   731.26
          (Kelvin)            801.24   828.90  1070.95  1120.38  1407.59
                             1838.39  2088.74  2402.26  2553.41

 Zero-point correction=                           0.025139 (Hartree/Particle)
 Thermal correction to Energy=                    0.031190
 Thermal correction to Enthalpy=                  0.032134
 Thermal correction to Gibbs Free Energy=        -0.005623
 Sum of electronic and zero-point Energies=           -265.906907
 Sum of electronic and thermal Energies=              -265.900856
 Sum of electronic and thermal Enthalpies=            -265.899912
 Sum of electronic and thermal Free Energies=         -265.937669

                     E (Thermal)             CV                S
                      KCal/Mol        Cal/Mol-Kelvin    Cal/Mol-Kelvin
 Total                   19.572             18.977             79.467
 Electronic               0.000              0.000              1.377
 Translational            0.889              2.981             39.198
 Rotational               0.889              2.981             26.731
 Vibrational             17.795             13.016             12.161
 Vibration     1          0.604              1.949              3.454
 Vibration     2          0.616              1.911              2.772
 Vibration     3          0.656              1.784              1.824
 Vibration     4          0.657              1.781              1.812
 Vibration     5          0.863              1.232              0.638
 Vibration     6          0.912              1.125              0.530
 Vibration     7          0.933              1.083              0.493

 Normal termination of Gaussian 09 at Tue Nov  1 20:34:39 2016.
