 Gaussian 09, Revision E.01,
 Gaussian 09:  EM64L-G09RevE.01 30-Nov-2015

 ---------------------------------------------
 #p b3lyp/6-311++G(3df,2p) freq symmetry=Loose
 ---------------------------------------------

 ---------
 b3lyp opt
 ---------
 Symbolic Z-matrix:
 Charge =  0 Multiplicity = 3

                         Standard orientation:
 ---------------------------------------------------------------------
 Center     Atomic      Atomic             Coordinates (Angstroms)
 Number     Number       Type             X           Y           Z
 ---------------------------------------------------------------------
      1          9           0        0.000000    0.000000    0.867329
      2          9           0        0.000000    0.000000   -0.867329
 ---------------------------------------------------------------------

 SCF Done:  E(UB3LYP) =  -199.526510952     A.U. after   10 cycles

 Unable to determine electronic state:  partially filled degenerate orbitals.
 Alpha  occ. eigenvalues --  -24.80542 -24.80537  -1.29739  -1.21559  -0.61676
 Alpha  occ. eigenvalues --   -0.56613  -0.52013  -0.51683  -0.46783  -0.44171
 Alpha virt. eigenvalues --    0.10138   0.14151   0.16588   0.17453   0.24341
 Alpha virt. eigenvalues --    0.24928   0.25234   0.39237   0.87377   0.88965
 Alpha virt. eigenvalues --    0.93721   0.93724   1.11011   1.11016   1.16361

  Beta  occ. eigenvalues --  -24.76906 -24.76904  -1.20789  -1.11856  -0.48925
  Beta  occ. eigenvalues --   -0.48811  -0.43268  -0.43216
  Beta virt. eigenvalues --   -0.31457  -0.22567   0.10857   0.15436   0.17850
  Beta virt. eigenvalues --    0.18123   0.25243   0.25542   0.26152   0.39779
  Beta virt. eigenvalues --    0.89382   0.89672   0.94938   0.95021   1.12629

 Mulliken charges and spin densities:
               1          2
     1  F   -0.000000   1.000000
     2  F   -0.000000   1.000000
 Sum of Mulliken charges =  -0.00000   2.00000

 Dipole moment (field-independent basis, Debye):
    X=             -0.0000    Y=              0.0000    Z=             -0.0000  Tot=              0.0000
 Quadrupole moment (field-independent basis, Debye-Ang):
   XX=             -9.2783   YY=            -10.0336   ZZ=             -9.2564
   XY=              0.0000   XZ=              0.0000   YZ=              0.0000

  Exact polarizability:   6.055  -0.000   6.073   0.000  -0.000  47.890
 Approx polarizability:   7.294  -0.000   6.879  -0.000  -0.000  72.189

                      1
                     SGG
 Frequencies --    640.8893
 Red. masses --     18.9984
 Frc consts  --      4.5976
 IR Inten    --      0.0000

 - Thermochemistry -
 -------------------
 Temperature   298.150 Kelvin.  Pressure   1.00000 Atm.
 Atom     1 has atomic number  9 and mass  18.99840

 Molecular mass:    37.99681 amu.
 Principal axes and moments of inertia in atomic units:
                           1         2         3
     Eigenvalues --     0.00000 102.07340 102.07340
           X           -0.00000   1.00000  -0.00000
           Y            0.00000   0.00000   1.00000
           Z            1.00000   0.00000  -0.00000
 This molecule is a prolate symmetric top.
 Rotational symmetry number  2.
 Rotational temperature (Kelvin)      0.84854
 Rotational constant (GHZ):          17.680818
 Zero-point vibrational energy       3833.4 (Joules/Mol)
                                    0.91620 (Kcal/Mol)
 Vibrational temperatures:    922.10
          (Kelvin)

 Zero-point correction=                           0.001460 (Hartree/Particle)
 Thermal correction to Energy=                    0.003959
 Thermal correction to Enthalpy=                  0.004904
 Thermal correction to Gibbs Free Energy=        -0.019642
 Sum of electronic and zero-point Energies=           -199.525051
 Sum of electronic and thermal Energies=              -199.522552
 Sum of electronic and thermal Enthalpies=            -199.521607
 Sum of electronic and thermal Free Energies=         -199.546153

                     E (Thermal)             CV                S
                      KCal/Mol        Cal/Mol-Kelvin    Cal/Mol-Kelvin
 Total                    2.485              5.914             51.660
 Electronic               0.000              0.000              2.183
 Translational            0.889              2.981             36.834
 Rotational               0.592              1.987             12.258
 Vibrational              1.003              0.946              0.384

 Optimization completed.
    -- Stationary point found.
 Normal termination of Gaussian 09 at Sun Jun 19 04:39:11 2016.
