 Gaussian 09, Revision E.01,
 Gaussian 09:  EM64L-G09RevE.01 30-Nov-2015

 ---------------------------------------------
 #p b3lyp/6-311++G(3df,2p) freq symmetry=Loose
 ---------------------------------------------

 ---------
 b3lyp opt
 ---------
 Symbolic Z-matrix:
 Charge =  0 Multiplicity = 2

                         Standard orientation:
 ---------------------------------------------------------------------
 Center     Atomic      Atomic             Coordinates (Angstroms)
 Number     Number       Type             X           Y           Z
 ---------------------------------------------------------------------
      1          9           0        0.000000   -0.000000    1.113055
      2          9           0       -0.000000   -0.921884   -0.556528
      3          9           0        0.000000    0.921884   -0.556528
 ---------------------------------------------------------------------

 SCF Done:  E(UB3LYP) =  -299.288947839     A.U. after   28 cycles

 The electronic state is 2-A1.
 Alpha  occ. eigenvalues --  -24.81538 -24.78567 -24.78566  -1.29059  -1.21516
 Alpha  occ. eigenvalues --   -1.17784  -0.61793  -0.56940  -0.52286  -0.48401
 Alpha  occ. eigenvalues --   -0.47454  -0.47281  -0.46666  -0.45484
 Alpha virt. eigenvalues --   -0.27443   0.09626   0.13123   0.13919   0.16887
 Alpha virt. eigenvalues --    0.22578   0.23153   0.24266   0.24698   0.28719
 Alpha virt. eigenvalues --    0.31933   0.41930   0.42272   0.79778   0.82497

  Beta  occ. eigenvalues --  -24.78622 -24.78620 -24.77801  -1.25727  -1.17860
  Beta  occ. eigenvalues --   -1.15375  -0.58677  -0.51026  -0.48657  -0.47262
  Beta  occ. eigenvalues --   -0.45526  -0.45321  -0.43932
  Beta virt. eigenvalues --   -0.29289  -0.26433   0.09916   0.13705   0.14243
  Beta virt. eigenvalues --    0.17038   0.23022   0.23451   0.24484   0.24677
  Beta virt. eigenvalues --    0.29094   0.32184   0.42183   0.42350   0.80216

 Mulliken charges and spin densities:
               1          2
     1  F    0.028519   1.026050
     2  F   -0.014260  -0.013025
     3  F   -0.014260  -0.013025
 Sum of Mulliken charges =  -0.00000   1.00000

 Dipole moment (field-independent basis, Debye):
    X=             -0.0000    Y=             -0.0000    Z=              0.1894  Tot=              0.1894
 Quadrupole moment (field-independent basis, Debye-Ang):
   XX=            -14.9885   YY=            -13.9577   ZZ=            -13.6396
   XY=             -0.0000   XZ=              0.0000   YZ=              0.0000

  Exact polarizability:   9.048   0.000  25.808   0.000  -0.000  28.267
 Approx polarizability:  10.610   0.000  55.512  -0.000  -0.000  58.413

                      1                      2                      3
                     A1                     B2                     A1
 Frequencies --    325.4415               423.9412               576.9595
 Red. masses --     18.9984                18.9984                18.9984
 Frc consts  --      1.1855                 2.0118                 3.7261
 IR Inten    --      3.7884                 0.9551                 0.5064

 - Thermochemistry -
 -------------------
 Temperature   298.150 Kelvin.  Pressure   1.00000 Atm.
 Atom     1 has atomic number  9 and mass  18.99840

 Molecular mass:    56.99521 amu.
 Principal axes and moments of inertia in atomic units:
                           1         2         3
     Eigenvalues --   115.31805 126.07808 241.39613
           X           -0.00000   0.00000   1.00000
           Y           -0.00000   1.00000  -0.00000
           Z            1.00000   0.00000   0.00000
 This molecule is an asymmetric top.
 Rotational symmetry number  2.
 Rotational temperatures (Kelvin)      0.75109     0.68699     0.35880
 Rotational constants (GHZ):          15.65012    14.31447     7.47626
 Zero-point vibrational energy       7933.3 (Joules/Mol)
                                    1.89610 (Kcal/Mol)
 Warning -- explicit consideration of   3 degrees of freedom as
           vibrations may cause significant error
 Vibrational temperatures:    468.24   609.96   830.12
          (Kelvin)

 Zero-point correction=                           0.003022 (Hartree/Particle)
 Thermal correction to Energy=                    0.006703
 Thermal correction to Enthalpy=                  0.007648
 Thermal correction to Gibbs Free Energy=        -0.022510
 Sum of electronic and zero-point Energies=           -299.285926
 Sum of electronic and thermal Energies=              -299.282244
 Sum of electronic and thermal Enthalpies=            -299.281300
 Sum of electronic and thermal Free Energies=         -299.311458

                     E (Thermal)             CV                S
                      KCal/Mol        Cal/Mol-Kelvin    Cal/Mol-Kelvin
 Total                    4.206             10.085             63.472
 Electronic               0.000              0.000              1.377
 Translational            0.889              2.981             38.042
 Rotational               0.889              2.981             21.400
 Vibrational              2.429              4.124              2.652
 Vibration     1          0.710              1.625              1.283
 Vibration     2          0.786              1.418              0.879
 Vibration     3          0.933              1.081              0.491

 Optimization completed.
    -- Stationary point found.
 Normal termination of Gaussian 09 at Sat Jul  2 15:15:34 2016.
