 Gaussian 09, Revision E.01,
 Gaussian 09:  EM64L-G09RevE.01 30-Nov-2015

 ---------------------------------------------
 #p b3lyp/6-311++G(3df,2p) freq symmetry=Loose
 ---------------------------------------------

 ---------
 b3lyp opt
 ---------
 Symbolic Z-matrix:
 Charge =  0 Multiplicity = 1

                         Standard orientation:
 ---------------------------------------------------------------------
 Center     Atomic      Atomic             Coordinates (Angstroms)
 Number     Number       Type             X           Y           Z
 ---------------------------------------------------------------------
      1          9           0       -0.000000    1.635939    0.000000
      2          9           0       -1.416764   -0.817969    0.000000
      3          9           0        1.416764   -0.817969    0.000000
      4          9           0        0.000000    0.000000    0.000000
 ---------------------------------------------------------------------

 SCF Done:  E(RB3LYP) =  -399.041308161     A.U. after   14 cycles

 The electronic state is 1-A1'.
 Alpha  occ. eigenvalues --  -24.96012 -24.77654 -24.77654 -24.77654  -1.40191
 Alpha  occ. eigenvalues --   -1.21809  -1.21809  -1.15503  -0.66799  -0.66799
 Alpha  occ. eigenvalues --   -0.62368  -0.47626  -0.47626  -0.47372  -0.47372
 Alpha  occ. eigenvalues --   -0.46514  -0.45094  -0.42703
 Alpha virt. eigenvalues --   -0.29339  -0.29339   0.08869   0.12959   0.12959
 Alpha virt. eigenvalues --    0.14626   0.18226   0.18226   0.21768   0.22456
 Alpha virt. eigenvalues --    0.22456   0.28833   0.32049   0.34938   0.34938

 Mulliken charges:
               1
     1  F   -0.148954
     2  F   -0.148954
     3  F   -0.148954
     4  F    0.446862
 Sum of Mulliken charges =  -0.00000

 Dipole moment (field-independent basis, Debye):
    X=              0.0000    Y=              0.0000    Z=             -0.0000  Tot=              0.0000
 Quadrupole moment (field-independent basis, Debye-Ang):
   XX=            -20.2222   YY=            -20.2222   ZZ=            -19.7637
   XY=              0.0000   XZ=             -0.0000   YZ=             -0.0000

  Exact polarizability:  39.985  -0.000  39.985  -0.000   0.000  11.375
 Approx polarizability: 133.171  -0.000 133.171   0.000  -0.000  13.671

                      1                      2                      3
                     E'                     E'                     A2"
 Frequencies --    148.5312               148.5371               352.8848
 Red. masses --     18.9984                18.9984                18.9984
 Frc consts  --      0.2469                 0.2470                 1.3939
 IR Inten    --      5.6518                 5.6534                 3.3752

                      4                      5                      6
                     E'                     E'                     A1'
 Frequencies --    474.1027               474.1205               515.6629
 Red. masses --     18.9984                18.9984                18.9984
 Frc consts  --      2.5160                 2.5162                 2.9765
 IR Inten    --    147.3738               147.3536                 0.0000

 - Thermochemistry -
 -------------------
 Temperature   298.150 Kelvin.  Pressure   1.00000 Atm.
 Atom     1 has atomic number  9 and mass  18.99840

 Molecular mass:    75.99361 amu.
 Principal axes and moments of inertia in atomic units:
                           1         2         3
     Eigenvalues --   272.35801 272.35801 544.71603
           X           -0.65465   0.75593   0.00000
           Y            0.75593   0.65465   0.00000
           Z           -0.00000   0.00000   1.00000
 This molecule is an oblate symmetric top.
 Rotational symmetry number  6.
 Rotational temperatures (Kelvin)      0.31801     0.31801     0.15901
 Rotational constants (GHZ):           6.62636     6.62636     3.31318
 Zero-point vibrational energy      12643.6 (Joules/Mol)
                                    3.02188 (Kcal/Mol)
 Warning -- explicit consideration of   6 degrees of freedom as
           vibrations may cause significant error
 Vibrational temperatures:    213.70   213.71   507.72   682.13   682.15
          (Kelvin)            741.92

 Zero-point correction=                           0.004816 (Hartree/Particle)
 Thermal correction to Energy=                    0.009999
 Thermal correction to Enthalpy=                  0.010943
 Thermal correction to Gibbs Free Energy=        -0.021913
 Sum of electronic and zero-point Energies=           -399.036492
 Sum of electronic and thermal Energies=              -399.031309
 Sum of electronic and thermal Enthalpies=            -399.030365
 Sum of electronic and thermal Free Energies=         -399.063222

                     E (Thermal)             CV                S
                      KCal/Mol        Cal/Mol-Kelvin    Cal/Mol-Kelvin
 Total                    6.274             15.170             69.152
 Electronic               0.000              0.000              0.000
 Translational            0.889              2.981             38.900
 Rotational               0.889              2.981             21.645
 Vibrational              4.497              9.208              8.607
 Vibration     1          0.618              1.904              2.691
 Vibration     2          0.618              1.904              2.691
 Vibration     3          0.729              1.569              1.153
 Vibration     4          0.831              1.308              0.726
 Vibration     5          0.831              1.307              0.726
 Vibration     6          0.871              1.215              0.620

 Optimization completed.
    -- Stationary point found.
 Normal termination of Gaussian 09 at Sat Jul  2 15:41:12 2016.
