 Gaussian 09, Revision E.01,
 Gaussian 09:  EM64L-G09RevE.01 30-Nov-2015

 ---------------------------------------------
 #p b3lyp/6-311++G(3df,2p) freq symmetry=Loose
 ---------------------------------------------

 ---------
 b3lyp opt
 ---------
 Symbolic Z-matrix:
 Charge =  1 Multiplicity = 2

                         Standard orientation:
 ---------------------------------------------------------------------
 Center     Atomic      Atomic             Coordinates (Angstroms)
 Number     Number       Type             X           Y           Z
 ---------------------------------------------------------------------
      1          1           0        0.000000    0.000000    0.557117
      2          1           0        0.000000    0.000000   -0.557117
 ---------------------------------------------------------------------

 SCF Done:  E(UB3LYP) = -0.609942328972     A.U. after    5 cycles

 The electronic state is 2-SGG.
 Alpha  occ. eigenvalues --   -0.89880
 Alpha virt. eigenvalues --   -0.43869  -0.16482  -0.09580   0.04839   0.04839
 Alpha virt. eigenvalues --    0.08659   0.16123   0.35722   0.43439   0.43439
 Alpha virt. eigenvalues --    0.90583   1.96206   1.97413   2.83656   3.13116

 Mulliken charges and spin densities:
               1          2
     1  H    0.500000   0.500000
     2  H    0.500000   0.500000
 Sum of Mulliken charges =   1.00000   1.00000

 Dipole moment (field-independent basis, Debye):
    X=              0.0000    Y=             -0.0000    Z=             -0.0000  Tot=              0.0000
 Quadrupole moment (field-independent basis, Debye-Ang):
   XX=             -0.8734   YY=             -0.8734   ZZ=              1.3060
   XY=             -0.0000   XZ=             -0.0000   YZ=              0.0000

  Exact polarizability:   1.472  -0.000   1.472  -0.000  -0.000   5.361
 Approx polarizability:   1.300  -0.000   1.300  -0.000  -0.000   5.377

                      1
                     SGG
 Frequencies --   1978.9684
 Red. masses --      1.0078
 Frc consts  --      2.3255
 IR Inten    --      0.0000

 - Thermochemistry -
 -------------------
 Temperature   298.150 Kelvin.  Pressure   1.00000 Atm.
 Atom     1 has atomic number  1 and mass   1.00783

 Molecular mass:     2.01565 amu.
 Principal axes and moments of inertia in atomic units:
                           1         2         3
     Eigenvalues --     0.00000   2.23412   2.23412
           X           -0.00000   1.00000  -0.00000
           Y            0.00000   0.00000   1.00000
           Z            1.00000   0.00000  -0.00000
 This molecule is a prolate symmetric top.
 Rotational symmetry number  2.
 Rotational temperature (Kelvin)     38.76872
 Rotational constant (GHZ):         807.810020
 Zero-point vibrational energy      11836.9 (Joules/Mol)
                                    2.82908 (Kcal/Mol)
 Vibrational temperatures:   2847.29
          (Kelvin)

 Zero-point correction=                           0.004508 (Hartree/Particle)
 Thermal correction to Energy=                    0.006870
 Thermal correction to Enthalpy=                  0.007814
 Thermal correction to Gibbs Free Energy=        -0.008399
 Sum of electronic and zero-point Energies=             -0.605434
 Sum of electronic and thermal Energies=                -0.603073
 Sum of electronic and thermal Enthalpies=              -0.602129
 Sum of electronic and thermal Free Energies=           -0.618341

                     E (Thermal)             CV                S
                      KCal/Mol        Cal/Mol-Kelvin    Cal/Mol-Kelvin
 Total                    4.311              4.981             34.123
 Electronic               0.000              0.000              1.377
 Translational            0.889              2.981             28.080
 Rotational               0.592              1.987              4.664
 Vibrational              2.829              0.013              0.001

 Optimization completed.
    -- Stationary point found.
 Normal termination of Gaussian 09 at Sun Jun 19 04:42:37 2016.
