 Gaussian 09, Revision E.01,
 Gaussian 09:  EM64L-G09RevE.01 30-Nov-2015

 ---------------------------------------------
 #p b3lyp/6-311++G(3df,2p) freq symmetry=Loose
 ---------------------------------------------

 ---------
 b3lyp opt
 ---------
 Symbolic Z-matrix:
 Charge =  2 Multiplicity = 1

                         Standard orientation:
 ---------------------------------------------------------------------
 Center     Atomic      Atomic             Coordinates (Angstroms)
 Number     Number       Type             X           Y           Z
 ---------------------------------------------------------------------
      1          6           0        0.000000    0.000000    0.000000
      2          1           0        0.000000    0.000000    1.184427
      3          1           0        0.000000    0.000000   -1.184427
 ---------------------------------------------------------------------

 SCF Done:  E(RB3LYP) =  -37.9905740968     A.U. after    6 cycles

 The electronic state is 1-SGG.
 Alpha  occ. eigenvalues --  -11.25003  -1.44459  -1.24811
 Alpha virt. eigenvalues --   -0.93122  -0.93122  -0.62838  -0.45973  -0.39134
 Alpha virt. eigenvalues --   -0.32740  -0.32740  -0.29782  -0.29782  -0.22282
 Alpha virt. eigenvalues --   -0.22282  -0.21870  -0.20642  -0.14537  -0.11846

 Mulliken charges:
               1
     1  C    1.018230
     2  H    0.490885
     3  H    0.490885
 Sum of Mulliken charges =   2.00000

 Dipole moment (field-independent basis, Debye):
    X=              0.0000    Y=              0.0000    Z=             -0.0000  Tot=              0.0000
 Quadrupole moment (field-independent basis, Debye-Ang):
   XX=             -3.3075   YY=             -3.3075   ZZ=              2.5602
   XY=              0.0000   XZ=             -0.0000   YZ=             -0.0000

  Exact polarizability:   5.036   0.000   5.036   0.000  -0.000   7.844
 Approx polarizability:   6.747  -0.000   6.747  -0.000  -0.000   9.188

                      1                      2                      3
                     PIU                    PIU                    SGG
 Frequencies --   1127.7691              1127.7691              2282.2922
 Red. masses --      1.1607                 1.1607                 1.0078
 Frc consts  --      0.8698                 0.8698                 3.0930
 IR Inten    --     66.8037                66.8037                 0.0000

                      4
                     SGU
 Frequencies --   2419.1843
 Red. masses --      1.1607
 Frc consts  --      4.0024
 IR Inten    --   1044.6168

 - Thermochemistry -
 -------------------
 Temperature   298.150 Kelvin.  Pressure   1.00000 Atm.
 Atom     1 has atomic number  6 and mass  12.00000

 Molecular mass:    14.01565 amu.
 Principal axes and moments of inertia in atomic units:
                           1         2         3
     Eigenvalues --     0.00000  10.09786  10.09786
           X           -0.00000   1.00000  -0.00000
           Y            0.00000   0.00000   1.00000
           Z            1.00000   0.00000  -0.00000
 This molecule is a prolate symmetric top.
 Rotational symmetry number  2.
 Rotational temperature (Kelvin)      8.57744
 Rotational constant (GHZ):         178.725063
 Zero-point vibrational energy      41612.2 (Joules/Mol)
                                    9.94555 (Kcal/Mol)
 Vibrational temperatures:   1622.61  1622.61  3283.71  3480.66
          (Kelvin)

 Zero-point correction=                           0.015849 (Hartree/Particle)
 Thermal correction to Energy=                    0.018255
 Thermal correction to Enthalpy=                  0.019199
 Thermal correction to Gibbs Free Energy=        -0.000583
 Sum of electronic and zero-point Energies=            -37.974725
 Sum of electronic and thermal Energies=               -37.972319
 Sum of electronic and thermal Enthalpies=             -37.971375
 Sum of electronic and thermal Free Energies=          -37.991157

                     E (Thermal)             CV                S
                      KCal/Mol        Cal/Mol-Kelvin    Cal/Mol-Kelvin
 Total                   11.455              5.488             41.634
 Electronic               0.000              0.000              0.000
 Translational            0.889              2.981             33.861
 Rotational               0.592              1.987              7.661
 Vibrational              9.974              0.520              0.112

 Optimization completed.
    -- Stationary point found.
 Normal termination of Gaussian 09 at Sun Jun 19 04:42:23 2016.
