 Gaussian 09, Revision E.01,
 Gaussian 09:  EM64L-G09RevE.01 30-Nov-2015

 ---------------------------------------------
 #p b3lyp/6-311++G(3df,2p) freq symmetry=Loose
 ---------------------------------------------

 ---------
 b3lyp opt
 ---------
 Symbolic Z-matrix:
 Charge =  1 Multiplicity = 4

                         Standard orientation:
 ---------------------------------------------------------------------
 Center     Atomic      Atomic             Coordinates (Angstroms)
 Number     Number       Type             X           Y           Z
 ---------------------------------------------------------------------
      1          6           0        0.000000    0.000000    0.877749
      2          6           0       -0.000000   -0.000000   -0.523157
      3          1           0       -0.000000   -0.950392   -1.063783
      4          1           0        0.000000    0.950392   -1.063783
 ---------------------------------------------------------------------

 SCF Done:  E(UB3LYP) =  -76.8198263950     A.U. after   11 cycles

 The electronic state is 4-A2.
 Alpha  occ. eigenvalues --  -10.62341 -10.58828  -1.13205  -0.88809  -0.78700
 Alpha  occ. eigenvalues --   -0.71351  -0.65928  -0.55826
 Alpha virt. eigenvalues --   -0.38094  -0.18622  -0.14283  -0.13616  -0.11476
 Alpha virt. eigenvalues --   -0.09951  -0.07871  -0.06740  -0.05034  -0.03293
 Alpha virt. eigenvalues --   -0.01713  -0.01142   0.00315   0.00673   0.02983

  Beta  occ. eigenvalues --  -10.58119 -10.57793  -1.06071  -0.82326  -0.75941
  Beta virt. eigenvalues --   -0.50046  -0.47886  -0.35158  -0.28106  -0.17726
  Beta virt. eigenvalues --   -0.13842  -0.12315  -0.10519  -0.09059  -0.06865
  Beta virt. eigenvalues --   -0.04902  -0.03964  -0.02414  -0.01239   0.00922

 Mulliken charges and spin densities:
               1          2
     1  C    0.339321   2.384097
     2  C    0.170031   0.524529
     3  H    0.245324   0.045687
     4  H    0.245324   0.045687
 Sum of Mulliken charges =   1.00000   3.00000

 Dipole moment (field-independent basis, Debye):
    X=              0.0000    Y=              0.0000    Z=             -0.5943  Tot=              0.5943
 Quadrupole moment (field-independent basis, Debye-Ang):
   XX=             -9.7982   YY=             -8.8224   ZZ=             -5.4902
   XY=              0.0000   XZ=             -0.0000   YZ=             -0.0000

  Exact polarizability:  12.054  -0.000  14.902  -0.000   0.000  23.170
 Approx polarizability:  16.175   0.000  18.295   0.000  -0.000  34.248

                      1                      2                      3
                     B2                     B1                     A1
 Frequencies --    999.2584              1051.0933              1304.4546
 Red. masses --      1.2859                 1.3197                 6.3099
 Frc consts  --      0.7565                 0.8590                 6.3260
 IR Inten    --      3.9290                27.5378                 6.4484

                      4                      5                      6
                     A1                     A1                     B2
 Frequencies --   1404.2693              3022.7128              3145.8262
 Red. masses --      1.1330                 1.0457                 1.1236
 Frc consts  --      1.3163                 5.6295                 6.5516
 IR Inten    --      9.5131                43.8777                72.0789

 - Thermochemistry -
 -------------------
 Temperature   298.150 Kelvin.  Pressure   1.00000 Atm.
 Atom     1 has atomic number  6 and mass  12.00000

 Molecular mass:    26.01565 amu.
 Principal axes and moments of inertia in atomic units:
                           1         2         3
     Eigenvalues --     6.50157  52.27804  58.77961
           X            0.00000  -0.00000   1.00000
           Y            0.00000   1.00000   0.00000
           Z            1.00000  -0.00000  -0.00000
 This molecule is an asymmetric top.
 Rotational symmetry number  2.
 Rotational temperatures (Kelvin)     13.32198     1.65679     1.47353
 Rotational constants (GHZ):         277.58540    34.52197    30.70352
 Zero-point vibrational energy      65361.6 (Joules/Mol)
                                   15.62181 (Kcal/Mol)
 Vibrational temperatures:   1437.71  1512.29  1876.82  2020.43  4349.00
          (Kelvin)           4526.14

 Zero-point correction=                           0.024895 (Hartree/Particle)
 Thermal correction to Energy=                    0.027813
 Thermal correction to Enthalpy=                  0.028757
 Thermal correction to Gibbs Free Energy=         0.002654
 Sum of electronic and zero-point Energies=            -76.794931
 Sum of electronic and thermal Energies=               -76.792013
 Sum of electronic and thermal Enthalpies=             -76.791069
 Sum of electronic and thermal Free Energies=          -76.817172

                     E (Thermal)             CV                S
                      KCal/Mol        Cal/Mol-Kelvin    Cal/Mol-Kelvin
 Total                   17.453              6.915             54.938
 Electronic               0.000              0.000              2.755
 Translational            0.889              2.981             35.704
 Rotational               0.889              2.981             16.265
 Vibrational             15.675              0.953              0.214

 Optimization completed.
    -- Stationary point found.
 Normal termination of Gaussian 09 at Sun Jun 19 04:40:47 2016.
