 Gaussian 09, Revision C.01,
 Gaussian 09:  AM64L-G09RevC.01 23-Sep-2011

 ---------------------------------------------
 #p b3lyp/6-311++G(3df,2p) freq symmetry=Loose
 ---------------------------------------------

 (Enter /home/nestor/.gaussian09/l101.exe)
 ---------
 b3lyp opt
 ---------
 Charge =  0 Multiplicity = 1

                         Standard orientation:
 ---------------------------------------------------------------------
 Center     Atomic      Atomic             Coordinates (Angstroms)
 Number     Number       Type             X           Y           Z
 ---------------------------------------------------------------------
      1          6           0        0.000000    0.000000    0.598109
      2          6           0        0.000000    0.000000   -0.598109
      3          1           0        0.000000    0.000000    1.660289
      4          1           0        0.000000    0.000000   -1.660289
 ---------------------------------------------------------------------

 SCF Done:  E(RB3LYP) =  -77.3620094498     A.U. after    8 cycles

 The electronic state is 1-SGG.
 Alpha  occ. eigenvalues --  -10.18247 -10.18002  -0.76101  -0.57443  -0.50555
 Alpha  occ. eigenvalues --   -0.30208  -0.30208
 Alpha virt. eigenvalues --    0.00416   0.01174   0.01174   0.01205   0.06606
 Alpha virt. eigenvalues --    0.06606   0.06778   0.10002   0.12618   0.13290
 Alpha virt. eigenvalues --    0.13290   0.14961   0.23228   0.25638   0.30855

 Mulliken atomic charges:
              1
     1  C   -0.285412
     2  C   -0.285412
     3  H    0.285412
     4  H    0.285412
 Sum of Mulliken atomic charges =   0.00000

 Dipole moment (field-independent basis, Debye):
    X=              0.0000    Y=              0.0000    Z=              0.0000  Tot=              0.0000
 Quadrupole moment (field-independent basis, Debye-Ang):
   XX=            -13.7798   YY=            -13.7798   ZZ=             -7.1301
   XY=              0.0000   XZ=              0.0000   YZ=              0.0000

  Exact polarizability:  18.571   0.000  18.571   0.000   0.000  31.220
 Approx polarizability:  23.534   0.000  23.534   0.000   0.000  55.234

                     1                      2                      3
                    PIG                    PIG                    PIU
 Frequencies --   659.4392               659.4392               765.5414
 Red. masses --     1.5745                 1.5745                 1.0848
 Frc consts  --     0.4034                 0.4034                 0.3746
 IR Inten    --     0.0000                 0.0000                99.6824

                     4                      5                      6
                    PIU                    SGG                    SGU
 Frequencies --   765.5414              2066.1167              3408.1288
 Red. masses --     1.0848                 3.8009                 1.0848
 Frc consts  --     0.3746                 9.5598                 7.4240
 IR Inten    --    99.6824                 0.0000                90.7581

                     7
                    SGG
 Frequencies --  3508.7083
 Red. masses --     1.2308
 Frc consts  --     8.9276
 IR Inten    --     0.0000

 - Thermochemistry -
 -------------------
 Temperature   298.150 Kelvin.  Pressure   1.00000 Atm.
 Atom     1 has atomic number  6 and mass  12.00000

 Molecular mass:    26.01565 amu.
 Principal axes and moments of inertia in atomic units:
                           1         2         3
     Eigenvalues --     0.00000  50.50153  50.50153
           X            0.00000   0.99941  -0.03442
           Y            0.00000   0.03442   0.99941
           Z            1.00000   0.00000   0.00000
 This molecule is a prolate symmetric top.
 Rotational symmetry number  2.
 Rotational temperature (Kelvin)      1.71507
 Rotational constant (GHZ):          35.736369
 Zero-point vibrational energy      70776.5 (Joules/Mol)
                                   16.91600 (Kcal/Mol)
 Vibrational temperatures:    948.78   948.78  1101.44  1101.44  2972.68
          (Kelvin)           4903.53  5048.24

 Zero-point correction=                           0.026957 (Hartree/Particle)
 Thermal correction to Energy=                    0.029756
 Thermal correction to Enthalpy=                  0.030700
 Thermal correction to Gibbs Free Energy=         0.008010
 Sum of electronic and zero-point Energies=            -77.335052
 Sum of electronic and thermal Energies=               -77.332253
 Sum of electronic and thermal Enthalpies=             -77.331309
 Sum of electronic and thermal Free Energies=          -77.353999

                     E (Thermal)             CV                S
                      KCal/Mol        Cal/Mol-Kelvin    Cal/Mol-Kelvin
 Total                   18.672              8.213             47.756
 Electronic               0.000              0.000              0.000
 Translational            0.889              2.981             35.704
 Rotational               0.592              1.987             10.860
 Vibrational             17.191              3.245              1.191

 Optimization completed.
    -- Stationary point found.
 Normal termination of Gaussian 09 at Fri Jul  8 16:29:50 2016.
