 Gaussian 09, Revision E.01,
 Gaussian 09:  EM64L-G09RevE.01 30-Nov-2015

 ---------------------------------------------
 #p b3lyp/6-311++G(3df,2p) freq symmetry=Loose
 ---------------------------------------------

 ---------
 b3lyp opt
 ---------
 Symbolic Z-matrix:
 Charge =  1 Multiplicity = 2

                         Standard orientation:
 ---------------------------------------------------------------------
 Center     Atomic      Atomic             Coordinates (Angstroms)
 Number     Number       Type             X           Y           Z
 ---------------------------------------------------------------------
      1          1           0        0.822469   -0.000000    1.236444
      2          1           0       -0.822469    0.000000    1.236444
      3          6           0       -0.000000    0.000000    0.403732
      4          9           0        0.000000    1.084849   -0.271960
      5          9           0       -0.000000   -1.084849   -0.271960
 ---------------------------------------------------------------------

 SCF Done:  E(UB3LYP) =  -238.618942408     A.U. after   10 cycles

 The electronic state is 2-B1.
 Alpha  occ. eigenvalues --  -25.06193 -25.06193 -10.70403  -1.64396  -1.58395
 Alpha  occ. eigenvalues --   -1.06051  -0.92569  -0.91364  -0.91159  -0.79773
 Alpha  occ. eigenvalues --   -0.76549  -0.76155  -0.67893
 Alpha virt. eigenvalues --   -0.22484  -0.20254  -0.18655  -0.18620  -0.10516
 Alpha virt. eigenvalues --   -0.07928  -0.06230  -0.05863  -0.04653  -0.03537
 Alpha virt. eigenvalues --    0.01108   0.01841   0.02751   0.05073   0.11343

  Beta  occ. eigenvalues --  -25.05478 -25.05477 -10.70107  -1.63040  -1.56903
  Beta  occ. eigenvalues --   -1.03233  -0.91123  -0.90702  -0.86612  -0.75505
  Beta  occ. eigenvalues --   -0.74955  -0.74902
  Beta virt. eigenvalues --   -0.55213  -0.21483  -0.18147  -0.17950  -0.17574
  Beta virt. eigenvalues --   -0.09539  -0.07233  -0.05548  -0.05443  -0.03990
  Beta virt. eigenvalues --   -0.03208   0.01218   0.02396   0.03024   0.05415

 Mulliken charges and spin densities:
               1          2
     1  H    0.309341   0.230373
     2  H    0.309341   0.230373
     3  C    0.582575   0.168699
     4  F   -0.100628   0.185278
     5  F   -0.100628   0.185278
 Sum of Mulliken charges =   1.00000   1.00000

 Dipole moment (field-independent basis, Debye):
    X=             -0.0000    Y=             -0.0000    Z=              3.6721  Tot=              3.6721
 Quadrupole moment (field-independent basis, Debye-Ang):
   XX=            -11.9586   YY=            -13.9243   ZZ=             -9.7603
   XY=             -0.0000   XZ=             -0.0000   YZ=              0.0000

  Exact polarizability:  13.907  -0.000  20.247   0.000  -0.000  16.173
 Approx polarizability:  18.610   0.000  32.399  -0.000   0.000  22.108

                      1                      2                      3
                     A1                     B1                     A2
 Frequencies --    592.3017               638.7628               988.2811
 Red. masses --     11.8773                 1.9960                 1.0369
 Frc consts  --      2.4550                 0.4798                 0.5967
 IR Inten    --     24.9242                28.7151                 0.0000

                      4                      5                      6
                     A1                     B2                     A1
 Frequencies --   1055.4787              1104.8140              1241.7526
 Red. masses --      1.1162                 1.1162                 5.7791
 Frc consts  --      0.7327                 0.8027                 5.2502
 IR Inten    --     77.6547               123.5900               115.3012

                      7                      8                      9
                     B2                     B1                     A1
 Frequencies --   1398.0034              2113.7183              2478.3632
 Red. masses --     13.4930                 1.0316                 1.0824
 Frc consts  --     15.5373                 2.7155                 3.9172
 IR Inten    --    184.1349               266.2641                91.7366

 - Thermochemistry -
 -------------------
 Temperature   298.150 Kelvin.  Pressure   1.00000 Atm.
 Atom     1 has atomic number  1 and mass   1.00783

 Molecular mass:    52.01246 amu.
 Principal axes and moments of inertia in atomic units:
                           1         2         3
     Eigenvalues --    32.27772 164.56126 187.10072
           X            0.00000   0.00000   1.00000
           Y            1.00000   0.00000  -0.00000
           Z            0.00000   1.00000   0.00000
 This molecule is an asymmetric top.
 Rotational symmetry number  2.
 Rotational temperatures (Kelvin)      2.68339     0.52633     0.46293
 Rotational constants (GHZ):          55.91291    10.96699     9.64583
 Zero-point vibrational energy      69452.0 (Joules/Mol)
                                   16.59944 (Kcal/Mol)
 Warning -- explicit consideration of   1 degrees of freedom as
           vibrations may cause significant error
 Vibrational temperatures:    852.19   919.04  1421.91  1518.60  1589.58
          (Kelvin)           1786.60  2011.41  3041.17  3565.81

 Zero-point correction=                           0.026453 (Hartree/Particle)
 Thermal correction to Energy=                    0.029704
 Thermal correction to Enthalpy=                  0.030649
 Thermal correction to Gibbs Free Energy=         0.001935
 Sum of electronic and zero-point Energies=           -238.592490
 Sum of electronic and thermal Energies=              -238.589238
 Sum of electronic and thermal Enthalpies=            -238.588294
 Sum of electronic and thermal Free Energies=         -238.617007

                     E (Thermal)             CV                S
                      KCal/Mol        Cal/Mol-Kelvin    Cal/Mol-Kelvin
 Total                   18.640              9.242             60.432
 Electronic               0.000              0.000              1.377
 Translational            0.889              2.981             37.770
 Rotational               0.889              2.981             20.146
 Vibrational             16.862              3.281              1.138
 Vibration     1          0.950              1.048              0.463

 Optimization completed.
    -- Stationary point found.
 Normal termination of Gaussian 09 at Sat Jul  2 15:41:57 2016.
