 Gaussian 09, Revision E.01,
 Gaussian 09:  EM64L-G09RevE.01 30-Nov-2015

 ---------------------------------------------
 #p b3lyp/6-311++G(3df,2p) freq symmetry=Loose
 ---------------------------------------------

 ---------
 b3lyp opt
 ---------
 Symbolic Z-matrix:
 Charge =  1 Multiplicity = 1

                         Standard orientation:
 ---------------------------------------------------------------------
 Center     Atomic      Atomic             Coordinates (Angstroms)
 Number     Number       Type             X           Y           Z
 ---------------------------------------------------------------------
      1          6           0        0.000000    0.000000   -0.591978
      2          1           0       -0.000000    0.975125   -1.090387
      3          1           0       -0.000000   -0.975125   -1.090387
      4          9           0       -0.000000   -0.000000    0.636960
 ---------------------------------------------------------------------

 SCF Done:  E(RB3LYP) =  -138.792617362     A.U. after    8 cycles

 The electronic state is 1-A1.
 Alpha  occ. eigenvalues --  -25.10360 -10.69034  -1.66281  -1.04876  -0.90698
 Alpha  occ. eigenvalues --   -0.89946  -0.86312  -0.72312
 Alpha virt. eigenvalues --   -0.44858  -0.20807  -0.19177  -0.15636  -0.11901
 Alpha virt. eigenvalues --   -0.11837  -0.06736  -0.04921  -0.03977  -0.02552
 Alpha virt. eigenvalues --    0.00948   0.02600   0.03547   0.12331   0.12669

 Mulliken charges:
               1
     1  C    0.412265
     2  H    0.275947
     3  H    0.275947
     4  F    0.035842
 Sum of Mulliken charges =   1.00000

 Dipole moment (field-independent basis, Debye):
    X=             -0.0000    Y=              0.0000    Z=             -3.1517  Tot=              3.1517
 Quadrupole moment (field-independent basis, Debye-Ang):
   XX=             -8.9663   YY=             -7.3946   ZZ=             -6.2168
   XY=              0.0000   XZ=              0.0000   YZ=             -0.0000

  Exact polarizability:   7.917   0.000  10.640  -0.000   0.000  12.875
 Approx polarizability:  10.616   0.000  12.762   0.000  -0.000  18.567

                      1                      2                      3
                     B2                     B1                     A1
 Frequencies --   1247.1904              1290.3748              1443.6338
 Red. masses --      1.2806                 1.3218                 1.4372
 Frc consts  --      1.1737                 1.2967                 1.7648
 IR Inten    --     14.7593                 4.7164               127.2277

                      4                      5                      6
                     A1                     A1                     B2
 Frequencies --   1599.2200              3028.6500              3192.5771
 Red. masses --      2.8501                 1.0497                 1.1376
 Frc consts  --      4.2946                 5.6732                 6.8318
 IR Inten    --     58.7249                 4.2646                47.0559

 - Thermochemistry -
 -------------------
 Temperature   298.150 Kelvin.  Pressure   1.00000 Atm.
 Atom     1 has atomic number  6 and mass  12.00000

 Molecular mass:    33.01405 amu.
 Principal axes and moments of inertia in atomic units:
                           1         2         3
     Eigenvalues --     6.84438  50.25322  57.09759
           X            0.00000  -0.00000   1.00000
           Y           -0.00000   1.00000   0.00000
           Z            1.00000   0.00000  -0.00000
 This molecule is an asymmetric top.
 Rotational symmetry number  2.
 Rotational temperatures (Kelvin)     12.65474     1.72355     1.51694
 Rotational constants (GHZ):         263.68233    35.91295    31.60801
 Zero-point vibrational energy      70589.5 (Joules/Mol)
                                   16.87130 (Kcal/Mol)
 Vibrational temperatures:   1794.43  1856.56  2077.06  2300.92  4357.55
          (Kelvin)           4593.40

 Zero-point correction=                           0.026886 (Hartree/Particle)
 Thermal correction to Energy=                    0.029754
 Thermal correction to Enthalpy=                  0.030698
 Thermal correction to Gibbs Free Energy=         0.005636
 Sum of electronic and zero-point Energies=           -138.765731
 Sum of electronic and thermal Energies=              -138.762864
 Sum of electronic and thermal Enthalpies=            -138.761920
 Sum of electronic and thermal Free Energies=         -138.786981

                     E (Thermal)             CV                S
                      KCal/Mol        Cal/Mol-Kelvin    Cal/Mol-Kelvin
 Total                   18.671              6.435             52.747
 Electronic               0.000              0.000              0.000
 Translational            0.889              2.981             36.415
 Rotational               0.889              2.981             16.248
 Vibrational             16.893              0.473              0.085

 Optimization completed.
    -- Stationary point found.
 Normal termination of Gaussian 09 at Sat Jul  2 15:39:01 2016.
