 Gaussian 09, Revision E.01,
 Gaussian 09:  EM64L-G09RevE.01 30-Nov-2015

 ---------------------------------------------
 #p b3lyp/6-311++G(3df,2p) freq symmetry=Loose
 ---------------------------------------------

 ---------
 b3lyp opt
 ---------
 Symbolic Z-matrix:
 Charge =  1 Multiplicity = 3

                         Standard orientation:
 ---------------------------------------------------------------------
 Center     Atomic      Atomic             Coordinates (Angstroms)
 Number     Number       Type             X           Y           Z
 ---------------------------------------------------------------------
      1          1           0       -1.142978   -0.476846    0.497241
      2          1           0        1.469431    0.634373    0.363930
      3          6           0        0.862934   -0.177861   -0.055736
      4          9           0       -0.611562    0.101071   -0.058528
 ---------------------------------------------------------------------

 SCF Done:  E(UB3LYP) =  -138.628769299     A.U. after   11 cycles

 The electronic state is 3-A.
 Alpha  occ. eigenvalues --  -25.12189 -10.61386  -1.64653  -1.06338  -0.92916
 Alpha  occ. eigenvalues --   -0.86615  -0.83586  -0.64027  -0.56324
 Alpha virt. eigenvalues --   -0.31911  -0.23640  -0.16430  -0.11194  -0.10527
 Alpha virt. eigenvalues --   -0.08466  -0.07624  -0.06883  -0.02074   0.00311
 Alpha virt. eigenvalues --    0.02058   0.04698   0.11498   0.11669   0.13746

  Beta  occ. eigenvalues --  -25.11826 -10.57936  -1.63799  -1.03237  -0.90065
  Beta  occ. eigenvalues --   -0.84494  -0.80431
  Beta virt. eigenvalues --   -0.42435  -0.35035  -0.29582  -0.21341  -0.15375
  Beta virt. eigenvalues --   -0.10113  -0.09444  -0.07384  -0.06634  -0.05654
  Beta virt. eigenvalues --   -0.01121   0.00629   0.02726   0.06584   0.12112

 Mulliken charges and spin densities:
               1          2
     1  H    0.640008   0.006574
     2  H    0.283610   0.079482
     3  C    0.279683   1.895448
     4  F   -0.203301   0.018497
 Sum of Mulliken charges =   1.00000   2.00000

 Dipole moment (field-independent basis, Debye):
    X=             -0.1940    Y=             -0.7094    Z=              1.4934  Tot=              1.6647
 Quadrupole moment (field-independent basis, Debye-Ang):
   XX=             -2.9658   YY=             -8.9016   ZZ=             -9.6887
   XY=              2.5456   XZ=             -1.0948   YZ=             -0.2427

  Exact polarizability:  15.895   0.846  11.052  -0.267  -0.048  10.510
 Approx polarizability:  19.239   0.616  13.641  -0.378  -0.156  12.609

                      1                      2                      3
                      A                      A                      A
 Frequencies --    250.0476               700.5654               906.5109
 Red. masses --      1.0947                10.5488                 1.1160
 Frc consts  --      0.0403                 3.0503                 0.5403
 IR Inten    --    176.2634               168.2937               166.5978

                      4                      5                      6
                      A                      A                      A
 Frequencies --   1054.7298              3055.2706              3515.4427
 Red. masses --      1.1544                 1.0896                 1.0569
 Frc consts  --      0.7566                 5.9929                 7.6958
 IR Inten    --     10.7360               105.3678               552.3928

 - Thermochemistry -
 -------------------
 Temperature   298.150 Kelvin.  Pressure   1.00000 Atm.
 Atom     1 has atomic number  1 and mass   1.00783

 Molecular mass:    33.01405 amu.
 Principal axes and moments of inertia in atomic units:
                           1         2         3
     Eigenvalues --     5.50358  71.75817  73.97869
           X            0.99657   0.08268  -0.00255
           Y           -0.08269   0.99657  -0.00355
           Z            0.00225   0.00375   0.99999
 This molecule is an asymmetric top.
 Rotational symmetry number  1.
 Rotational temperatures (Kelvin)     15.73773     1.20702     1.17079
 Rotational constants (GHZ):         327.92144    25.15032    24.39542
 Zero-point vibrational energy      56718.3 (Joules/Mol)
                                   13.55601 (Kcal/Mol)
 Warning -- explicit consideration of   1 degrees of freedom as
           vibrations may cause significant error
 Vibrational temperatures:    359.76  1007.96  1304.27  1517.52  4395.85
          (Kelvin)           5057.93

 Zero-point correction=                           0.021603 (Hartree/Particle)
 Thermal correction to Energy=                    0.025117
 Thermal correction to Enthalpy=                  0.026061
 Thermal correction to Gibbs Free Energy=        -0.001907
 Sum of electronic and zero-point Energies=           -138.607166
 Sum of electronic and thermal Energies=              -138.603653
 Sum of electronic and thermal Enthalpies=            -138.602708
 Sum of electronic and thermal Free Energies=         -138.630677

                     E (Thermal)             CV                S
                      KCal/Mol        Cal/Mol-Kelvin    Cal/Mol-Kelvin
 Total                   15.761              9.365             58.864
 Electronic               0.000              0.000              2.183
 Translational            0.889              2.981             36.415
 Rotational               0.889              2.981             18.020
 Vibrational             13.984              3.403              2.247
 Vibration     1          0.663              1.763              1.730

 Normal termination of Gaussian 09 at Sun Jun 19 04:41:33 2016.
