 Gaussian 09, Revision E.01,
 Gaussian 09:  EM64L-G09RevE.01 30-Nov-2015

 ---------------------------------------------
 #p b3lyp/6-311++G(3df,2p) freq symmetry=Loose
 ---------------------------------------------

 ---------
 b3lyp opt
 ---------
 Symbolic Z-matrix:
 Charge =  1 Multiplicity = 1

                         Standard orientation:
 ---------------------------------------------------------------------
 Center     Atomic      Atomic             Coordinates (Angstroms)
 Number     Number       Type             X           Y           Z
 ---------------------------------------------------------------------
      1          1           0       -0.910059   -0.973962   -0.000000
      2          1           0        1.101030    1.007807    0.000000
      3          6           0       -0.012731    0.954179   -0.000000
      4          9           0       -0.012731   -0.639880    0.000000
 ---------------------------------------------------------------------

 SCF Done:  E(RB3LYP) =  -138.649268603     A.U. after   10 cycles

 The electronic state is 1-A'.
 Alpha  occ. eigenvalues --  -25.10344 -10.65182  -1.62179  -1.04072  -0.90833
 Alpha  occ. eigenvalues --   -0.82920  -0.82836  -0.60680
 Alpha virt. eigenvalues --   -0.44207  -0.33367  -0.24164  -0.17446  -0.10591
 Alpha virt. eigenvalues --   -0.10127  -0.09329  -0.07248  -0.05640  -0.02719
 Alpha virt. eigenvalues --    0.00422   0.01124   0.05850   0.07964   0.12837

 Mulliken charges:
               1
     1  H    0.641949
     2  H    0.251538
     3  C    0.362114
     4  F   -0.255601
 Sum of Mulliken charges =   1.00000

 Dipole moment (field-independent basis, Debye):
    X=             -0.2640    Y=              0.0181    Z=             -0.0000  Tot=              0.2646
 Quadrupole moment (field-independent basis, Debye-Ang):
   XX=             -7.3027   YY=             -5.7014   ZZ=             -9.6323
   XY=              4.8464   XZ=              0.0000   YZ=              0.0000

  Exact polarizability:  13.534   1.854  17.157  -0.000  -0.000  11.139
 Approx polarizability:  16.851   2.351  24.022   0.000  -0.000  16.646

                      1                      2                      3
                     A'                     A"                     A'
 Frequencies --    541.5085               625.5784               864.4196
 Red. masses --     10.6648                 1.0688                 1.0923
 Frc consts  --      1.8425                 0.2464                 0.4809
 IR Inten    --    184.4268               283.2548               249.7284

                      4                      5                      6
                     A'                     A'                     A'
 Frequencies --   1303.7175              2943.5223              3587.4508
 Red. masses --      1.1242                 1.0882                 1.0573
 Frc consts  --      1.1258                 5.5550                 8.0175
 IR Inten    --     19.6987                 4.0902               572.5923

 - Thermochemistry -
 -------------------
 Temperature   298.150 Kelvin.  Pressure   1.00000 Atm.
 Atom     1 has atomic number  1 and mass   1.00783

 Molecular mass:    33.01405 amu.
 Principal axes and moments of inertia in atomic units:
                           1         2         3
     Eigenvalues --     6.58589  74.58614  81.17203
           X            0.10650   0.99431   0.00000
           Y            0.99431  -0.10650   0.00000
           Z           -0.00000   0.00000   1.00000
 This molecule is an asymmetric top.
 Rotational symmetry number  1.
 Rotational temperatures (Kelvin)     13.15141     1.16126     1.06704
 Rotational constants (GHZ):         274.03135    24.19674    22.23353
 Zero-point vibrational energy      59013.0 (Joules/Mol)
                                   14.10444 (Kcal/Mol)
 Warning -- explicit consideration of   1 degrees of freedom as
           vibrations may cause significant error
 Vibrational temperatures:    779.11   900.07  1243.71  1875.76  4235.07
          (Kelvin)           5161.54

 Zero-point correction=                           0.022477 (Hartree/Particle)
 Thermal correction to Energy=                    0.025724
 Thermal correction to Enthalpy=                  0.026668
 Thermal correction to Gibbs Free Energy=         0.000108
 Sum of electronic and zero-point Energies=           -138.626792
 Sum of electronic and thermal Energies=              -138.623545
 Sum of electronic and thermal Enthalpies=            -138.622601
 Sum of electronic and thermal Free Energies=         -138.649161

                     E (Thermal)             CV                S
                      KCal/Mol        Cal/Mol-Kelvin    Cal/Mol-Kelvin
 Total                   16.142              8.795             55.901
 Electronic               0.000              0.000              0.000
 Translational            0.889              2.981             36.415
 Rotational               0.889              2.981             18.329
 Vibrational             14.364              2.833              1.157
 Vibration     1          0.897              1.158              0.562

 Normal termination of Gaussian 09 at Sun Jun 19 04:41:24 2016.
