 Gaussian 09, Revision E.01,
 Gaussian 09:  EM64L-G09RevE.01 30-Nov-2015

 ---------------------------------------------
 #p b3lyp/6-311++G(3df,2p) freq symmetry=Loose
 ---------------------------------------------

 ---------
 b3lyp opt
 ---------
 Symbolic Z-matrix:
 Charge =  0 Multiplicity = 2

                         Standard orientation:
 ---------------------------------------------------------------------
 Center     Atomic      Atomic             Coordinates (Angstroms)
 Number     Number       Type             X           Y           Z
 ---------------------------------------------------------------------
      1          6           0        0.023059    0.654595   -0.000000
      2          1           0       -0.172944    1.110715   -0.958092
      3          1           0       -0.172944    1.110715    0.958092
      4          9           0        0.023059   -0.683220    0.000000
 ---------------------------------------------------------------------

 SCF Done:  E(UB3LYP) =  -139.128026403     A.U. after   11 cycles

 The electronic state is 2-A'.
 Alpha  occ. eigenvalues --  -24.70541 -10.25980  -1.24252  -0.69978  -0.52522
 Alpha  occ. eigenvalues --   -0.52491  -0.48743  -0.38457  -0.22710
 Alpha virt. eigenvalues --   -0.00157   0.02636   0.02878   0.06188   0.10754
 Alpha virt. eigenvalues --    0.11026   0.13394   0.16778   0.18200   0.22932
 Alpha virt. eigenvalues --    0.25430   0.27045   0.34243   0.34706   0.35836

  Beta  occ. eigenvalues --  -24.70091 -10.24522  -1.23265  -0.66907  -0.51780
  Beta  occ. eigenvalues --   -0.51474  -0.45378  -0.37898
  Beta virt. eigenvalues --   -0.07123   0.00035   0.02871   0.02917   0.07811
  Beta virt. eigenvalues --    0.11022   0.11248   0.14341   0.17924   0.18609
  Beta virt. eigenvalues --    0.23223   0.25643   0.27956   0.35162   0.35317

 Mulliken charges and spin densities:
               1          2
     1  C   -0.064118   0.987608
     2  H    0.162252  -0.024734
     3  H    0.162252  -0.024734
     4  F   -0.260385   0.061860
 Sum of Mulliken charges =  -0.00000   1.00000

 Dipole moment (field-independent basis, Debye):
    X=             -0.3625    Y=              1.2757    Z=              0.0000  Tot=              1.3262
 Quadrupole moment (field-independent basis, Debye-Ang):
   XX=            -12.6677   YY=            -11.7717   ZZ=            -10.6633
   XY=             -0.4134   XZ=             -0.0000   YZ=              0.0000

  Exact polarizability:  15.088  -0.146  17.201  -0.000  -0.000  15.467
 Approx polarizability:  17.688  -0.225  21.593   0.000   0.000  18.668

                      1                      2                      3
                     A'                     A"                     A'
 Frequencies --    483.0191              1169.5235              1177.9299
 Red. masses --      1.2944                 1.2332                 6.9086
 Frc consts  --      0.1779                 0.9938                 5.6478
 IR Inten    --     56.1086                 7.1702               125.7993

                      4                      5                      6
                     A'                     A'                     A"
 Frequencies --   1464.0097              3130.2985              3289.6410
 Red. masses --      1.1227                 1.0387                 1.1313
 Frc consts  --      1.4178                 5.9967                 7.2129
 IR Inten    --      4.1340                11.6622                 5.5132

 - Thermochemistry -
 -------------------
 Temperature   298.150 Kelvin.  Pressure   1.00000 Atm.
 Atom     1 has atomic number  6 and mass  12.00000

 Molecular mass:    33.01405 amu.
 Principal axes and moments of inertia in atomic units:
                           1         2         3
     Eigenvalues --     6.81756  58.26999  64.66713
           X           -0.02923  -0.00000   0.99957
           Y            0.99957   0.00000   0.02923
           Z           -0.00000   1.00000   0.00000
 This molecule is an asymmetric top.
 Rotational symmetry number  1.
 Rotational temperatures (Kelvin)     12.70453     1.48642     1.33938
 Rotational constants (GHZ):         264.71968    30.97205    27.90817
 Zero-point vibrational energy      64086.5 (Joules/Mol)
                                   15.31703 (Kcal/Mol)
 Warning -- explicit consideration of   1 degrees of freedom as
           vibrations may cause significant error
 Vibrational temperatures:    694.96  1682.68  1694.78  2106.38  4503.80
          (Kelvin)           4733.05

 Zero-point correction=                           0.024409 (Hartree/Particle)
 Thermal correction to Energy=                    0.027522
 Thermal correction to Enthalpy=                  0.028466
 Thermal correction to Gibbs Free Energy=         0.001625
 Sum of electronic and zero-point Energies=           -139.103617
 Sum of electronic and thermal Energies=              -139.100505
 Sum of electronic and thermal Enthalpies=            -139.099560
 Sum of electronic and thermal Free Energies=         -139.126402

                     E (Thermal)             CV                S
                      KCal/Mol        Cal/Mol-Kelvin    Cal/Mol-Kelvin
 Total                   17.270              7.780             56.492
 Electronic               0.000              0.000              1.377
 Translational            0.889              2.981             36.415
 Rotational               0.889              2.981             17.892
 Vibrational             15.493              1.818              0.808
 Vibration     1          0.839              1.288              0.702

 Optimization completed.
    -- Stationary point found.
 Normal termination of Gaussian 09 at Sun Jun 19 04:41:30 2016.
