 Gaussian 09, Revision E.01,
 Gaussian 09:  EM64L-G09RevE.01 30-Nov-2015

 ---------------------------------------------
 #p b3lyp/6-311++G(3df,2p) freq symmetry=Loose
 ---------------------------------------------

 ---------
 b3lyp opt
 ---------
 Symbolic Z-matrix:
 Charge =  1 Multiplicity = 3

                         Standard orientation:
 ---------------------------------------------------------------------
 Center     Atomic      Atomic             Coordinates (Angstroms)
 Number     Number       Type             X           Y           Z
 ---------------------------------------------------------------------
      1          6           0        0.081650    0.599442   -0.000000
      2          1           0       -0.612415    1.121711   -0.804177
      3          1           0       -0.612415    1.121711    0.804177
      4          9           0        0.081650   -0.648893    0.000000
 ---------------------------------------------------------------------

 SCF Done:  E(UB3LYP) =  -138.645706890     A.U. after   11 cycles

 The electronic state is 3-A".
 Alpha  occ. eigenvalues --  -25.11103 -10.66209  -1.65957  -1.07307  -0.92742
 Alpha  occ. eigenvalues --   -0.90143  -0.86143  -0.71679  -0.60757
 Alpha virt. eigenvalues --   -0.23190  -0.21815  -0.20710  -0.12213  -0.11622
 Alpha virt. eigenvalues --   -0.07312  -0.05760  -0.04346  -0.04145  -0.00205
 Alpha virt. eigenvalues --    0.02269   0.02551   0.08334   0.11078   0.13342

  Beta  occ. eigenvalues --  -25.09671 -10.64088  -1.63085  -1.01609  -0.88919
  Beta  occ. eigenvalues --   -0.83523  -0.81459
  Beta virt. eigenvalues --   -0.56400  -0.41556  -0.21327  -0.19309  -0.16574
  Beta virt. eigenvalues --   -0.10781  -0.10489  -0.05544  -0.04546  -0.03476
  Beta virt. eigenvalues --   -0.03293   0.01956   0.02951   0.03817   0.09097

 Mulliken charges and spin densities:
               1          2
     1  C    0.304741   1.160810
     2  H    0.319774   0.264594
     3  H    0.319774   0.264594
     4  F    0.055710   0.310003
 Sum of Mulliken charges =   1.00000   2.00000

 Dipole moment (field-independent basis, Debye):
    X=             -1.6779    Y=              3.3891    Z=             -0.0000  Tot=              3.7817
 Quadrupole moment (field-independent basis, Debye-Ang):
   XX=             -8.9165   YY=             -5.6417   ZZ=             -7.4648
   XY=             -2.4052   XZ=              0.0000   YZ=             -0.0000

  Exact polarizability:  10.859  -2.038  16.302  -0.000  -0.000  12.673
 Approx polarizability:  13.571  -3.156  24.932   0.000  -0.000  17.002

                      1                      2                      3
                     A"                     A'                     A'
 Frequencies --    779.0866               895.5806              1003.5880
 Red. masses --      1.2401                 1.3171                 1.0658
 Frc consts  --      0.4435                 0.6224                 0.6324
 IR Inten    --     18.7043                37.7804               162.1333

                      4                      5                      6
                     A'                     A"                     A'
 Frequencies --   1445.6931              1994.2314              2378.3355
 Red. masses --     10.6200                 1.0501                 1.0864
 Frc consts  --     13.0775                 2.4605                 3.6206
 IR Inten    --     91.6514               286.4038               127.9588

 - Thermochemistry -
 -------------------
 Temperature   298.150 Kelvin.  Pressure   1.00000 Atm.
 Atom     1 has atomic number  6 and mass  12.00000

 Molecular mass:    33.01405 amu.
 Principal axes and moments of inertia in atomic units:
                           1         2         3
     Eigenvalues --     7.17563  55.38442  57.51873
           X           -0.12084   0.00000   0.99267
           Y            0.99267   0.00000   0.12084
           Z           -0.00000   1.00000  -0.00000
 This molecule is an asymmetric top.
 Rotational symmetry number  1.
 Rotational temperatures (Kelvin)     12.07056     1.56387     1.50584
 Rotational constants (GHZ):         251.50991    32.58572    31.37659
 Zero-point vibrational energy      50820.4 (Joules/Mol)
                                   12.14638 (Kcal/Mol)
 Vibrational temperatures:   1120.93  1288.54  1443.94  2080.03  2869.25
          (Kelvin)           3421.89

 Zero-point correction=                           0.019356 (Hartree/Particle)
 Thermal correction to Energy=                    0.022372
 Thermal correction to Enthalpy=                  0.023316
 Thermal correction to Gibbs Free Energy=        -0.003695
 Sum of electronic and zero-point Energies=           -138.626350
 Sum of electronic and thermal Energies=              -138.623335
 Sum of electronic and thermal Enthalpies=            -138.622391
 Sum of electronic and thermal Free Energies=         -138.649402

                     E (Thermal)             CV                S
                      KCal/Mol        Cal/Mol-Kelvin    Cal/Mol-Kelvin
 Total                   14.039              7.632             56.849
 Electronic               0.000              0.000              2.183
 Translational            0.889              2.981             36.415
 Rotational               0.889              2.981             17.776
 Vibrational             12.261              1.671              0.476

 Optimization completed.
    -- Stationary point found.
 Normal termination of Gaussian 09 at Sun Jun 19 04:42:34 2016.
