 Gaussian 09, Revision E.01,
 Gaussian 09:  EM64L-G09RevE.01 30-Nov-2015

 ---------------------------------------------
 #p b3lyp/6-311++G(3df,2p) freq symmetry=Loose
 ---------------------------------------------

 ---------
 b3lyp opt
 ---------
 Symbolic Z-matrix:
 Charge =  1 Multiplicity = 2

                         Standard orientation:
 ---------------------------------------------------------------------
 Center     Atomic      Atomic             Coordinates (Angstroms)
 Number     Number       Type             X           Y           Z
 ---------------------------------------------------------------------
      1          1           0        0.897070    0.911290    0.000000
      2          1           0        1.990111    1.436736    0.000000
      3          9           0       -0.160399    0.578192    0.000000
      4          9           0       -0.160399   -0.839084   -0.000000
 ---------------------------------------------------------------------

 SCF Done:  E(UB3LYP) =  -200.253253182     A.U. after   15 cycles

 The electronic state is 2-A'.
 Alpha  occ. eigenvalues --  -25.19032 -25.12535  -1.72251  -1.47824  -1.00579
 Alpha  occ. eigenvalues --   -0.94300  -0.89716  -0.77856  -0.75492  -0.69338
 Alpha virt. eigenvalues --   -0.51018  -0.24065  -0.15213  -0.09020  -0.08267
 Alpha virt. eigenvalues --   -0.07007  -0.00354   0.01136   0.03645   0.06449
 Alpha virt. eigenvalues --    0.10241   0.16542   0.17910   0.20552   0.20633

  Beta  occ. eigenvalues --  -25.18533 -25.12492  -1.71462  -1.47290  -0.99187
  Beta  occ. eigenvalues --   -0.92863  -0.89389  -0.77185  -0.75337
  Beta virt. eigenvalues --   -0.51643  -0.47513  -0.18384  -0.14262  -0.08219
  Beta virt. eigenvalues --   -0.06657  -0.06076  -0.00035   0.01646   0.03915
  Beta virt. eigenvalues --    0.06479   0.11084   0.17132   0.21399   0.24428

 Mulliken charges and spin densities:
               1          2
     1  H    0.420786   0.244059
     2  H    0.307084   0.674115
     3  F    0.062217   0.067893
     4  F    0.209912   0.013932
 Sum of Mulliken charges =   1.00000   1.00000

 Dipole moment (field-independent basis, Debye):
    X=              3.7742    Y=              3.0133    Z=              0.0000  Tot=              4.8295
 Quadrupole moment (field-independent basis, Debye-Ang):
   XX=             -2.6721   YY=             -3.7379   ZZ=            -10.3070
   XY=              5.6762   XZ=              0.0000   YZ=             -0.0000

  Exact polarizability:  15.254   5.829  16.493  -0.000   0.000   6.646
 Approx polarizability:  16.899   5.397  25.107   0.000   0.000   7.517

                      1                      2                      3
                     A'                     A"                     A'
 Frequencies --    245.5913               692.1825               873.7728
 Red. masses --      1.3598                 1.0161                 2.5400
 Frc consts  --      0.0483                 0.2868                 1.1426
 IR Inten    --     47.5562                29.2576                 4.1416

                      4                      5                      6
                     A'                     A'                     A'
 Frequencies --    999.0768              1112.8211              1652.8684
 Red. masses --      1.5737                 1.0567                 1.0747
 Frc consts  --      0.9255                 0.7710                 1.7299
 IR Inten    --     15.5855               119.8259              1272.0156

 - Thermochemistry -
 -------------------
 Temperature   298.150 Kelvin.  Pressure   1.00000 Atm.
 Atom     1 has atomic number  1 and mass   1.00783

 Molecular mass:    40.01246 amu.
 Principal axes and moments of inertia in atomic units:
                           1         2         3
     Eigenvalues --    16.07244  83.93023 100.00266
           X            0.23235   0.97263   0.00000
           Y            0.97263  -0.23235   0.00000
           Z            0.00000   0.00000   1.00000
 This molecule is an asymmetric top.
 Rotational symmetry number  1.
 Rotational temperatures (Kelvin)      5.38897     1.03197     0.86612
 Rotational constants (GHZ):         112.28797    21.50288    18.04693
 Zero-point vibrational energy      33353.8 (Joules/Mol)
                                    7.97174 (Kcal/Mol)
 Warning -- explicit consideration of   1 degrees of freedom as
           vibrations may cause significant error
 Vibrational temperatures:    353.35   995.90  1257.16  1437.45  1601.10
          (Kelvin)           2378.11

 Zero-point correction=                           0.012704 (Hartree/Particle)
 Thermal correction to Energy=                    0.016268
 Thermal correction to Enthalpy=                  0.017212
 Thermal correction to Gibbs Free Energy=        -0.011437
 Sum of electronic and zero-point Energies=           -200.240549
 Sum of electronic and thermal Energies=              -200.236985
 Sum of electronic and thermal Enthalpies=            -200.236041
 Sum of electronic and thermal Free Energies=         -200.264690

                     E (Thermal)             CV                S
                      KCal/Mol        Cal/Mol-Kelvin    Cal/Mol-Kelvin
 Total                   10.208              9.804             60.296
 Electronic               0.000              0.000              1.377
 Translational            0.889              2.981             36.988
 Rotational               0.889              2.981             19.540
 Vibrational              8.431              3.842              2.392
 Vibration     1          0.660              1.770              1.762

 Optimization completed.
    -- Stationary point found.
 Normal termination of Gaussian 09 at Sun Jun 19 04:42:35 2016.
