 Gaussian 09, Revision E.01,
 Gaussian 09:  EM64L-G09RevE.01 30-Nov-2015

 ---------------------------------------------
 #p b3lyp/6-311++G(3df,2p) freq symmetry=Loose
 ---------------------------------------------

 ---------
 b3lyp opt
 ---------
 Symbolic Z-matrix:
 Charge =  1 Multiplicity = 1

                         Standard orientation:
 ---------------------------------------------------------------------
 Center     Atomic      Atomic             Coordinates (Angstroms)
 Number     Number       Type             X           Y           Z
 ---------------------------------------------------------------------
      1          6           0        0.000000    0.000000    0.000000
      2          1           0       -0.000000    1.090878    0.000000
      3          1           0       -0.944728   -0.545439    0.000000
      4          1           0        0.944728   -0.545439    0.000000
 ---------------------------------------------------------------------

 SCF Done:  E(RB3LYP) =  -39.4937546637     A.U. after    6 cycles

 The electronic state is 1-A1'.
 Alpha  occ. eigenvalues --  -10.63388  -1.04847  -0.78781  -0.78781
 Alpha virt. eigenvalues --   -0.48739  -0.20993  -0.15094  -0.15094  -0.11722
 Alpha virt. eigenvalues --   -0.11722  -0.10866  -0.08826  -0.03959  -0.01910
 Alpha virt. eigenvalues --   -0.01910   0.02741   0.02741   0.10873   0.10873

 Mulliken charges:
               1
     1  C    0.185287
     2  H    0.271571
     3  H    0.271571
     4  H    0.271571
 Sum of Mulliken charges =   1.00000

 Dipole moment (field-independent basis, Debye):
    X=             -0.0000    Y=             -0.0000    Z=              0.0000  Tot=              0.0000
 Quadrupole moment (field-independent basis, Debye-Ang):
   XX=             -4.0362   YY=             -4.0362   ZZ=             -5.0374
   XY=             -0.0000   XZ=             -0.0000   YZ=              0.0000

  Exact polarizability:   9.927   0.000   9.927  -0.000   0.000   7.075
 Approx polarizability:  11.748  -0.000  11.748  -0.000   0.000   9.659

                      1                      2                      3
                     E'                     E'                     A2"
 Frequencies --   1410.1211              1410.1220              1423.7039
 Red. masses --      1.0975                 1.0975                 1.2356
 Frc consts  --      1.2858                 1.2858                 1.4756
 IR Inten    --     18.2962                18.2940                 8.7266

                      4                      5                      6
                     A1'                    E'                     E'
 Frequencies --   3021.9423              3213.1544              3213.1545
 Red. masses --      1.0078                 1.1231                 1.1231
 Frc consts  --      5.4226                 6.8319                 6.8319
 IR Inten    --      0.0000                68.4396                68.4423

 - Thermochemistry -
 -------------------
 Temperature   298.150 Kelvin.  Pressure   1.00000 Atm.
 Atom     1 has atomic number  6 and mass  12.00000

 Molecular mass:    15.02348 amu.
 Principal axes and moments of inertia in atomic units:
                           1         2         3
     Eigenvalues --     6.42431   6.42431  12.84862
           X           -0.53904   0.84228   0.00000
           Y            0.84228   0.53904   0.00000
           Z            0.00000   0.00000   1.00000
 This molecule is an oblate symmetric top.
 Rotational symmetry number  6.
 Rotational temperatures (Kelvin)     13.48220    13.48220     6.74110
 Rotational constants (GHZ):         280.92373   280.92373   140.46187
 Zero-point vibrational energy      81897.5 (Joules/Mol)
                                   19.57398 (Kcal/Mol)
 Vibrational temperatures:   2028.85  2028.85  2048.39  4347.90  4623.01
          (Kelvin)           4623.01

 Zero-point correction=                           0.031193 (Hartree/Particle)
 Thermal correction to Energy=                    0.034047
 Thermal correction to Enthalpy=                  0.034991
 Thermal correction to Gibbs Free Energy=         0.013803
 Sum of electronic and zero-point Energies=            -39.462562
 Sum of electronic and thermal Energies=               -39.459708
 Sum of electronic and thermal Enthalpies=             -39.458764
 Sum of electronic and thermal Free Energies=          -39.479952

                     E (Thermal)             CV                S
                      KCal/Mol        Cal/Mol-Kelvin    Cal/Mol-Kelvin
 Total                   21.365              6.264             44.594
 Electronic               0.000              0.000              0.000
 Translational            0.889              2.981             34.068
 Rotational               0.889              2.981             10.476
 Vibrational             19.587              0.302              0.051

 Optimization completed.
    -- Stationary point found.
 Normal termination of Gaussian 09 at Sun Jun 19 04:42:46 2016.
