 Gaussian 09, Revision E.01,
 Gaussian 09:  EM64L-G09RevE.01 30-Nov-2015

 ---------------------------------------------
 #p b3lyp/6-311++G(3df,2p) freq symmetry=Loose
 ---------------------------------------------

 ---------
 b3lyp opt
 ---------
 Symbolic Z-matrix:
 Charge =  1 Multiplicity = 2

                         Standard orientation:
 ---------------------------------------------------------------------
 Center     Atomic      Atomic             Coordinates (Angstroms)
 Number     Number       Type             X           Y           Z
 ---------------------------------------------------------------------
      1          1           0        1.204803    0.566843    0.400207
      2          1           0       -1.201235   -0.976611   -0.032963
      3          1           0       -1.135632    0.984905   -0.338713
      4          6           0       -0.848925    0.036753    0.095920
      5          9           0        0.691735   -0.088406   -0.067117
 ---------------------------------------------------------------------

 SCF Done:  E(UB3LYP) =  -139.337540386     A.U. after   12 cycles

 The electronic state is 2-A.
 Alpha  occ. eigenvalues --  -25.08657 -10.57147  -1.61075  -1.04030  -0.91330
 Alpha  occ. eigenvalues --   -0.82780  -0.82351  -0.73263  -0.55881
 Alpha virt. eigenvalues --   -0.31374  -0.22981  -0.17016  -0.12946  -0.10656
 Alpha virt. eigenvalues --   -0.08972  -0.08503  -0.06531  -0.05554  -0.01944
 Alpha virt. eigenvalues --   -0.00137   0.01021   0.01506   0.08072   0.11906

  Beta  occ. eigenvalues --  -25.08526 -10.55435  -1.60763  -1.01933  -0.89821
  Beta  occ. eigenvalues --   -0.81800  -0.81319  -0.72292
  Beta virt. eigenvalues --   -0.36980  -0.29891  -0.22078  -0.16472  -0.12728
  Beta virt. eigenvalues --   -0.09776  -0.08381  -0.07896  -0.06073  -0.05179
  Beta virt. eigenvalues --   -0.01621   0.00326   0.01312   0.01921   0.08175

 Mulliken charges and spin densities:
               1          2
     1  H    0.627116   0.000647
     2  H    0.257967  -0.010563
     3  H    0.259221  -0.006285
     4  C    0.150500   1.011910
     5  F   -0.294804   0.004291
 Sum of Mulliken charges =   1.00000   1.00000

 Dipole moment (field-independent basis, Debye):
    X=             -0.0555    Y=              1.3537    Z=              0.5802  Tot=              1.4739
 Quadrupole moment (field-independent basis, Debye-Ang):
   XX=             -3.7069   YY=             -7.7139   ZZ=            -10.7926
   XY=              2.0771   XZ=              1.8543   YZ=              0.3461

  Exact polarizability:  16.255   0.580  13.259   0.558   0.109  11.348
 Approx polarizability:  20.037   0.557  16.422   0.457   0.398  13.911

                      1                      2                      3
                      A                      A                      A
 Frequencies --    167.4681               595.0710               804.5729
 Red. masses --      1.0697                 6.2621                 1.2702
 Frc consts  --      0.0177                 1.3065                 0.4844
 IR Inten    --    195.1317               115.7948                94.5799

                      4                      5                      6
                      A                      A                      A
 Frequencies --    882.7206              1090.8010              1345.5556
 Red. masses --      1.1044                 1.1801                 1.0646
 Frc consts  --      0.5070                 0.8273                 1.1356
 IR Inten    --    126.1269                35.9398                 3.2273

                      7                      8                      9
                      A                      A                      A
 Frequencies --   3116.3222              3337.6757              3625.5525
 Red. masses --      1.0313                 1.1431                 1.0573
 Frc consts  --      5.9009                 7.5026                 8.1885
 IR Inten    --     17.6226                58.3928               523.0640

 - Thermochemistry -
 -------------------
 Temperature   298.150 Kelvin.  Pressure   1.00000 Atm.
 Atom     1 has atomic number  1 and mass   1.00783

 Molecular mass:    34.02188 amu.
 Principal axes and moments of inertia in atomic units:
                           1         2         3
     Eigenvalues --    10.06168  79.85421  86.83373
           X            0.99828   0.03989   0.04304
           Y           -0.03894   0.99898  -0.02287
           Z           -0.04390   0.02115   0.99881
 This molecule is an asymmetric top.
 Rotational symmetry number  1.
 Rotational temperatures (Kelvin)      8.60828     1.08465     0.99747
 Rotational constants (GHZ):         179.36774    22.60045    20.78387
 Zero-point vibrational energy      89515.0 (Joules/Mol)
                                   21.39460 (Kcal/Mol)
 Warning -- explicit consideration of   2 degrees of freedom as
           vibrations may cause significant error
 Vibrational temperatures:    240.95   856.17  1157.60  1270.04  1569.42
          (Kelvin)           1935.95  4483.69  4802.16  5216.35

 Zero-point correction=                           0.034094 (Hartree/Particle)
 Thermal correction to Energy=                    0.037873
 Thermal correction to Enthalpy=                  0.038817
 Thermal correction to Gibbs Free Energy=         0.010248
 Sum of electronic and zero-point Energies=           -139.303446
 Sum of electronic and thermal Energies=              -139.299667
 Sum of electronic and thermal Enthalpies=            -139.298723
 Sum of electronic and thermal Free Energies=         -139.327292

                     E (Thermal)             CV                S
                      KCal/Mol        Cal/Mol-Kelvin    Cal/Mol-Kelvin
 Total                   23.766             10.469             60.129
 Electronic               0.000              0.000              1.377
 Translational            0.889              2.981             36.504
 Rotational               0.889              2.981             18.884
 Vibrational             21.988              4.507              3.362
 Vibration     1          0.624              1.882              2.464
 Vibration     2          0.953              1.042              0.458

 Normal termination of Gaussian 09 at Sun Jun 19 04:43:21 2016.
