 Gaussian 09, Revision E.01,
 Gaussian 09:  EM64L-G09RevE.01 30-Nov-2015

 ---------------------------------------------
 #p b3lyp/6-311++G(3df,2p) freq symmetry=Loose
 ---------------------------------------------

 ---------
 b3lyp opt
 ---------
 Symbolic Z-matrix:
 Charge =  1 Multiplicity = 2

                         Standard orientation:
 ---------------------------------------------------------------------
 Center     Atomic      Atomic             Coordinates (Angstroms)
 Number     Number       Type             X           Y           Z
 ---------------------------------------------------------------------
      1          1           0        0.788546    0.976740    0.722669
      2          1           0       -1.006747    1.060882    0.000000
      3          1           0        0.788546    0.976740   -0.722669
      4          6           0       -0.038023    0.569388    0.000000
      5          9           0       -0.038023   -0.714521   -0.000000
 ---------------------------------------------------------------------

 SCF Done:  E(UB3LYP) =  -139.341315572     A.U. after   11 cycles

 The electronic state is 2-A".
 Alpha  occ. eigenvalues --  -25.06622 -10.62369  -1.60899  -1.06669  -0.89092
 Alpha  occ. eigenvalues --   -0.86173  -0.85886  -0.71376  -0.67883
 Alpha virt. eigenvalues --   -0.22921  -0.21000  -0.20703  -0.15068  -0.12202
 Alpha virt. eigenvalues --   -0.10450  -0.07160  -0.05391  -0.04521  -0.03914
 Alpha virt. eigenvalues --   -0.01952   0.01878   0.02616   0.08812   0.10672

  Beta  occ. eigenvalues --  -25.05561 -10.61837  -1.58750  -1.03188  -0.87242
  Beta  occ. eigenvalues --   -0.85180  -0.79741  -0.70061
  Beta virt. eigenvalues --   -0.53899  -0.22038  -0.19915  -0.17451  -0.14933
  Beta virt. eigenvalues --   -0.11640  -0.09875  -0.06605  -0.04906  -0.04177
  Beta virt. eigenvalues --   -0.03116  -0.01812   0.02268   0.03624   0.09383

 Mulliken charges and spin densities:
               1          2
     1  H    0.290993   0.206121
     2  H    0.252425  -0.014295
     3  H    0.290993   0.206121
     4  C    0.215467   0.329779
     5  F   -0.049878   0.272274
 Sum of Mulliken charges =   1.00000   1.00000

 Dipole moment (field-independent basis, Debye):
    X=              1.0814    Y=              3.6852    Z=              0.0000  Tot=              3.8406
 Quadrupole moment (field-independent basis, Debye-Ang):
   XX=             -7.5966   YY=             -6.6857   ZZ=             -8.8898
   XY=              1.1805   XZ=              0.0000   YZ=             -0.0000

  Exact polarizability:  13.322   1.499  17.398  -0.000  -0.000  12.598
 Approx polarizability:  16.886   2.913  25.939  -0.000  -0.000  16.747

                      1                      2                      3
                     A"                     A"                     A'
 Frequencies --    763.1138               959.9780              1003.4160
 Red. masses --      1.4193                 1.0297                 1.1297
 Frc consts  --      0.4870                 0.5591                 0.6701
 IR Inten    --    104.6469                13.5241               111.6798

                      4                      5                      6
                     A'                     A'                     A'
 Frequencies --   1072.4977              1308.0972              1459.8088
 Red. masses --      1.2900                 3.1687                 1.3145
 Frc consts  --      0.8742                 3.1945                 1.6504
 IR Inten    --     52.2331               101.5733                15.3277

                      7                      8                      9
                     A"                     A'                     A'
 Frequencies --   2154.5987              2521.6284              3179.8980
 Red. masses --      1.0272                 1.0803                 1.1006
 Frc consts  --      2.8095                 4.0472                 6.5573
 IR Inten    --    184.7822                94.7133                36.0029

 - Thermochemistry -
 -------------------
 Temperature   298.150 Kelvin.  Pressure   1.00000 Atm.
 Atom     1 has atomic number  1 and mass   1.00783

 Molecular mass:    34.02188 amu.
 Principal axes and moments of inertia in atomic units:
                           1         2         3
     Eigenvalues --    11.89080  61.88067  66.25313
           X            0.04768   0.99886   0.00000
           Y            0.99886  -0.04768   0.00000
           Z            0.00000   0.00000   1.00000
 This molecule is an asymmetric top.
 Rotational symmetry number  1.
 Rotational temperatures (Kelvin)      7.28410     1.39969     1.30732
 Rotational constants (GHZ):         151.77627    29.16486    27.24009
 Zero-point vibrational energy      86268.9 (Joules/Mol)
                                   20.61877 (Kcal/Mol)
 Vibrational temperatures:   1097.95  1381.19  1443.69  1543.08  1882.06
          (Kelvin)           2100.34  3099.98  3628.06  4575.16

 Zero-point correction=                           0.032858 (Hartree/Particle)
 Thermal correction to Energy=                    0.035905
 Thermal correction to Enthalpy=                  0.036849
 Thermal correction to Gibbs Free Energy=         0.009784
 Sum of electronic and zero-point Energies=           -139.308457
 Sum of electronic and thermal Energies=              -139.305411
 Sum of electronic and thermal Enthalpies=            -139.304467
 Sum of electronic and thermal Free Energies=         -139.331532

                     E (Thermal)             CV                S
                      KCal/Mol        Cal/Mol-Kelvin    Cal/Mol-Kelvin
 Total                   22.530              8.015             56.963
 Electronic               0.000              0.000              1.377
 Translational            0.889              2.981             36.504
 Rotational               0.889              2.981             18.528
 Vibrational             20.753              2.053              0.553

 Optimization completed.
    -- Stationary point found.
 Normal termination of Gaussian 09 at Sat Jul  2 15:40:18 2016.
