 Gaussian 09, Revision E.01,
 Gaussian 09:  EM64L-G09RevE.01 30-Nov-2015

 ---------------------------------------------
 #p b3lyp/6-311++G(3df,2p) freq symmetry=Loose
 ---------------------------------------------

 ---------
 b3lyp opt
 ---------
 Symbolic Z-matrix:
 Charge =  1 Multiplicity = 2

                         Standard orientation:
 ---------------------------------------------------------------------
 Center     Atomic      Atomic             Coordinates (Angstroms)
 Number     Number       Type             X           Y           Z
 ---------------------------------------------------------------------
      1          1           0       -0.000000    0.000000    1.369541
      2          1           0       -0.000000    0.414153   -0.766292
      3          1           0       -0.000000    0.000000    0.163044
      4          1           0        0.000000   -0.414153   -0.766292
 ---------------------------------------------------------------------

 SCF Done:  E(UB3LYP) =  -1.86662192003     A.U. after    9 cycles

 The electronic state is 2-A1.
 Alpha  occ. eigenvalues --   -0.97018  -0.67500
 Alpha virt. eigenvalues --   -0.29265  -0.27687  -0.14644  -0.11010  -0.07271
 Alpha virt. eigenvalues --   -0.05314   0.02068   0.09415   0.15514   0.18690
 Alpha virt. eigenvalues --    0.21249   0.23843   0.24527   0.42435   0.53303

  Beta  occ. eigenvalues --   -0.93869
  Beta virt. eigenvalues --   -0.47964  -0.28282  -0.22290  -0.13105  -0.09495
  Beta virt. eigenvalues --   -0.07059  -0.04630   0.03500   0.10200   0.19439
  Beta virt. eigenvalues --    0.23237   0.23926   0.25622   0.30698   0.46185

 Mulliken charges and spin densities:
               1          2
     1  H    0.273929   0.692736
     2  H    0.260570   0.092011
     3  H    0.204930   0.123243
     4  H    0.260570   0.092011
 Sum of Mulliken charges =   1.00000   1.00000

 Dipole moment (field-independent basis, Debye):
    X=             -0.0000    Y=             -0.0000    Z=             -0.0446  Tot=              0.0446
 Quadrupole moment (field-independent basis, Debye-Ang):
   XX=             -2.6022   YY=             -1.5734   ZZ=              2.2106
   XY=             -0.0000   XZ=             -0.0000   YZ=              0.0000

  Exact polarizability:   3.662  -0.000   5.464   0.000   0.000  14.861
 Approx polarizability:   3.792  -0.000   6.420  -0.000  -0.000  16.503

                      1                      2                      3
                     B2                     A1                     B1
 Frequencies --    654.2651               839.6017               851.0986
 Red. masses --      1.0078                 1.0078                 1.0078
 Frc consts  --      0.2542                 0.4186                 0.4301
 IR Inten    --      0.1643               229.0738                 2.6562

                      4                      5                      6
                     B2                     A1                     A1
 Frequencies --   1709.0432              1775.0718              3468.1429
 Red. masses --      1.0078                 1.0078                 1.0078
 Frc consts  --      1.7344                 1.8710                 7.1422
 IR Inten    --     82.2385               768.8588               235.7012

 - Thermochemistry -
 -------------------
 Temperature   298.150 Kelvin.  Pressure   1.00000 Atm.
 Atom     1 has atomic number  1 and mass   1.00783

 Molecular mass:     4.03130 amu.
 Principal axes and moments of inertia in atomic units:
                           1         2         3
     Eigenvalues --     1.23462  11.07283  12.30745
           X            0.00000  -0.00000   1.00000
           Y            0.00000   1.00000   0.00000
           Z            1.00000  -0.00000  -0.00000
 This molecule is an asymmetric top.
 Rotational symmetry number  2.
 Rotational temperatures (Kelvin)     70.15417     7.82219     7.03751
 Rotational constants (GHZ):        1461.77750   162.98822   146.63807
 Zero-point vibrational energy      55609.7 (Joules/Mol)
                                   13.29105 (Kcal/Mol)
 Vibrational temperatures:    941.34  1208.00  1224.54  2458.93  2553.93
          (Kelvin)           4989.88

 Zero-point correction=                           0.021181 (Hartree/Particle)
 Thermal correction to Energy=                    0.024282
 Thermal correction to Enthalpy=                  0.025226
 Thermal correction to Gibbs Free Energy=         0.004433
 Sum of electronic and zero-point Energies=             -1.845441
 Sum of electronic and thermal Energies=                -1.842340
 Sum of electronic and thermal Enthalpies=              -1.841396
 Sum of electronic and thermal Free Energies=           -1.862189

                     E (Thermal)             CV                S
                      KCal/Mol        Cal/Mol-Kelvin    Cal/Mol-Kelvin
 Total                   15.237              8.102             43.763
 Electronic               0.000              0.000              1.377
 Translational            0.889              2.981             30.146
 Rotational               0.889              2.981             11.518
 Vibrational             13.460              2.140              0.721

 Optimization completed.
    -- Stationary point found.
 Normal termination of Gaussian 09 at Sat Jul  2 15:37:58 2016.
