 Gaussian 09, Revision E.01,
 Gaussian 09:  EM64L-G09RevE.01 30-Nov-2015

 ------------------------------
 #p b3lyp/6-311++G(3df,2p) freq
 ------------------------------

 ---------
 b3lyp opt
 ---------
 Symbolic Z-matrix:
 Charge =  1 Multiplicity = 2

                         Standard orientation:
 ---------------------------------------------------------------------
 Center     Atomic      Atomic             Coordinates (Angstroms)
 Number     Number       Type             X           Y           Z
 ---------------------------------------------------------------------
      1          6           0        0.000000    0.000000    0.000000
      2          1           0       -0.000000    1.055676    0.373782
      3          1           0       -0.000000   -1.055676    0.373782
      4          1           0       -1.055676    0.000000   -0.373782
      5          1           0        1.055676   -0.000000   -0.373782
 ---------------------------------------------------------------------

 SCF Done:  E(UB3LYP) =  -40.0700874141     A.U. after    8 cycles

 The electronic state is 2-B2.
 Alpha  occ. eigenvalues --  -10.55123  -1.07253  -0.79249  -0.79249  -0.67481
 Alpha virt. eigenvalues --   -0.25594  -0.21969  -0.14697  -0.14697  -0.12077
 Alpha virt. eigenvalues --   -0.09301  -0.09301  -0.06970  -0.04421  -0.03696
 Alpha virt. eigenvalues --   -0.02403  -0.01697  -0.01697   0.10764   0.12955

  Beta  occ. eigenvalues --  -10.54123  -1.02953  -0.76888  -0.76888
  Beta virt. eigenvalues --   -0.52785  -0.23082  -0.20981  -0.14336  -0.14336
  Beta virt. eigenvalues --   -0.11046  -0.08429  -0.08429  -0.05357  -0.04043
  Beta virt. eigenvalues --   -0.03063  -0.02200  -0.01240  -0.01240   0.11486

 Mulliken charges and spin densities:
               1          2
     1  C   -0.190146   0.635092
     2  H    0.297537   0.091227
     3  H    0.297537   0.091227
     4  H    0.297537   0.091227
     5  H    0.297537   0.091227
 Sum of Mulliken charges =   1.00000   1.00000

 Dipole moment (field-independent basis, Debye):
    X=              0.0000    Y=             -0.0000    Z=             -0.0000  Tot=              0.0000
 Quadrupole moment (field-independent basis, Debye-Ang):
   XX=             -3.8441   YY=             -3.8441   ZZ=             -6.1762
   XY=             -0.0000   XZ=             -0.0000   YZ=             -0.0000

  Exact polarizability:  14.016   0.000  14.016  -0.000   0.000  10.182
 Approx polarizability:  18.889  -0.000  18.889  -0.000  -0.000  12.808

                      1                      2                      3
                      E                      E                     B2
 Frequencies --    358.6485               358.6485              1065.6054
 Red. masses --      1.1740                 1.1740                 1.2634
 Frc consts  --      0.0890                 0.0890                 0.8452
 IR Inten    --    326.0181               326.0181                77.3880

                      4                      5                      6
                     A1                     B1                     B2
 Frequencies --   1296.4778              1446.5661              2665.7559
 Red. masses --      1.0078                 1.0078                 1.0369
 Frc consts  --      0.9981                 1.2425                 4.3416
 IR Inten    --      0.0000                 0.0000                86.7701

                      7                      8                      9
                     A1                      E                      E
 Frequencies --   2800.0888              2861.9520              2861.9520
 Red. masses --      1.0078                 1.1060                 1.1060
 Frc consts  --      4.6556                 5.3374                 5.3374
 IR Inten    --      0.0000               318.8540               318.8540

 - Thermochemistry -
 -------------------
 Temperature   298.150 Kelvin.  Pressure   1.00000 Atm.
 Atom     1 has atomic number  6 and mass  12.00000

 Molecular mass:    16.03130 amu.
 Principal axes and moments of inertia in atomic units:
                           1         2         3
     Eigenvalues --    10.03316  10.03316  16.04369
           X           -0.45813   0.88889   0.00000
           Y            0.88889   0.45813   0.00000
           Z           -0.00000  -0.00000   1.00000
 This molecule is an oblate symmetric top.
 Rotational symmetry number  4.
 Rotational temperatures (Kelvin)      8.63276     8.63276     5.39862
 Rotational constants (GHZ):         179.87773   179.87773   112.48914
 Zero-point vibrational energy      94000.7 (Joules/Mol)
                                   22.46671 (Kcal/Mol)
 Warning -- explicit consideration of   2 degrees of freedom as
           vibrations may cause significant error
 Vibrational temperatures:    516.01   516.01  1533.17  1865.34  2081.28
          (Kelvin)           3835.42  4028.70  4117.71  4117.71

 Zero-point correction=                           0.035803 (Hartree/Particle)
 Thermal correction to Energy=                    0.039385
 Thermal correction to Enthalpy=                  0.040329
 Thermal correction to Gibbs Free Energy=         0.016384
 Sum of electronic and zero-point Energies=            -40.034284
 Sum of electronic and thermal Energies=               -40.030702
 Sum of electronic and thermal Enthalpies=             -40.029758
 Sum of electronic and thermal Free Energies=          -40.053703

                     E (Thermal)             CV                S
                      KCal/Mol        Cal/Mol-Kelvin    Cal/Mol-Kelvin
 Total                   24.715              9.629             50.397
 Electronic               0.000              0.000              1.377
 Translational            0.889              2.981             34.261
 Rotational               0.889              2.981             12.388
 Vibrational             22.937              3.668              2.370
 Vibration     1          0.733              1.557              1.128
 Vibration     2          0.733              1.557              1.128

 Optimization completed.
    -- Stationary point found.
 Normal termination of Gaussian 09 at Thu Jul  7 22:47:50 2016.
