 Gaussian 09, Revision E.01,
 Gaussian 09:  EM64L-G09RevE.01 30-Nov-2015

 ---------------------------------------------
 #p b3lyp/6-311++G(3df,2p) freq symmetry=Loose
 ---------------------------------------------

 ---------
 b3lyp opt
 ---------
 Symbolic Z-matrix:
 Charge =  0 Multiplicity = 4

                         Standard orientation:
 ---------------------------------------------------------------------
 Center     Atomic      Atomic             Coordinates (Angstroms)
 Number     Number       Type             X           Y           Z
 ---------------------------------------------------------------------
      1          6           0        0.000000    0.000000    0.156218
      2          1           0        0.000000    0.000000   -0.937310
 ---------------------------------------------------------------------

 SCF Done:  E(UB3LYP) =  -38.4621799995     A.U. after    9 cycles

 The electronic state is 4-SG.
 Alpha  occ. eigenvalues --  -10.25522  -0.67297  -0.39381  -0.26391  -0.26391
 Alpha virt. eigenvalues --    0.00222   0.06207   0.07025   0.07025   0.11198
 Alpha virt. eigenvalues --    0.14502   0.30346   0.30346   0.32950   0.32951
 Alpha virt. eigenvalues --    0.35945   0.51736   0.51736   0.52005   0.60746

  Beta  occ. eigenvalues --  -10.21108  -0.55909
  Beta virt. eigenvalues --   -0.17260  -0.06589  -0.06589   0.00867   0.08119
  Beta virt. eigenvalues --    0.09774   0.09774   0.12449   0.17393   0.33789
  Beta virt. eigenvalues --    0.33789   0.36764   0.36764   0.39699   0.58652

 Mulliken charges and spin densities:
               1          2
     1  C   -0.220824   2.846497
     2  H    0.220824   0.153503
 Sum of Mulliken charges =   0.00000   3.00000

 Dipole moment (field-independent basis, Debye):
    X=              0.0000    Y=              0.0000    Z=             -0.6925  Tot=              0.6925
 Quadrupole moment (field-independent basis, Debye-Ang):
   XX=             -7.5914   YY=             -7.5914   ZZ=             -5.5006
   XY=              0.0000   XZ=              0.0000   YZ=              0.0000

  Exact polarizability:  12.831  -0.000  12.831   0.000   0.000  13.375
 Approx polarizability:  13.596  -0.000  13.596  -0.000  -0.000  16.169

                      1
                     SG
 Frequencies --   3045.4487
 Red. masses --      1.0848
 Frc consts  --      5.9280
 IR Inten    --     51.2451

 - Thermochemistry -
 -------------------
 Temperature   298.150 Kelvin.  Pressure   1.00000 Atm.
 Atom     1 has atomic number  6 and mass  12.00000

 Molecular mass:    13.00783 amu.
 Principal axes and moments of inertia in atomic units:
                           1         2         3
     Eigenvalues --     0.00000   3.97026   3.97026
           X            0.00000  -0.00000   1.00000
           Y            0.00000   1.00000   0.00000
           Z            1.00000   0.00000   0.00000
 This molecule is a prolate symmetric top.
 Rotational symmetry number  1.
 Rotational temperature (Kelvin)     21.81564
 Rotational constant (GHZ):         454.564670
 Zero-point vibrational energy      18215.8 (Joules/Mol)
                                    4.35369 (Kcal/Mol)
 Vibrational temperatures:   4381.72
          (Kelvin)

 Zero-point correction=                           0.006938 (Hartree/Particle)
 Thermal correction to Energy=                    0.009299
 Thermal correction to Enthalpy=                  0.010243
 Thermal correction to Gibbs Free Energy=        -0.010462
 Sum of electronic and zero-point Energies=            -38.455242
 Sum of electronic and thermal Energies=               -38.452881
 Sum of electronic and thermal Enthalpies=             -38.451937
 Sum of electronic and thermal Free Energies=          -38.472642

                     E (Thermal)             CV                S
                      KCal/Mol        Cal/Mol-Kelvin    Cal/Mol-Kelvin
 Total                    5.835              4.968             43.577
 Electronic               0.000              0.000              2.755
 Translational            0.889              2.981             33.638
 Rotational               0.592              1.987              7.184
 Vibrational              4.354              0.000              0.000

 Optimization completed.
    -- Stationary point found.
 Normal termination of Gaussian 09 at Sun Jun 19 04:46:45 2016.
