 Gaussian 09, Revision E.01,
 Gaussian 09:  EM64L-G09RevE.01 30-Nov-2015

 ---------------------------------------------
 #p b3lyp/6-311++G(3df,2p) freq symmetry=Loose
 ---------------------------------------------

 ---------
 b3lyp opt
 ---------
 Symbolic Z-matrix:
 Charge =  0 Multiplicity = 4

                         Standard orientation:
 ---------------------------------------------------------------------
 Center     Atomic      Atomic             Coordinates (Angstroms)
 Number     Number       Type             X           Y           Z
 ---------------------------------------------------------------------
      1          1           0        0.900390   -1.155899    0.000000
      2          6           0       -0.075033   -0.630116    0.000000
      3          6           0       -0.075033    0.822766    0.000000
 ---------------------------------------------------------------------

 SCF Done:  E(UB3LYP) =  -76.5020129404     A.U. after   13 cycles

 The electronic state is 4-A".
 Alpha  occ. eigenvalues --  -10.28445 -10.26417  -0.80087  -0.56780  -0.38746
 Alpha  occ. eigenvalues --   -0.34833  -0.34605  -0.20077
 Alpha virt. eigenvalues --   -0.08227  -0.00172   0.04553   0.05372   0.05831
 Alpha virt. eigenvalues --    0.08918   0.10093   0.10942   0.11923   0.14279
 Alpha virt. eigenvalues --    0.16260   0.25785   0.26004   0.31832   0.37650

  Beta  occ. eigenvalues --  -10.26343 -10.24058  -0.72185  -0.51229  -0.30597
  Beta virt. eigenvalues --   -0.19884  -0.18332  -0.03515  -0.00870   0.00288
  Beta virt. eigenvalues --    0.05155   0.06573   0.06868   0.09193   0.11576
  Beta virt. eigenvalues --    0.12179   0.12511   0.15597   0.17379   0.28324

 Mulliken charges and spin densities:
               1          2
     1  H    0.155122   0.055155
     2  C    0.009843   1.389094
     3  C   -0.164965   1.555751
 Sum of Mulliken charges =  -0.00000   3.00000

 Dipole moment (field-independent basis, Debye):
    X=              0.3974    Y=             -1.6251    Z=              0.0000  Tot=              1.6730
 Quadrupole moment (field-independent basis, Debye-Ang):
   XX=            -13.1295   YY=            -14.2004   ZZ=            -11.8572
   XY=             -1.6471   XZ=              0.0000   YZ=              0.0000

  Exact polarizability:  22.913   0.551  46.001  -0.000  -0.000  21.553
 Approx polarizability:  27.369   0.992  67.514  -0.000  -0.000  25.644

                      1                      2                      3
                     A'                     A'                     A'
 Frequencies --    868.8825              1171.5500              2871.8953
 Red. masses --      1.3265                 5.7100                 1.0813
 Frc consts  --      0.5900                 4.6175                 5.2546
 IR Inten    --    222.3034                14.0777                69.6059

 - Thermochemistry -
 -------------------
 Temperature   298.150 Kelvin.  Pressure   1.00000 Atm.
 Atom     1 has atomic number  1 and mass   1.00783

 Molecular mass:    25.00783 amu.
 Principal axes and moments of inertia in atomic units:
                           1         2         3
     Eigenvalues --     2.91338  51.01714  53.93052
           X           -0.08804   0.99612   0.00000
           Y            0.99612   0.08804   0.00000
           Z           -0.00000   0.00000   1.00000
 This molecule is an asymmetric top.
 Rotational symmetry number  1.
 Rotational temperatures (Kelvin)     29.72968     1.69774     1.60603
 Rotational constants (GHZ):         619.46671    35.37520    33.46419
 Zero-point vibrational energy      29382.2 (Joules/Mol)
                                    7.02253 (Kcal/Mol)
 Vibrational temperatures:   1250.13  1685.60  4132.01
          (Kelvin)

 Zero-point correction=                           0.011191 (Hartree/Particle)
 Thermal correction to Energy=                    0.014103
 Thermal correction to Enthalpy=                  0.015047
 Thermal correction to Gibbs Free Energy=        -0.011218
 Sum of electronic and zero-point Energies=            -76.490822
 Sum of electronic and thermal Energies=               -76.487910
 Sum of electronic and thermal Enthalpies=             -76.486966
 Sum of electronic and thermal Free Energies=          -76.513231

                     E (Thermal)             CV                S
                      KCal/Mol        Cal/Mol-Kelvin    Cal/Mol-Kelvin
 Total                    8.850              6.730             55.281
 Electronic               0.000              0.000              2.755
 Translational            0.889              2.981             35.587
 Rotational               0.889              2.981             16.735
 Vibrational              7.072              0.768              0.205

 Optimization completed.
    -- Stationary point found.
 Normal termination of Gaussian 09 at Sun Jun 19 04:44:08 2016.
