 Gaussian 09, Revision E.01,
 Gaussian 09:  EM64L-G09RevE.01 30-Nov-2015

 ---------------------------------------------
 #p b3lyp/6-311++G(3df,2p) freq symmetry=Loose
 ---------------------------------------------

 ---------
 b3lyp opt
 ---------
 Symbolic Z-matrix:
 Charge =  1 Multiplicity = 3

                         Standard orientation:
 ---------------------------------------------------------------------
 Center     Atomic      Atomic             Coordinates (Angstroms)
 Number     Number       Type             X           Y           Z
 ---------------------------------------------------------------------
      1          1           0        0.000000   -0.000000   -1.576368
      2          6           0        0.000000   -0.000000   -0.492927
      3          6           0        0.000000    0.000000    0.755655
 ---------------------------------------------------------------------

 SCF Done:  E(UB3LYP) =  -76.2116660611     A.U. after   11 cycles

 Unable to determine electronic state:  partially filled degenerate orbitals.
 Alpha  occ. eigenvalues --  -10.65347 -10.61033  -1.16764  -0.89616  -0.75576
 Alpha  occ. eigenvalues --   -0.70666  -0.66998
 Alpha virt. eigenvalues --   -0.35903  -0.33010  -0.18815  -0.16651  -0.11877
 Alpha virt. eigenvalues --   -0.11440  -0.09908  -0.05104  -0.05094  -0.04739
 Alpha virt. eigenvalues --   -0.00672   0.02895   0.02945   0.03452   0.12959

  Beta  occ. eigenvalues --  -10.62195 -10.60163  -1.10644  -0.87515  -0.64425
  Beta virt. eigenvalues --   -0.53978  -0.51565  -0.29658  -0.26591  -0.17950
  Beta virt. eigenvalues --   -0.15974  -0.11398  -0.11023  -0.08652  -0.04409
  Beta virt. eigenvalues --   -0.04066  -0.03963  -0.00120   0.03863   0.04134

 Mulliken charges and spin densities:
               1          2
     1  H    0.402575   0.007189
     2  C    0.384477   0.264609
     3  C    0.212948   1.728202
 Sum of Mulliken charges =   1.00000   2.00000

 Dipole moment (field-independent basis, Debye):
    X=              0.0000    Y=             -0.0000    Z=             -0.6896  Tot=              0.6896
 Quadrupole moment (field-independent basis, Debye-Ang):
   XX=            -10.4510   YY=             -8.7653   ZZ=             -2.7861
   XY=             -0.0000   XZ=             -0.0000   YZ=              0.0000

  Exact polarizability:  14.572   0.000  10.568  -0.000   0.000  19.835
 Approx polarizability:  14.998  -0.000  13.934  -0.000   0.000  36.461

                      1                      2                      3
                     PI                     PI                     SG
 Frequencies --    489.8849               788.8318              1896.9660
 Red. masses --      1.3271                 1.3271                 5.7792
 Frc consts  --      0.1877                 0.4866                12.2529
 IR Inten    --      7.5329                18.8264                11.7054

                      4
                     SG
 Frequencies --   3259.8340
 Red. masses --      1.1549
 Frc consts  --      7.2305
 IR Inten    --    243.9024

 - Thermochemistry -
 -------------------
 Temperature   298.150 Kelvin.  Pressure   1.00000 Atm.
 Atom     1 has atomic number  1 and mass   1.00783

 Molecular mass:    25.00783 amu.
 Principal axes and moments of inertia in atomic units:
                           1         2         3
     Eigenvalues --    -0.00000  43.47579  43.47579
           X           -0.00000  -0.00000   1.00000
           Y            0.00000   1.00000   0.00000
           Z            1.00000  -0.00000   0.00000
 This molecule is a prolate symmetric top.
 Rotational symmetry number  1.
 Rotational temperature (Kelvin)      1.99223
 Rotational constant (GHZ):          41.511405
 Zero-point vibrational energy      38492.9 (Joules/Mol)
                                    9.20003 (Kcal/Mol)
 Warning -- explicit consideration of   1 degrees of freedom as
           vibrations may cause significant error
 Vibrational temperatures:    704.83  1134.95  2729.31  4690.17
          (Kelvin)

 Zero-point correction=                           0.014661 (Hartree/Particle)
 Thermal correction to Energy=                    0.017336
 Thermal correction to Enthalpy=                  0.018280
 Thermal correction to Gibbs Free Energy=        -0.005767
 Sum of electronic and zero-point Energies=            -76.197005
 Sum of electronic and thermal Energies=               -76.194330
 Sum of electronic and thermal Enthalpies=             -76.193386
 Sum of electronic and thermal Free Energies=          -76.217433

                     E (Thermal)             CV                S
                      KCal/Mol        Cal/Mol-Kelvin    Cal/Mol-Kelvin
 Total                   10.878              6.928             50.612
 Electronic               0.000              0.000              2.183
 Translational            0.889              2.981             35.587
 Rotational               0.592              1.987             11.940
 Vibrational              9.397              1.959              0.903
 Vibration     1          0.846              1.272              0.684

 Optimization completed.
    -- Stationary point found.
 Normal termination of Gaussian 09 at Sun Jun 19 04:44:05 2016.
