 Gaussian 09, Revision E.01,
 Gaussian 09:  EM64L-G09RevE.01 30-Nov-2015

 ---------------------------------------------
 #p b3lyp/6-311++G(3df,2p) freq symmetry=Loose
 ---------------------------------------------

 ---------
 b3lyp opt
 ---------
 Symbolic Z-matrix:
 Charge =  1 Multiplicity = 1

                         Standard orientation:
 ---------------------------------------------------------------------
 Center     Atomic      Atomic             Coordinates (Angstroms)
 Number     Number       Type             X           Y           Z
 ---------------------------------------------------------------------
      1          1           0       -0.518397    1.479485    0.000000
      2          6           0        0.043200    0.541910    0.000000
      3          6           0        0.043200   -0.788491   -0.000000
 ---------------------------------------------------------------------

 SCF Done:  E(RB3LYP) =  -76.1567267328     A.U. after   12 cycles

 The electronic state is 1-A'.
 Alpha  occ. eigenvalues --  -10.65630 -10.63998  -1.14105  -0.89886  -0.66888
 Alpha  occ. eigenvalues --   -0.65477
 Alpha virt. eigenvalues --   -0.58782  -0.36751  -0.34309  -0.18593  -0.16092
 Alpha virt. eigenvalues --   -0.11943  -0.11595  -0.08548  -0.05499  -0.04813
 Alpha virt. eigenvalues --   -0.04781  -0.01967   0.00470   0.02269   0.03404

 Mulliken charges:
               1
     1  H    0.312254
     2  C    0.364984
     3  C    0.322762
 Sum of Mulliken charges =   1.00000

 Dipole moment (field-independent basis, Debye):
    X=              0.4726    Y=              1.8515    Z=              0.0000  Tot=              1.9109
 Quadrupole moment (field-independent basis, Debye-Ang):
   XX=             -7.8762   YY=             -4.8928   ZZ=            -10.9272
   XY=             -1.7848   XZ=             -0.0000   YZ=              0.0000

  Exact polarizability:  12.485  -1.317  28.407   0.001  -0.000  34.370
 Approx polarizability:  18.717  -1.223  75.960  -0.000   0.000  18.746

                      1                      2                      3
                     A'                     A'                     A'
 Frequencies --    644.6231              1386.0097              3138.4302
 Red. masses --      1.3232                 6.5901                 1.1043
 Frc consts  --      0.3240                 7.4589                 6.4084
 IR Inten    --    156.2383                77.8944               163.1033

 - Thermochemistry -
 -------------------
 Temperature   298.150 Kelvin.  Pressure   1.00000 Atm.
 Atom     1 has atomic number  1 and mass   1.00783

 Molecular mass:    25.00783 amu.
 Principal axes and moments of inertia in atomic units:
                           1         2         3
     Eigenvalues --     0.87885  47.00734  47.88619
           X           -0.06755   0.99772   0.00000
           Y            0.99772   0.06755   0.00000
           Z           -0.00000  -0.00000   1.00000
 This molecule is an asymmetric top.
 Rotational symmetry number  1.
 Rotational temperatures (Kelvin)     98.55325     1.84256     1.80874
 Rotational constants (GHZ):        2053.51907    38.39276    37.68813
 Zero-point vibrational energy      30917.9 (Joules/Mol)
                                    7.38955 (Kcal/Mol)
 Vibrational temperatures:    927.47  1994.16  4515.50
          (Kelvin)

 Zero-point correction=                           0.011776 (Hartree/Particle)
 Thermal correction to Energy=                    0.014753
 Thermal correction to Enthalpy=                  0.015698
 Thermal correction to Gibbs Free Energy=        -0.008690
 Sum of electronic and zero-point Energies=            -76.144951
 Sum of electronic and thermal Energies=               -76.141973
 Sum of electronic and thermal Enthalpies=             -76.141029
 Sum of electronic and thermal Free Energies=          -76.165417

                     E (Thermal)             CV                S
                      KCal/Mol        Cal/Mol-Kelvin    Cal/Mol-Kelvin
 Total                    9.258              7.012             51.329
 Electronic               0.000              0.000              0.000
 Translational            0.889              2.981             35.587
 Rotational               0.889              2.981             15.344
 Vibrational              7.480              1.050              0.398

 Optimization completed.
    -- Stationary point found.
 Normal termination of Gaussian 09 at Sun Jun 19 04:44:02 2016.
