 Gaussian 09, Revision E.01,
 Gaussian 09:  EM64L-G09RevE.01 30-Nov-2015

 ---------------------------------------------
 #p b3lyp/6-311++G(3df,2p) freq symmetry=Loose
 ---------------------------------------------

 ---------
 b3lyp opt
 ---------
 Symbolic Z-matrix:
 Charge =  0 Multiplicity = 4

                         Standard orientation:
 ---------------------------------------------------------------------
 Center     Atomic      Atomic             Coordinates (Angstroms)
 Number     Number       Type             X           Y           Z
 ---------------------------------------------------------------------
      1          1           0        0.000000    0.000000   -2.203284
      2          6           0       -0.000000    0.000000   -1.141521
      3          6           0        0.000000   -0.000000    0.111922
      4          6           0        0.000000   -0.000000    1.396813
 ---------------------------------------------------------------------

 SCF Done:  E(UB3LYP) =  -114.668292698     A.U. after   14 cycles

 The electronic state is 4-SG.
 Alpha  occ. eigenvalues --  -10.26762 -10.21663 -10.21368  -0.82066  -0.72343
 Alpha  occ. eigenvalues --   -0.55247  -0.42816  -0.37697  -0.37697  -0.24347
 Alpha  occ. eigenvalues --   -0.24347
 Alpha virt. eigenvalues --   -0.00072   0.03134   0.03738   0.03738   0.05661
 Alpha virt. eigenvalues --    0.08138   0.08138   0.09418   0.09418   0.09699
 Alpha virt. eigenvalues --    0.11932   0.15957   0.15957   0.19081   0.20078

  Beta  occ. eigenvalues --  -10.22917 -10.21747 -10.19947  -0.79085  -0.66116
  Beta  occ. eigenvalues --   -0.53394  -0.33365  -0.33365
  Beta virt. eigenvalues --   -0.19226  -0.09615  -0.09615   0.00161   0.04102
  Beta virt. eigenvalues --    0.04404   0.04404   0.06494   0.10306   0.10358
  Beta virt. eigenvalues --    0.10358   0.12084   0.12084   0.12487   0.16866

 Mulliken charges and spin densities:
               1          2
     1  H    0.323883  -0.031843
     2  C   -0.053575   1.170189
     3  C    0.043802  -0.341519
     4  C   -0.314109   2.203173
 Sum of Mulliken charges =  -0.00000   3.00000

 Dipole moment (field-independent basis, Debye):
    X=              0.0000    Y=             -0.0000    Z=             -0.7204  Tot=              0.7204
 Quadrupole moment (field-independent basis, Debye-Ang):
   XX=            -18.5235   YY=            -18.5235   ZZ=            -12.5183
   XY=              0.0000   XZ=             -0.0000   YZ=              0.0000

  Exact polarizability:  23.665   0.000  23.665  -0.000   0.000  55.759
 Approx polarizability:  29.875  -0.000  29.875   0.000  -0.000  99.092

                      1                      2                      3
                     PI                     PI                     PI
 Frequencies --    267.6799               267.6799               435.6946
 Red. masses --      1.5134                 1.5134                 3.5285
 Frc consts  --      0.0639                 0.0639                 0.3946
 IR Inten    --     44.3779                44.3779                13.6393

                      4                      5                      6
                     PI                     SG                     SG
 Frequencies --    435.6946              1287.8528              1724.9065
 Red. masses --      3.5285                 8.1640                 8.5410
 Frc consts  --      0.3946                 7.9778                14.9723
 IR Inten    --     13.6393                 0.5799                 0.6297

                      7
                     SG
 Frequencies --   3442.0664
 Red. masses --      1.1178
 Frc consts  --      7.8032
 IR Inten    --     67.4614

 - Thermochemistry -
 -------------------
 Temperature   298.150 Kelvin.  Pressure   1.00000 Atm.
 Atom     1 has atomic number  1 and mass   1.00783

 Molecular mass:    37.00783 amu.
 Principal axes and moments of inertia in atomic units:
                           1         2         3
     Eigenvalues --     0.00000 156.99665 156.99665
           X            0.00000   0.81181  -0.58392
           Y           -0.00000   0.58392   0.81181
           Z            1.00000  -0.00000   0.00000
 This molecule is a prolate symmetric top.
 Rotational symmetry number  1.
 Rotational temperature (Kelvin)      0.55169
 Rotational constant (GHZ):          11.495413
 Zero-point vibrational energy      47022.7 (Joules/Mol)
                                   11.23869 (Kcal/Mol)
 Warning -- explicit consideration of   4 degrees of freedom as
           vibrations may cause significant error
 Vibrational temperatures:    385.13   385.13   626.87   626.87  1852.93
          (Kelvin)           2481.75  4952.36

 Zero-point correction=                           0.017910 (Hartree/Particle)
 Thermal correction to Energy=                    0.021761
 Thermal correction to Enthalpy=                  0.022705
 Thermal correction to Gibbs Free Energy=        -0.005298
 Sum of electronic and zero-point Energies=           -114.650383
 Sum of electronic and thermal Energies=              -114.646532
 Sum of electronic and thermal Enthalpies=            -114.645588
 Sum of electronic and thermal Free Energies=         -114.673591

                     E (Thermal)             CV                S
                      KCal/Mol        Cal/Mol-Kelvin    Cal/Mol-Kelvin
 Total                   13.655             11.405             58.937
 Electronic               0.000              0.000              2.755
 Translational            0.889              2.981             36.755
 Rotational               0.592              1.987             14.491
 Vibrational             12.174              6.437              4.936
 Vibration     1          0.673              1.732              1.611
 Vibration     2          0.673              1.732              1.611
 Vibration     3          0.796              1.392              0.840
 Vibration     4          0.796              1.392              0.840

 Optimization completed.
    -- Stationary point found.
 Normal termination of Gaussian 09 at Sun Jun 19 04:44:43 2016.
