 Gaussian 09, Revision E.01,
 Gaussian 09:  EM64L-G09RevE.01 30-Nov-2015

 ------------------------------
 #p b3lyp/6-311++G(3df,2p) freq
 ------------------------------

 ---------
 b3lyp opt
 ---------
 Symbolic Z-matrix:
 Charge =  0 Multiplicity = 4

                         Standard orientation:
 ---------------------------------------------------------------------
 Center     Atomic      Atomic             Coordinates (Angstroms)
 Number     Number       Type             X           Y           Z
 ---------------------------------------------------------------------
      1          1           0        1.630013    0.000056    0.558901
      2          6           0        0.800754   -0.000015   -0.150927
      3          6           0       -0.536211   -0.654072    0.028954
      4          6           0       -0.536211    0.654078    0.028823
 ---------------------------------------------------------------------

 SCF Done:  E(UB3LYP) =  -114.617105879     A.U. after   14 cycles

 The electronic state is 4-A.
 Alpha  occ. eigenvalues --  -10.27276 -10.27174 -10.24498  -0.93973  -0.62086
 Alpha  occ. eigenvalues --   -0.51729  -0.46618  -0.40257  -0.36077  -0.28176
 Alpha  occ. eigenvalues --   -0.21550
 Alpha virt. eigenvalues --   -0.04503   0.00277   0.03494   0.03538   0.05140
 Alpha virt. eigenvalues --    0.08448   0.08989   0.09245   0.09805   0.10261
 Alpha virt. eigenvalues --    0.11503   0.12930   0.15858   0.16471   0.17808

  Beta  occ. eigenvalues --  -10.25503 -10.25418 -10.22641  -0.90306  -0.57214
  Beta  occ. eigenvalues --   -0.43099  -0.42068  -0.35012
  Beta virt. eigenvalues --   -0.19989  -0.13320  -0.07085  -0.00665   0.00671
  Beta virt. eigenvalues --    0.03987   0.04241   0.05710   0.08880   0.09416
  Beta virt. eigenvalues --    0.09807   0.10704   0.12231   0.12576   0.13635

 Mulliken charges and spin densities:
               1          2
     1  H    0.148450   0.060899
     2  C   -0.228067   1.053768
     3  C    0.039808   0.942666
     4  C    0.039808   0.942666
 Sum of Mulliken charges =  -0.00000   3.00000

 Dipole moment (field-independent basis, Debye):
    X=              0.5267    Y=              0.0001    Z=              0.8823  Tot=              1.0276
 Quadrupole moment (field-independent basis, Debye-Ang):
   XX=            -17.4414   YY=            -17.6934   ZZ=            -18.2780
   XY=              0.0001   XZ=              1.1925   YZ=             -0.0001

  Exact polarizability:  38.549  -0.000  33.445  -0.048  -0.001  26.235
 Approx polarizability:  55.985  -0.000  65.769  -1.395  -0.003  34.955

                      1                      2                      3
                      A                      A                      A
 Frequencies --    537.9146               888.8317               929.4935
 Red. masses --      9.1416                 1.2279                 1.2526
 Frc consts  --      1.5585                 0.5715                 0.6376
 IR Inten    --     18.0106                57.9801                24.5203

                      4                      5                      6
                      A                      A                      A
 Frequencies --   1029.6944              1641.9414              3033.9943
 Red. masses --      7.4161                11.7808                 1.0840
 Frc consts  --      4.6328                18.7129                 5.8791
 IR Inten    --      0.7273                11.2908                 8.5482

 - Thermochemistry -
 -------------------
 Temperature   298.150 Kelvin.  Pressure   1.00000 Atm.
 Atom     1 has atomic number  1 and mass   1.00783

 Molecular mass:    37.00783 amu.
 Principal axes and moments of inertia in atomic units:
                           1         2         3
     Eigenvalues --    38.62354  63.57199  98.28051
           X            0.99845  -0.00000   0.05564
           Y           -0.00001   1.00000   0.00010
           Z           -0.05564  -0.00010   0.99845
 This molecule is an asymmetric top.
 Rotational symmetry number  1.
 Rotational temperatures (Kelvin)      2.24251     1.36245     0.88129
 Rotational constants (GHZ):          46.72646    28.38894    18.36317
 Zero-point vibrational energy      48220.7 (Joules/Mol)
                                   11.52502 (Kcal/Mol)
 Warning -- explicit consideration of   1 degrees of freedom as
           vibrations may cause significant error
 Vibrational temperatures:    773.94  1278.83  1337.33  1481.50  2362.38
          (Kelvin)           4365.24

 Zero-point correction=                           0.018366 (Hartree/Particle)
 Thermal correction to Energy=                    0.021537
 Thermal correction to Enthalpy=                  0.022481
 Thermal correction to Gibbs Free Energy=        -0.006292
 Sum of electronic and zero-point Energies=           -114.598740
 Sum of electronic and thermal Energies=              -114.595569
 Sum of electronic and thermal Enthalpies=            -114.594625
 Sum of electronic and thermal Free Energies=         -114.623398

                     E (Thermal)             CV                S
                      KCal/Mol        Cal/Mol-Kelvin    Cal/Mol-Kelvin
 Total                   13.514              8.496             60.557
 Electronic               0.000              0.000              2.755
 Translational            0.889              2.981             36.755
 Rotational               0.889              2.981             20.117
 Vibrational             11.737              2.534              0.929
 Vibration     1          0.893              1.166              0.570

 Optimization completed.
    -- Stationary point found.
 Normal termination of Gaussian 09 at Thu Jul  7 22:49:49 2016.
