 Gaussian 09, Revision E.01,
 Gaussian 09:  EM64L-G09RevE.01 30-Nov-2015

 ---------------------------------------------
 #p b3lyp/6-311++G(3df,2p) freq symmetry=Loose
 ---------------------------------------------

 ---------
 b3lyp opt
 ---------
 Symbolic Z-matrix:
 Charge =  0 Multiplicity = 2

                         Standard orientation:
 ---------------------------------------------------------------------
 Center     Atomic      Atomic             Coordinates (Angstroms)
 Number     Number       Type             X           Y           Z
 ---------------------------------------------------------------------
      1          6           0       -0.237127    1.398197    0.000000
      2          6           0        0.000000    0.095263    0.000000
      3          6           0        0.134455   -1.144021   -0.000000
      4          1           0        0.616038   -2.096638   -0.000000
 ---------------------------------------------------------------------

 SCF Done:  E(UB3LYP) =  -114.719146899     A.U. after   15 cycles

 The electronic state is 2-A'.
 Alpha  occ. eigenvalues --  -10.26328 -10.25209 -10.21158  -0.83302  -0.72311
 Alpha  occ. eigenvalues --   -0.57710  -0.38595  -0.36876  -0.32407  -0.24446
 Alpha virt. eigenvalues --   -0.15909  -0.01108   0.01703   0.03348   0.03654
 Alpha virt. eigenvalues --    0.06289   0.07540   0.08745   0.08789   0.09757
 Alpha virt. eigenvalues --    0.10344   0.11877   0.15526   0.15677   0.18299

  Beta  occ. eigenvalues --  -10.25481 -10.24274 -10.21414  -0.82255  -0.69885
  Beta  occ. eigenvalues --   -0.56898  -0.36578  -0.35047  -0.30765
  Beta virt. eigenvalues --   -0.14713  -0.12432  -0.00965   0.02635   0.03309
  Beta virt. eigenvalues --    0.03813   0.06736   0.08968   0.09108   0.09838
  Beta virt. eigenvalues --    0.09900   0.10786   0.12127   0.15647   0.15871

 Mulliken charges and spin densities:
               1          2
     1  C   -0.584848   0.614476
     2  C    0.673402  -0.145577
     3  C   -0.373108   0.533034
     4  H    0.284554  -0.001933
 Sum of Mulliken charges =  -0.00000   1.00000

 Dipole moment (field-independent basis, Debye):
    X=              0.9686    Y=             -3.4504    Z=             -0.0000  Tot=              3.5838
 Quadrupole moment (field-independent basis, Debye-Ang):
   XX=            -18.5863   YY=            -18.2698   ZZ=            -17.1774
   XY=             -1.0032   XZ=              0.0000   YZ=              0.0000

  Exact polarizability:  26.542  -4.065  56.799   0.001  -0.002  25.201
 Approx polarizability:  34.544  -9.542 114.819  -0.000   0.000  34.961

                      1                      2                      3
                     A"                     A'                     A'
 Frequencies --    242.8161               283.1926               374.0638
 Red. masses --      4.8128                 1.2533                 6.8394
 Frc consts  --      0.1672                 0.0592                 0.5638
 IR Inten    --      0.6818                80.0430                 0.2571

                      4                      5                      6
                     A'                     A'                     A'
 Frequencies --   1194.3619              1892.2928              3387.2513
 Red. masses --      8.8848                 7.2781                 1.1260
 Frc consts  --      7.4674                15.3548                 7.6121
 IR Inten    --     41.2555               170.9733                37.3468

 - Thermochemistry -
 -------------------
 Temperature   298.150 Kelvin.  Pressure   1.00000 Atm.
 Atom     1 has atomic number  6 and mass  12.00000

 Molecular mass:    37.00783 amu.
 Principal axes and moments of inertia in atomic units:
                           1         2         3
     Eigenvalues --     0.38337 159.78315 160.16652
           X           -0.16098   0.98696   0.00000
           Y            0.98696   0.16098   0.00000
           Z            0.00000   0.00000   1.00000
 This molecule is an asymmetric top.
 Rotational symmetry number  1.
 Rotational temperatures (Kelvin)    225.92635     0.54207     0.54077
 Rotational constants (GHZ):        4707.54697    11.29494    11.26791
 Zero-point vibrational energy      44106.2 (Joules/Mol)
                                   10.54163 (Kcal/Mol)
 Warning -- explicit consideration of   3 degrees of freedom as
           vibrations may cause significant error
 Vibrational temperatures:    349.36   407.45   538.19  1718.42  2722.58
          (Kelvin)           4873.49

 Zero-point correction=                           0.016799 (Hartree/Particle)
 Thermal correction to Energy=                    0.020923
 Thermal correction to Enthalpy=                  0.021868
 Thermal correction to Gibbs Free Energy=        -0.006389
 Sum of electronic and zero-point Energies=           -114.702348
 Sum of electronic and thermal Energies=              -114.698223
 Sum of electronic and thermal Enthalpies=            -114.697279
 Sum of electronic and thermal Free Energies=         -114.725536

                     E (Thermal)             CV                S
                      KCal/Mol        Cal/Mol-Kelvin    Cal/Mol-Kelvin
 Total                   13.130             11.193             59.472
 Electronic               0.000              0.000              1.377
 Translational            0.889              2.981             36.755
 Rotational               0.889              2.981             16.935
 Vibrational             11.352              5.231              4.404
 Vibration     1          0.659              1.775              1.782
 Vibration     2          0.682              1.705              1.514
 Vibration     3          0.745              1.525              1.063

 Optimization completed.
    -- Stationary point found.
 Normal termination of Gaussian 09 at Sun Jun 19 04:44:50 2016.
