 Gaussian 09, Revision E.01,
 Gaussian 09:  EM64L-G09RevE.01 30-Nov-2015

 ---------------------------------------------
 #p b3lyp/6-311++G(3df,2p) freq symmetry=Loose
 ---------------------------------------------

 ---------
 b3lyp opt
 ---------
 Symbolic Z-matrix:
 Charge =  1 Multiplicity = 3

                         Standard orientation:
 ---------------------------------------------------------------------
 Center     Atomic      Atomic             Coordinates (Angstroms)
 Number     Number       Type             X           Y           Z
 ---------------------------------------------------------------------
      1          1           0        0.000000   -0.000000    1.783505
      2          6           0        0.000000   -0.000000    0.697774
      3          6           0        0.000000    0.679921   -0.497472
      4          6           0       -0.000000   -0.679921   -0.497472
 ---------------------------------------------------------------------

 SCF Done:  E(UB3LYP) =  -114.346295960     A.U. after   12 cycles

 The electronic state is 3-B2.
 Alpha  occ. eigenvalues --  -10.60078 -10.60008 -10.57170  -1.28553  -0.90451
 Alpha  occ. eigenvalues --   -0.84719  -0.75904  -0.71321  -0.65506  -0.59676
 Alpha virt. eigenvalues --   -0.34326  -0.33917  -0.17317  -0.14741  -0.14474
 Alpha virt. eigenvalues --   -0.12274  -0.11939  -0.09868  -0.07140  -0.06249
 Alpha virt. eigenvalues --   -0.04951  -0.04323  -0.04180  -0.00721   0.01414

  Beta  occ. eigenvalues --  -10.58132 -10.58073 -10.56855  -1.26257  -0.88697
  Beta  occ. eigenvalues --   -0.77600  -0.71270  -0.69971
  Beta virt. eigenvalues --   -0.47628  -0.43085  -0.33185  -0.29964  -0.16835
  Beta virt. eigenvalues --   -0.13671  -0.13396  -0.11903  -0.09611  -0.08436
  Beta virt. eigenvalues --   -0.06562  -0.05293  -0.04854  -0.03966  -0.03622

 Mulliken charges and spin densities:
               1          2
     1  H    0.317070   0.015723
     2  C    0.128962   0.018909
     3  C    0.276984   0.982684
     4  C    0.276984   0.982684
 Sum of Mulliken charges =   1.00000   2.00000

 Dipole moment (field-independent basis, Debye):
    X=             -0.0000    Y=              0.0000    Z=              1.4292  Tot=              1.4292
 Quadrupole moment (field-independent basis, Debye-Ang):
   XX=            -14.1816   YY=            -12.5844   ZZ=             -9.2403
   XY=             -0.0000   XZ=             -0.0000   YZ=             -0.0000

  Exact polarizability:  16.064  -0.000  23.449  -0.000   0.000  25.480
 Approx polarizability:  23.261   0.000  43.750   0.000  -0.000  41.249

                      1                      2                      3
                     B1                     B2                     B2
 Frequencies --    890.0264               900.8679              1189.5970
 Red. masses --      1.3134                 1.1981                10.2046
 Frc consts  --      0.6130                 0.5729                 8.5084
 IR Inten    --     30.7186                49.0293                94.2169

                      4                      5                      6
                     A1                     A1                     A1
 Frequencies --   1245.8513              1618.4278              3196.4312
 Red. masses --      8.2716                 8.5727                 1.1153
 Frc consts  --      7.5644                13.2298                 6.7140
 IR Inten    --      4.8060                 2.0927               146.3453

 - Thermochemistry -
 -------------------
 Temperature   298.150 Kelvin.  Pressure   1.00000 Atm.
 Atom     1 has atomic number  1 and mass   1.00783

 Molecular mass:    37.00783 amu.
 Principal axes and moments of inertia in atomic units:
                           1         2         3
     Eigenvalues --    39.62101  53.22100  92.84202
           X            0.00000   0.00000   1.00000
           Y           -0.00000   1.00000  -0.00000
           Z            1.00000   0.00000  -0.00000
 This molecule is an asymmetric top.
 Rotational symmetry number  2.
 Rotational temperatures (Kelvin)      2.18606     1.62744     0.93292
 Rotational constants (GHZ):          45.55010    33.91032    19.43884
 Zero-point vibrational energy      54078.4 (Joules/Mol)
                                   12.92505 (Kcal/Mol)
 Vibrational temperatures:   1280.55  1296.15  1711.56  1792.50  2328.55
          (Kelvin)           4598.95

 Zero-point correction=                           0.020597 (Hartree/Particle)
 Thermal correction to Energy=                    0.023574
 Thermal correction to Enthalpy=                  0.024518
 Thermal correction to Gibbs Free Energy=        -0.002963
 Sum of electronic and zero-point Energies=           -114.325699
 Sum of electronic and thermal Energies=              -114.322722
 Sum of electronic and thermal Enthalpies=            -114.321778
 Sum of electronic and thermal Free Energies=         -114.349259

                     E (Thermal)             CV                S
                      KCal/Mol        Cal/Mol-Kelvin    Cal/Mol-Kelvin
 Total                   14.793              7.412             57.839
 Electronic               0.000              0.000              2.183
 Translational            0.889              2.981             36.755
 Rotational               0.889              2.981             18.532
 Vibrational             13.016              1.451              0.369

 Optimization completed.
    -- Stationary point found.
 Normal termination of Gaussian 09 at Sun Jun 19 04:46:12 2016.
