 Gaussian 09, Revision E.01,
 Gaussian 09:  EM64L-G09RevE.01 30-Nov-2015

 ---------------------------------------------
 #p b3lyp/6-311++G(3df,2p) freq symmetry=Loose
 ---------------------------------------------

 ---------
 b3lyp opt
 ---------
 Symbolic Z-matrix:
 Charge =  0 Multiplicity = 3

                         Standard orientation:
 ---------------------------------------------------------------------
 Center     Atomic      Atomic             Coordinates (Angstroms)
 Number     Number       Type             X           Y           Z
 ---------------------------------------------------------------------
      1          1           0       -0.867866    1.273418   -0.000000
      2          6           0        0.057858    0.701096   -0.000000
      3          9           0        0.057858   -0.608888    0.000000
 ---------------------------------------------------------------------

 SCF Done:  E(UB3LYP) =  -138.441640612     A.U. after   11 cycles

 The electronic state is 3-A".
 Alpha  occ. eigenvalues --  -24.74115 -10.28633  -1.28155  -0.69897  -0.55942
 Alpha  occ. eigenvalues --   -0.51800  -0.50355  -0.30182  -0.22825
 Alpha virt. eigenvalues --    0.00206   0.02618   0.05958   0.06271   0.11445
 Alpha virt. eigenvalues --    0.14261   0.17627   0.22342   0.24883   0.25893
 Alpha virt. eigenvalues --    0.29641   0.33463   0.36197   0.39659   0.42149

  Beta  occ. eigenvalues --  -24.73240 -10.25699  -1.26246  -0.65082  -0.52873
  Beta  occ. eigenvalues --   -0.48097  -0.46662
  Beta virt. eigenvalues --   -0.11709  -0.05242   0.00563   0.03108   0.07420
  Beta virt. eigenvalues --    0.08267   0.12025   0.16258   0.19720   0.23001
  Beta virt. eigenvalues --    0.25039   0.26678   0.32406   0.34712   0.38133

 Mulliken charges and spin densities:
               1          2
     1  H    0.189301   0.071443
     2  C   -0.026281   1.818093
     3  F   -0.163020   0.110464
 Sum of Mulliken charges =  -0.00000   2.00000

 Dipole moment (field-independent basis, Debye):
    X=             -0.7741    Y=              0.6960    Z=             -0.0000  Tot=              1.0410
 Quadrupole moment (field-independent basis, Debye-Ang):
   XX=            -10.6525   YY=            -11.1065   ZZ=            -12.0171
   XY=             -1.0679   XZ=             -0.0000   YZ=              0.0000

  Exact polarizability:  13.960  -0.888  16.802  -0.000  -0.000  13.991
 Approx polarizability:  16.519  -1.037  21.093   0.000  -0.000  15.765

                      1                      2                      3
                     A'                     A'                     A'
 Frequencies --   1109.4865              1261.2845              3102.7577
 Red. masses --      1.2163                 9.8628                 1.0877
 Frc consts  --      0.8821                 9.2444                 6.1698
 IR Inten    --     22.2863               122.6890                 6.3604

 - Thermochemistry -
 -------------------
 Temperature   298.150 Kelvin.  Pressure   1.00000 Atm.
 Atom     1 has atomic number  1 and mass   1.00783

 Molecular mass:    32.00623 amu.
 Principal axes and moments of inertia in atomic units:
                           1         2         3
     Eigenvalues --     2.58587  52.06330  54.64917
           X           -0.09005   0.99594   0.00000
           Y            0.99594   0.09005   0.00000
           Z            0.00000   0.00000   1.00000
 This molecule is an asymmetric top.
 Rotational symmetry number  1.
 Rotational temperatures (Kelvin)     33.49498     1.66363     1.58491
 Rotational constants (GHZ):         697.92306    34.66436    33.02413
 Zero-point vibrational energy      32739.0 (Joules/Mol)
                                    7.82480 (Kcal/Mol)
 Vibrational temperatures:   1596.30  1814.70  4464.17
          (Kelvin)

 Zero-point correction=                           0.012470 (Hartree/Particle)
 Thermal correction to Energy=                    0.015339
 Thermal correction to Enthalpy=                  0.016283
 Thermal correction to Gibbs Free Energy=        -0.009966
 Sum of electronic and zero-point Energies=           -138.429171
 Sum of electronic and thermal Energies=              -138.426301
 Sum of electronic and thermal Enthalpies=            -138.425357
 Sum of electronic and thermal Free Energies=         -138.451607

                     E (Thermal)             CV                S
                      KCal/Mol        Cal/Mol-Kelvin    Cal/Mol-Kelvin
 Total                    9.626              6.402             55.247
 Electronic               0.000              0.000              2.183
 Translational            0.889              2.981             36.322
 Rotational               0.889              2.981             16.649
 Vibrational              7.848              0.440              0.092

 Optimization completed.
    -- Stationary point found.
 Normal termination of Gaussian 09 at Sun Jun 19 04:46:57 2016.
