 Gaussian 09, Revision E.01,
 Gaussian 09:  EM64L-G09RevE.01 30-Nov-2015

 ---------------------------------------------
 #p b3lyp/6-311++G(3df,2p) freq symmetry=Loose
 ---------------------------------------------

 ---------
 b3lyp opt
 ---------
 Symbolic Z-matrix:
 Charge =  1 Multiplicity = 4

                         Standard orientation:
 ---------------------------------------------------------------------
 Center     Atomic      Atomic             Coordinates (Angstroms)
 Number     Number       Type             X           Y           Z
 ---------------------------------------------------------------------
      1          1           0       -0.826650   -0.919423    0.000000
      2          6           0        0.055110    0.926625   -0.000000
      3          9           0        0.055110   -0.515592    0.000000
 ---------------------------------------------------------------------

 SCF Done:  E(UB3LYP) =  -137.870128914     A.U. after   11 cycles

 The electronic state is 4-A".
 Alpha  occ. eigenvalues --  -25.16787 -10.66053  -1.69191  -1.09659  -0.95823
 Alpha  occ. eigenvalues --   -0.89205  -0.81373  -0.59042  -0.57932
 Alpha virt. eigenvalues --   -0.32447  -0.23844  -0.13676  -0.11261  -0.11029
 Alpha virt. eigenvalues --   -0.08499  -0.06471  -0.00279   0.00126   0.04188
 Alpha virt. eigenvalues --    0.06966   0.11378   0.13279   0.16972   0.19078

  Beta  occ. eigenvalues --  -25.16084 -10.60218  -1.67525  -1.05625  -0.92612
  Beta  occ. eigenvalues --   -0.87170
  Beta virt. eigenvalues --   -0.54016  -0.32898  -0.31882  -0.29611  -0.17186
  Beta virt. eigenvalues --   -0.12191  -0.09543  -0.09222  -0.07210  -0.04879
  Beta virt. eigenvalues --    0.00327   0.00604   0.05503   0.10479   0.11670

 Mulliken charges and spin densities:
               1          2
     1  H    0.659074   0.012479
     2  C    0.449205   2.949468
     3  F   -0.108280   0.038054
 Sum of Mulliken charges =   1.00000   3.00000

 Dipole moment (field-independent basis, Debye):
    X=             -1.8862    Y=             -0.3467    Z=              0.0000  Tot=              1.9178
 Quadrupole moment (field-independent basis, Debye-Ang):
   XX=             -7.4548   YY=             -4.1098   ZZ=             -9.8183
   XY=              2.4802   XZ=             -0.0000   YZ=             -0.0000

  Exact polarizability:   9.119   0.867  13.036  -0.000  -0.000   8.176
 Approx polarizability:  10.699   0.866  15.437  -0.000  -0.000   8.979

                      1                      2                      3
                     A'                     A'                     A'
 Frequencies --    880.1500              1014.9402              3404.3631
 Red. masses --     10.8098                 1.1488                 1.0572
 Frc consts  --      4.9338                 0.6972                 7.2188
 IR Inten    --    147.6712               116.3824               569.8530

 - Thermochemistry -
 -------------------
 Temperature   298.150 Kelvin.  Pressure   1.00000 Atm.
 Atom     1 has atomic number  1 and mass   1.00783

 Molecular mass:    32.00623 amu.
 Principal axes and moments of inertia in atomic units:
                           1         2         3
     Eigenvalues --     2.55199  58.01318  60.56517
           X            0.05340   0.99857   0.00000
           Y            0.99857  -0.05340   0.00000
           Z           -0.00000  -0.00000   1.00000
 This molecule is an asymmetric top.
 Rotational symmetry number  1.
 Rotational temperatures (Kelvin)     33.93967     1.49300     1.43009
 Rotational constants (GHZ):         707.18885    31.10916    29.79833
 Zero-point vibrational energy      31697.8 (Joules/Mol)
                                    7.57595 (Kcal/Mol)
 Vibrational temperatures:   1266.34  1460.27  4898.11
          (Kelvin)

 Zero-point correction=                           0.012073 (Hartree/Particle)
 Thermal correction to Energy=                    0.014999
 Thermal correction to Enthalpy=                  0.015943
 Thermal correction to Gibbs Free Energy=        -0.010742
 Sum of electronic and zero-point Energies=           -137.858056
 Sum of electronic and thermal Energies=              -137.855130
 Sum of electronic and thermal Enthalpies=            -137.854186
 Sum of electronic and thermal Free Energies=         -137.880871

                     E (Thermal)             CV                S
                      KCal/Mol        Cal/Mol-Kelvin    Cal/Mol-Kelvin
 Total                    9.412              6.851             56.162
 Electronic               0.000              0.000              2.755
 Translational            0.889              2.981             36.322
 Rotational               0.889              2.981             16.846
 Vibrational              7.634              0.889              0.239

 Optimization completed.
    -- Stationary point found.
 Normal termination of Gaussian 09 at Sun Jun 19 04:46:57 2016.
