 Gaussian 09, Revision E.01,
 Gaussian 09:  EM64L-G09RevE.01 30-Nov-2015

 ---------------------------------------------
 #p b3lyp/6-311++G(3df,2p) freq symmetry=Loose
 ---------------------------------------------

 ---------
 b3lyp opt
 ---------
 Symbolic Z-matrix:
 Charge =  1 Multiplicity = 2

                         Standard orientation:
 ---------------------------------------------------------------------
 Center     Atomic      Atomic             Coordinates (Angstroms)
 Number     Number       Type             X           Y           Z
 ---------------------------------------------------------------------
      1          1           0       -0.800507   -1.009834    0.000000
      2          6           0        0.053367    1.014126   -0.000000
      3          9           0        0.053367   -0.563880    0.000000
 ---------------------------------------------------------------------

 SCF Done:  E(UB3LYP) =  -137.994115196     A.U. after   12 cycles

 The electronic state is 2-A'.
 Alpha  occ. eigenvalues --  -25.11975 -10.70297  -1.63745  -1.04768  -0.91552
 Alpha  occ. eigenvalues --   -0.84327  -0.77444  -0.59476
 Alpha virt. eigenvalues --   -0.46167  -0.35052  -0.25439  -0.13549  -0.10816
 Alpha virt. eigenvalues --   -0.10743  -0.08001  -0.06936   0.00149   0.00198
 Alpha virt. eigenvalues --    0.05003   0.07589   0.11485   0.12053   0.18174

  Beta  occ. eigenvalues --  -25.11920 -10.68552  -1.63561  -1.02984  -0.90031
  Beta  occ. eigenvalues --   -0.84311  -0.73796
  Beta virt. eigenvalues --   -0.44352  -0.39628  -0.33491  -0.24863  -0.13202
  Beta virt. eigenvalues --   -0.10639  -0.10004  -0.07462  -0.06780   0.00126
  Beta virt. eigenvalues --    0.00438   0.05692   0.09181   0.11578   0.13291

 Mulliken charges and spin densities:
               1          2
     1  H    0.636037   0.006071
     2  C    0.550151   0.998522
     3  F   -0.186188  -0.004593
 Sum of Mulliken charges =   1.00000   1.00000

 Dipole moment (field-independent basis, Debye):
    X=             -1.7928    Y=             -0.1610    Z=              0.0000  Tot=              1.8000
 Quadrupole moment (field-independent basis, Debye-Ang):
   XX=             -8.1748   YY=             -4.5556   ZZ=             -8.8803
   XY=              2.5528   XZ=             -0.0000   YZ=             -0.0000

  Exact polarizability:  11.085   1.196  16.562   0.000   0.000   9.907
 Approx polarizability:  12.867   1.398  23.205  -0.000  -0.000  14.532

                      1                      2                      3
                     A'                     A'                     A'
 Frequencies --    544.6111               814.6956              3500.5892
 Red. masses --     11.8156                 1.1300                 1.0561
 Frc consts  --      2.0648                 0.4419                 7.6252
 IR Inten    --    247.1695               171.9731               559.1434

 - Thermochemistry -
 -------------------
 Temperature   298.150 Kelvin.  Pressure   1.00000 Atm.
 Atom     1 has atomic number  1 and mass   1.00783

 Molecular mass:    32.00623 amu.
 Principal axes and moments of inertia in atomic units:
                           1         2         3
     Eigenvalues --     2.39352  69.44045  71.83397
           X            0.04697   0.99890   0.00000
           Y            0.99890  -0.04697   0.00000
           Z           -0.00000  -0.00000   1.00000
 This molecule is an asymmetric top.
 Rotational symmetry number  1.
 Rotational temperatures (Kelvin)     36.18681     1.24731     1.20575
 Rotational constants (GHZ):         754.01166    25.98977    25.12378
 Zero-point vibrational energy      29068.6 (Joules/Mol)
                                    6.94757 (Kcal/Mol)
 Warning -- explicit consideration of   1 degrees of freedom as
           vibrations may cause significant error
 Vibrational temperatures:    783.57  1172.16  5036.56
          (Kelvin)

 Zero-point correction=                           0.011072 (Hartree/Particle)
 Thermal correction to Energy=                    0.014172
 Thermal correction to Enthalpy=                  0.015116
 Thermal correction to Gibbs Free Energy=        -0.011293
 Sum of electronic and zero-point Energies=           -137.983044
 Sum of electronic and thermal Energies=              -137.979944
 Sum of electronic and thermal Enthalpies=            -137.978999
 Sum of electronic and thermal Free Energies=         -138.005408

                     E (Thermal)             CV                S
                      KCal/Mol        Cal/Mol-Kelvin    Cal/Mol-Kelvin
 Total                    8.893              7.740             55.581
 Electronic               0.000              0.000              1.377
 Translational            0.889              2.981             36.322
 Rotational               0.889              2.981             17.130
 Vibrational              7.115              1.778              0.751
 Vibration     1          0.900              1.151              0.555

 Normal termination of Gaussian 09 at Sun Jun 19 04:46:56 2016.
