 Gaussian 09, Revision E.01,
 Gaussian 09:  EM64L-G09RevE.01 30-Nov-2015

 ---------------------------------------------
 #p b3lyp/6-311++G(3df,2p) freq symmetry=Loose
 ---------------------------------------------

 ---------
 b3lyp opt
 ---------
 Symbolic Z-matrix:
 Charge =  1 Multiplicity = 1

                         Standard orientation:
 ---------------------------------------------------------------------
 Center     Atomic      Atomic             Coordinates (Angstroms)
 Number     Number       Type             X           Y           Z
 ---------------------------------------------------------------------
      1          1           0        0.000000    0.000000    1.508208
      2          6           0        0.000000    0.000000    0.412027
      3          9           0        0.000000    1.055743   -0.221132
      4          9           0       -0.000000   -1.055743   -0.221132
 ---------------------------------------------------------------------

 SCF Done:  E(RB3LYP) =  -238.085751488     A.U. after    9 cycles

 The electronic state is 1-A1.
 Alpha  occ. eigenvalues --  -25.10228 -25.10228 -10.76382  -1.70189  -1.63479
 Alpha  occ. eigenvalues --   -1.05399  -0.96001  -0.95861  -0.90933  -0.81563
 Alpha  occ. eigenvalues --   -0.79837  -0.77656
 Alpha virt. eigenvalues --   -0.42153  -0.20781  -0.19314  -0.16593  -0.12762
 Alpha virt. eigenvalues --   -0.08884  -0.04377  -0.04293  -0.01821   0.00194
 Alpha virt. eigenvalues --    0.00716   0.02225   0.02639   0.09764   0.10690

 Mulliken charges:
               1
     1  H    0.295213
     2  C    0.748318
     3  F   -0.021766
     4  F   -0.021766
 Sum of Mulliken charges =   1.00000

 Dipole moment (field-independent basis, Debye):
    X=              0.0000    Y=              0.0000    Z=              2.5647  Tot=              2.5647
 Quadrupole moment (field-independent basis, Debye-Ang):
   XX=            -12.7274   YY=            -12.3354   ZZ=            -10.0458
   XY=             -0.0000   XZ=             -0.0000   YZ=              0.0000

  Exact polarizability:   8.808   0.000  15.111  -0.000   0.000  12.075
 Approx polarizability:  11.730   0.000  22.882   0.000  -0.000  15.564

                      1                      2                      3
                     A1                     B1                     B2
 Frequencies --    669.4951              1084.2769              1314.5000
 Red. masses --     13.1388                 1.6269                 1.1294
 Frc consts  --      3.4698                 1.1269                 1.1498
 IR Inten    --     30.8988                 0.4594                58.2692

                      4                      5                      6
                     A1                     B2                     A1
 Frequencies --   1391.1242              1635.6440              3126.0771
 Red. masses --      8.0127                 8.6115                 1.1093
 Frc consts  --      9.1361                13.5740                 6.3868
 IR Inten    --    123.3967               344.8007                35.6124

 - Thermochemistry -
 -------------------
 Temperature   298.150 Kelvin.  Pressure   1.00000 Atm.
 Atom     1 has atomic number  1 and mass   1.00783

 Molecular mass:    51.00463 amu.
 Principal axes and moments of inertia in atomic units:
                           1         2         3
     Eigenvalues --    21.83370 151.23804 173.07174
           X            0.00000   0.00000   1.00000
           Y            1.00000   0.00000  -0.00000
           Z           -0.00000   1.00000  -0.00000
 This molecule is an asymmetric top.
 Rotational symmetry number  2.
 Rotational temperatures (Kelvin)      3.96698     0.57270     0.50045
 Rotational constants (GHZ):          82.65851    11.93312    10.42771
 Zero-point vibrational energy      55154.5 (Joules/Mol)
                                   13.18225 (Kcal/Mol)
 Vibrational temperatures:    963.25  1560.03  1891.27  2001.51  2353.32
          (Kelvin)           4497.72

 Zero-point correction=                           0.021007 (Hartree/Particle)
 Thermal correction to Energy=                    0.024013
 Thermal correction to Enthalpy=                  0.024957
 Thermal correction to Gibbs Free Energy=        -0.002491
 Sum of electronic and zero-point Energies=           -238.064744
 Sum of electronic and thermal Energies=              -238.061739
 Sum of electronic and thermal Enthalpies=            -238.060794
 Sum of electronic and thermal Free Energies=         -238.088243

                     E (Thermal)             CV                S
                      KCal/Mol        Cal/Mol-Kelvin    Cal/Mol-Kelvin
 Total                   15.068              7.441             57.770
 Electronic               0.000              0.000              0.000
 Translational            0.889              2.981             37.711
 Rotational               0.889              2.981             19.597
 Vibrational             13.291              1.479              0.462

 Optimization completed.
    -- Stationary point found.
 Normal termination of Gaussian 09 at Sat Jul  2 15:40:29 2016.
