 Gaussian 09, Revision E.01,
 Gaussian 09:  EM64L-G09RevE.01 30-Nov-2015

 ---------------------------------------------
 #p b3lyp/6-311++G(3df,2p) freq symmetry=Loose
 ---------------------------------------------

 ---------
 b3lyp opt
 ---------
 Symbolic Z-matrix:
 Charge =  0 Multiplicity = 1

                         Standard orientation:
 ---------------------------------------------------------------------
 Center     Atomic      Atomic             Coordinates (Angstroms)
 Number     Number       Type             X           Y           Z
 ---------------------------------------------------------------------
      1          1           0        0.000000    0.000000    1.427325
      2          6           0        0.000000    0.000000    0.338280
      3          9           0       -0.000000    1.254152   -0.128037
      4          9           0        1.086127   -0.627076   -0.128037
      5          9           0       -1.086127   -0.627076   -0.128037
 ---------------------------------------------------------------------

 SCF Done:  E(RB3LYP) =  -338.370729900     A.U. after    9 cycles

 The electronic state is 1-A1.
 Alpha  occ. eigenvalues --  -24.72727 -24.72727 -24.72726 -10.43276  -1.33274
 Alpha  occ. eigenvalues --   -1.24577  -1.24577  -0.73602  -0.62282  -0.61030
 Alpha  occ. eigenvalues --   -0.61030  -0.48830  -0.48830  -0.45312  -0.45312
 Alpha  occ. eigenvalues --   -0.43117  -0.41325
 Alpha virt. eigenvalues --   -0.00478   0.03763   0.03763   0.03770   0.10300
 Alpha virt. eigenvalues --    0.14108   0.14393   0.14393   0.19805   0.20152
 Alpha virt. eigenvalues --    0.20152   0.21848   0.21848   0.25912   0.30956

 Mulliken charges:
               1
     1  H    0.170695
     2  C    0.970190
     3  F   -0.380295
     4  F   -0.380295
     5  F   -0.380295
 Sum of Mulliken charges =  -0.00000

 Dipole moment (field-independent basis, Debye):
    X=              0.0000    Y=             -0.0000    Z=              1.6430  Tot=              1.6430
 Quadrupole moment (field-independent basis, Debye-Ang):
   XX=            -22.4914   YY=            -22.4914   ZZ=            -18.8109
   XY=             -0.0000   XZ=             -0.0000   YZ=             -0.0000

  Exact polarizability:  18.805  -0.000  18.807   0.000  -0.001  17.301
 Approx polarizability:  24.106  -0.000  24.106   0.000   0.000  21.698

                      1                      2                      3
                      E                      E                     A1
 Frequencies --    500.3935               500.3999               693.4540
 Red. masses --     13.8151                13.8150                13.6485
 Frc consts  --      2.0381                 2.0382                 3.8670
 IR Inten    --      1.8515                 1.8522                12.1793

                      4                      5                      6
                     ?A                     ?A                     ?A
 Frequencies --   1133.8627              1133.8707              1134.6987
 Red. masses --      6.2892                 6.2890                 8.4805
 Frc consts  --      4.7640                 4.7638                 6.4333
 IR Inten    --    306.7081               306.7887                94.3389

                      7                      8                      9
                      E                      E                     A1
 Frequencies --   1385.2249              1385.2269              3121.2535
 Red. masses --      1.1957                 1.1957                 1.0890
 Frc consts  --      1.3518                 1.3518                 6.2511
 IR Inten    --     35.4943                35.5057                27.4553

 - Thermochemistry -
 -------------------
 Temperature   298.150 Kelvin.  Pressure   1.00000 Atm.
 Atom     1 has atomic number  1 and mass   1.00783

 Molecular mass:    70.00303 amu.
 Principal axes and moments of inertia in atomic units:
                           1         2         3
     Eigenvalues --   175.47597 175.47597 320.13729
           X           -0.48564   0.87416   0.00000
           Y            0.87416   0.48564   0.00000
           Z           -0.00000  -0.00000   1.00000
 This molecule is an oblate symmetric top.
 Rotational symmetry number  3.
 Rotational temperatures (Kelvin)      0.49359     0.49359     0.27055
 Rotational constants (GHZ):          10.28483    10.28483     5.63740
 Zero-point vibrational energy      65725.1 (Joules/Mol)
                                   15.70868 (Kcal/Mol)
 Warning -- explicit consideration of   2 degrees of freedom as
           vibrations may cause significant error
 Vibrational temperatures:    719.95   719.96   997.72  1631.37  1631.38
          (Kelvin)           1632.58  1993.03  1993.03  4490.78

 Zero-point correction=                           0.025033 (Hartree/Particle)
 Thermal correction to Energy=                    0.028510
 Thermal correction to Enthalpy=                  0.029454
 Thermal correction to Gibbs Free Energy=        -0.000054
 Sum of electronic and zero-point Energies=           -338.345697
 Sum of electronic and thermal Energies=              -338.342220
 Sum of electronic and thermal Enthalpies=            -338.341276
 Sum of electronic and thermal Free Energies=         -338.370784

                     E (Thermal)             CV                S
                      KCal/Mol        Cal/Mol-Kelvin    Cal/Mol-Kelvin
 Total                   17.890             10.280             62.105
 Electronic               0.000              0.000              0.000
 Translational            0.889              2.981             38.655
 Rotational               0.889              2.981             21.620
 Vibrational             16.113              4.319              1.829
 Vibration     1          0.856              1.249              0.657
 Vibration     2          0.856              1.249              0.657

 Normal termination of Gaussian 09 at Sat Jul  2 15:42:42 2016.
