 Gaussian 09, Revision E.01,
 Gaussian 09:  EM64L-G09RevE.01 30-Nov-2015

 ---------------------------------------------
 #p b3lyp/6-311++G(3df,2p) freq symmetry=Loose
 ---------------------------------------------

 ---------
 b3lyp opt
 ---------
 Symbolic Z-matrix:
 Charge =  1 Multiplicity = 2

                         Standard orientation:
 ---------------------------------------------------------------------
 Center     Atomic      Atomic             Coordinates (Angstroms)
 Number     Number       Type             X           Y           Z
 ---------------------------------------------------------------------
      1          6           0       -0.000000    0.000000    0.141754
      2          9           0        0.000000    1.257773   -0.086538
      3          9           0       -1.089263   -0.628886   -0.086538
      4          9           0        1.089263   -0.628886   -0.086538
      5          1           0       -0.000000    0.000000    1.485996
 ---------------------------------------------------------------------

 SCF Done:  E(UB3LYP) =  -337.869926296     A.U. after   10 cycles

 The electronic state is 2-A1.
 Alpha  occ. eigenvalues --  -25.07405 -25.07405 -25.07405 -10.79382  -1.68804
 Alpha  occ. eigenvalues --   -1.60295  -1.60295  -1.05195  -0.95705  -0.95185
 Alpha  occ. eigenvalues --   -0.95185  -0.81490  -0.81490  -0.79354  -0.79354
 Alpha  occ. eigenvalues --   -0.75696  -0.70398
 Alpha virt. eigenvalues --   -0.29329  -0.18402  -0.14787  -0.14787  -0.12246
 Alpha virt. eigenvalues --   -0.08651  -0.06196  -0.06196  -0.05201  -0.00190
 Alpha virt. eigenvalues --   -0.00190   0.01632   0.01632   0.04579   0.11941

  Beta  occ. eigenvalues --  -25.06831 -25.06831 -25.06830 -10.79276  -1.67705
  Beta  occ. eigenvalues --   -1.59041  -1.59041  -1.03094  -0.94335  -0.94335
  Beta  occ. eigenvalues --   -0.92405  -0.79969  -0.79969  -0.77348  -0.77348
  Beta  occ. eigenvalues --   -0.75150
  Beta virt. eigenvalues --   -0.55825  -0.25865  -0.17356  -0.14251  -0.14251
  Beta virt. eigenvalues --   -0.11432  -0.07618  -0.05594  -0.05594  -0.04904
  Beta virt. eigenvalues --    0.00252   0.00252   0.01661   0.01661   0.04877

 Mulliken charges and spin densities:
               1          2
     1  C    1.153855   0.087564
     2  F   -0.154790   0.142678
     3  F   -0.154790   0.142678
     4  F   -0.154790   0.142678
     5  H    0.310516   0.484401
 Sum of Mulliken charges =   1.00000   1.00000

 Dipole moment (field-independent basis, Debye):
    X=             -0.0000    Y=             -0.0000    Z=              2.3998  Tot=              2.3998
 Quadrupole moment (field-independent basis, Debye-Ang):
   XX=            -17.6229   YY=            -17.6229   ZZ=            -13.7035
   XY=              0.0000   XZ=              0.0000   YZ=             -0.0000

  Exact polarizability:  19.083   0.000  19.084   0.000  -0.001  16.868
 Approx polarizability:  28.349   0.000  28.349   0.000   0.000  22.505

                      1                      2                      3
                      E                      E                      E
 Frequencies --    511.5424               511.5534               736.5163
 Red. masses --      6.3219                 6.3216                 1.2411
 Frc consts  --      0.9747                 0.9747                 0.3967
 IR Inten    --     29.7670                29.7710                56.0493

                      4                      5                      6
                      E                     A1                     A1
 Frequencies --    736.5266               746.2790               848.4007
 Red. masses --      1.2411                13.3636                 4.6411
 Frc consts  --      0.3967                 4.3851                 1.9682
 IR Inten    --     56.0360                58.3632                 1.7881

                      7                      8                      9
                     A1                      E                      E
 Frequencies --   1298.8222              1398.4848              1398.4894
 Red. masses --      1.2208                 9.9828                 9.9830
 Frc consts  --      1.2134                11.5032                11.5035
 IR Inten    --    175.6649               289.3059               289.2031

 - Thermochemistry -
 -------------------
 Temperature   298.150 Kelvin.  Pressure   1.00000 Atm.
 Atom     1 has atomic number  6 and mass  12.00000

 Molecular mass:    70.00303 amu.
 Principal axes and moments of inertia in atomic units:
                           1         2         3
     Eigenvalues --   171.17356 171.17356 321.98857
           X           -0.56638   0.82414   0.00000
           Y            0.82414   0.56638   0.00000
           Z            0.00000   0.00000   1.00000
 This molecule is an oblate symmetric top.
 Rotational symmetry number  3.
 Rotational temperatures (Kelvin)      0.50600     0.50600     0.26900
 Rotational constants (GHZ):          10.54334    10.54334     5.60499
 Zero-point vibrational energy      48966.8 (Joules/Mol)
                                   11.70335 (Kcal/Mol)
 Warning -- explicit consideration of   2 degrees of freedom as
           vibrations may cause significant error
 Vibrational temperatures:    735.99   736.01  1059.68  1059.70  1073.73
          (Kelvin)           1220.66  1868.71  2012.11  2012.11

 Zero-point correction=                           0.018650 (Hartree/Particle)
 Thermal correction to Energy=                    0.022299
 Thermal correction to Enthalpy=                  0.023243
 Thermal correction to Gibbs Free Energy=        -0.007113
 Sum of electronic and zero-point Energies=           -337.851276
 Sum of electronic and thermal Energies=              -337.847627
 Sum of electronic and thermal Enthalpies=            -337.846683
 Sum of electronic and thermal Free Energies=         -337.877040

                     E (Thermal)             CV                S
                      KCal/Mol        Cal/Mol-Kelvin    Cal/Mol-Kelvin
 Total                   13.993             11.611             63.891
 Electronic               0.000              0.000              1.377
 Translational            0.889              2.981             38.655
 Rotational               0.889              2.981             21.577
 Vibrational             12.216              5.650              2.282
 Vibration     1          0.867              1.224              0.630
 Vibration     2          0.867              1.224              0.630

 Optimization completed.
    -- Stationary point found.
 Normal termination of Gaussian 09 at Sat Jul  2 15:48:58 2016.
