 Gaussian 09, Revision E.01,
 Gaussian 09:  EM64L-G09RevE.01 30-Nov-2015

 ---------------------------------------------
 #p b3lyp/6-311++G(3df,2p) freq symmetry=Loose
 ---------------------------------------------

 ---------
 b3lyp opt
 ---------
 Symbolic Z-matrix:
 Charge =  1 Multiplicity = 1

                         Standard orientation:
 ---------------------------------------------------------------------
 Center     Atomic      Atomic             Coordinates (Angstroms)
 Number     Number       Type             X           Y           Z
 ---------------------------------------------------------------------
      1          1           0       -0.907960   -0.898733   -0.000000
      2          9           0        0.050442    0.762973    0.000000
      3          9           0        0.050442   -0.663114   -0.000000
 ---------------------------------------------------------------------

 SCF Done:  E(RB3LYP) =  -199.725832784     A.U. after   11 cycles

 The electronic state is 1-A'.
 Alpha  occ. eigenvalues --  -25.25104 -25.17697  -1.78296  -1.53544  -1.06444
 Alpha  occ. eigenvalues --   -0.99305  -0.94980  -0.82133  -0.80368
 Alpha virt. eigenvalues --   -0.56617  -0.32801  -0.13419  -0.08736  -0.07882
 Alpha virt. eigenvalues --   -0.05814   0.00336   0.01814   0.02726   0.06850
 Alpha virt. eigenvalues --    0.14313   0.19200   0.31820   0.34880   0.60408

 Mulliken charges:
               1
     1  H    0.692522
     2  F    0.264895
     3  F    0.042584
 Sum of Mulliken charges =   1.00000

 Dipole moment (field-independent basis, Debye):
    X=             -2.2700    Y=             -2.0088    Z=             -0.0000  Tot=              3.0312
 Quadrupole moment (field-independent basis, Debye-Ang):
   XX=             -6.2606   YY=             -4.3924   ZZ=             -9.1363
   XY=              2.4569   XZ=              0.0000   YZ=              0.0000

  Exact polarizability:   6.024   0.919  11.333   0.000  -0.000   4.781
 Approx polarizability:   7.534   0.825  20.178   0.000   0.000   5.567

                      1                      2                      3
                     A'                     A'                     A'
 Frequencies --    928.7323              1155.0121              3230.9397
 Red. masses --     17.4383                 1.0999                 1.0586
 Frc consts  --      8.8621                 0.8645                 6.5111
 IR Inten    --      8.4200               165.8892               628.2941

 - Thermochemistry -
 -------------------
 Temperature   298.150 Kelvin.  Pressure   1.00000 Atm.
 Atom     1 has atomic number  1 and mass   1.00783

 Molecular mass:    39.00463 amu.
 Principal axes and moments of inertia in atomic units:
                           1         2         3
     Eigenvalues --     3.07328  72.29095  75.36423
           X            0.04610   0.99894   0.00000
           Y            0.99894  -0.04610   0.00000
           Z           -0.00000  -0.00000   1.00000
 This molecule is an asymmetric top.
 Rotational symmetry number  1.
 Rotational temperatures (Kelvin)     28.18285     1.19813     1.14927
 Rotational constants (GHZ):         587.23598    24.96497    23.94692
 Zero-point vibrational energy      31788.9 (Joules/Mol)
                                    7.59772 (Kcal/Mol)
 Vibrational temperatures:   1336.24  1661.80  4648.60
          (Kelvin)

 Zero-point correction=                           0.012108 (Hartree/Particle)
 Thermal correction to Energy=                    0.015009
 Thermal correction to Enthalpy=                  0.015953
 Thermal correction to Gibbs Free Energy=        -0.009967
 Sum of electronic and zero-point Energies=           -199.713725
 Sum of electronic and thermal Energies=              -199.710824
 Sum of electronic and thermal Enthalpies=            -199.709880
 Sum of electronic and thermal Free Energies=         -199.735799

                     E (Thermal)             CV                S
                      KCal/Mol        Cal/Mol-Kelvin    Cal/Mol-Kelvin
 Total                    9.418              6.660             54.552
 Electronic               0.000              0.000              0.000
 Translational            0.889              2.981             36.912
 Rotational               0.889              2.981             17.466
 Vibrational              7.641              0.698              0.174

 Optimization completed.
    -- Stationary point found.
 Normal termination of Gaussian 09 at Sun Jun 19 04:49:03 2016.
