 Gaussian 09, Revision E.01,
 Gaussian 09:  EM64L-G09RevE.01 30-Nov-2015

 ---------------------------------------------
 #p b3lyp/6-311++G(3df,2p) freq symmetry=Loose
 ---------------------------------------------

 ---------
 b3lyp opt
 ---------
 Symbolic Z-matrix:
 Charge =  0 Multiplicity = 3

                         Standard orientation:
 ---------------------------------------------------------------------
 Center     Atomic      Atomic             Coordinates (Angstroms)
 Number     Number       Type             X           Y           Z
 ---------------------------------------------------------------------
      1          1           0       -0.426061   -0.854264    0.000905
      2          9           0        0.083928    1.091781    0.000024
      3          9           0        1.239379   -0.558188   -0.000047
      4          9           0       -1.275967   -0.438675   -0.000077
 ---------------------------------------------------------------------

 SCF Done:  E(UB3LYP) =  -300.024647549     A.U. after   19 cycles

 The electronic state is 3-A.
 Alpha  occ. eigenvalues --  -24.80217 -24.76668 -24.74228  -1.28127  -1.24222
 Alpha  occ. eigenvalues --   -1.21687  -0.61712  -0.58414  -0.57032  -0.50508
 Alpha  occ. eigenvalues --   -0.47578  -0.47278  -0.46692  -0.46660  -0.46430
 Alpha virt. eigenvalues --   -0.00722   0.11460   0.13234   0.14499   0.15202
 Alpha virt. eigenvalues --    0.20595   0.22143   0.23434   0.24378   0.25865
 Alpha virt. eigenvalues --    0.30358   0.33345   0.38754   0.41480   0.45222

  Beta  occ. eigenvalues --  -24.76684 -24.73918 -24.73428  -1.24888  -1.17067
  Beta  occ. eigenvalues --   -1.13467  -0.60227  -0.48143  -0.47327  -0.45752
  Beta  occ. eigenvalues --   -0.45258  -0.44484  -0.43589
  Beta virt. eigenvalues --   -0.27630  -0.25989  -0.00481   0.12166   0.13957
  Beta virt. eigenvalues --    0.15219   0.15490   0.20941   0.23148   0.23600
  Beta virt. eigenvalues --    0.24646   0.26971   0.31005   0.33802   0.39133

 Mulliken charges and spin densities:
               1          2
     1  H    0.520990  -0.006781
     2  F    0.014846   0.992649
     3  F   -0.146672   0.813405
     4  F   -0.389164   0.200728
 Sum of Mulliken charges =  -0.00000   2.00000

 Dipole moment (field-independent basis, Debye):
    X=              0.2002    Y=             -0.7236    Z=              0.0018  Tot=              0.7508
 Quadrupole moment (field-independent basis, Debye-Ang):
   XX=            -17.3504   YY=            -13.5913   ZZ=            -15.8867
   XY=              0.2190   XZ=             -0.0004   YZ=             -0.0020

  Exact polarizability:  29.810   0.509  25.991  -0.000  -0.000  10.419
 Approx polarizability:  34.165   0.869  41.958   0.001   0.000  12.142

                      1                      2                      3
                      A                      A                      A
 Frequencies --    204.5810               293.4752               307.6636
 Red. masses --      9.7538                18.6770                18.6835
 Frc consts  --      0.2405                 0.9478                 1.0420
 IR Inten    --      2.0239                14.3918                29.4597

                      4                      5                      6
                      A                      A                      A
 Frequencies --    518.0487               748.2733              3575.7716
 Red. masses --      1.0515                 1.0541                 1.0618
 Frc consts  --      0.1663                 0.3477                 7.9986
 IR Inten    --    141.2887               122.0836                82.7239

 - Thermochemistry -
 -------------------
 Temperature   298.150 Kelvin.  Pressure   1.00000 Atm.
 Atom     1 has atomic number  1 and mass   1.00783

 Molecular mass:    58.00303 amu.
 Principal axes and moments of inertia in atomic units:
                           1         2         3
     Eigenvalues --   117.61407 215.80980 333.42386
           X            0.99989   0.01488  -0.00001
           Y           -0.01488   0.99989  -0.00003
           Z            0.00001   0.00003   1.00000
 This molecule is an asymmetric top.
 Rotational symmetry number  1.
 Rotational temperatures (Kelvin)      0.73642     0.40134     0.25977
 Rotational constants (GHZ):          15.34460     8.36265     5.41275
 Zero-point vibrational energy      33781.4 (Joules/Mol)
                                    8.07395 (Kcal/Mol)
 Warning -- explicit consideration of   4 degrees of freedom as
           vibrations may cause significant error
 Vibrational temperatures:    294.35   422.24   442.66   745.36  1076.60
          (Kelvin)           5144.73

 Zero-point correction=                           0.012867 (Hartree/Particle)
 Thermal correction to Energy=                    0.017398
 Thermal correction to Enthalpy=                  0.018342
 Thermal correction to Gibbs Free Energy=        -0.014784
 Sum of electronic and zero-point Energies=           -300.011781
 Sum of electronic and thermal Energies=              -300.007250
 Sum of electronic and thermal Enthalpies=            -300.006306
 Sum of electronic and thermal Free Energies=         -300.039431

                     E (Thermal)             CV                S
                      KCal/Mol        Cal/Mol-Kelvin    Cal/Mol-Kelvin
 Total                   10.917             13.090             69.718
 Electronic               0.000              0.000              2.183
 Translational            0.889              2.981             38.094
 Rotational               0.889              2.981             23.652
 Vibrational              9.140              7.128              5.788
 Vibration     1          0.640              1.833              2.092
 Vibration     2          0.688              1.686              1.454
 Vibration     3          0.698              1.659              1.375
 Vibration     4          0.873              1.210              0.615

 Normal termination of Gaussian 09 at Sun Jun 19 04:49:46 2016.
