 Gaussian 09, Revision E.01,
 Gaussian 09:  EM64L-G09RevE.01 30-Nov-2015

 -----------------------------------------
 #p b3lyp/6-311+G(3df) freq symmetry=Loose
 -----------------------------------------

 ---------
 b3lyp opt
 ---------
 Symbolic Z-matrix:
 Charge =  2 Multiplicity = 1

                         Standard orientation:
 ---------------------------------------------------------------------
 Center     Atomic      Atomic             Coordinates (Angstroms)
 Number     Number       Type             X           Y           Z
 ---------------------------------------------------------------------
      1          6           0        0.000000    0.000000    1.064612
      2          6           0        0.000000    0.000000   -1.064612
 ---------------------------------------------------------------------

 SCF Done:  E(RB3LYP) =  -74.6762857195     A.U. after    7 cycles

 The electronic state is 1-SGG.
 Alpha  occ. eigenvalues --  -11.11710 -11.11708  -1.29815  -1.17558  -0.93332
 Alpha virt. eigenvalues --   -0.83273  -0.83273  -0.77567  -0.77567  -0.71609
 Alpha virt. eigenvalues --   -0.36113  -0.29551  -0.29551  -0.27975  -0.23980
 Alpha virt. eigenvalues --   -0.22415  -0.22415  -0.20445  -0.20445  -0.17774

 Mulliken charges:
               1
     1  C    1.000000
     2  C    1.000000
 Sum of Mulliken charges =   2.00000

 Dipole moment (field-independent basis, Debye):
    X=              0.0000    Y=             -0.0000    Z=              0.0000  Tot=              0.0000
 Quadrupole moment (field-independent basis, Debye-Ang):
   XX=             -6.2533   YY=             -6.2533   ZZ=              2.0823
   XY=              0.0000   XZ=             -0.0000   YZ=             -0.0000

  Exact polarizability:  11.845  -0.000  11.845   0.000  -0.000  29.890
 Approx polarizability:  17.791  -0.000  17.791  -0.000  -0.000  78.596

                      1
                     SGG
 Frequencies --    459.5737
 Red. masses --     12.0000
 Frc consts  --      1.4933
 IR Inten    --      0.0000

 - Thermochemistry -
 -------------------
 Temperature   298.150 Kelvin.  Pressure   1.00000 Atm.
 Atom     1 has atomic number  6 and mass  12.00000

 Molecular mass:    24.00000 amu.
 Principal axes and moments of inertia in atomic units:
                           1         2         3
     Eigenvalues --     0.00000  97.13857  97.13857
           X           -0.00000   1.00000  -0.00000
           Y            0.00000   0.00000   1.00000
           Z            1.00000   0.00000  -0.00000
 This molecule is a prolate symmetric top.
 Rotational symmetry number  2.
 Rotational temperature (Kelvin)      0.89165
 Rotational constant (GHZ):          18.579039
 Zero-point vibrational energy       2748.9 (Joules/Mol)
                                    0.65699 (Kcal/Mol)
 Warning -- explicit consideration of   1 degrees of freedom as
           vibrations may cause significant error
 Vibrational temperatures:    661.22
          (Kelvin)

 Zero-point correction=                           0.001047 (Hartree/Particle)
 Thermal correction to Energy=                    0.003663
 Thermal correction to Enthalpy=                  0.004607
 Thermal correction to Gibbs Free Energy=        -0.018385
 Sum of electronic and zero-point Energies=            -74.675239
 Sum of electronic and thermal Energies=               -74.672622
 Sum of electronic and thermal Enthalpies=             -74.671678
 Sum of electronic and thermal Free Energies=          -74.694671

                     E (Thermal)             CV                S
                      KCal/Mol        Cal/Mol-Kelvin    Cal/Mol-Kelvin
 Total                    2.299              6.308             48.391
 Electronic               0.000              0.000              0.000
 Translational            0.889              2.981             35.464
 Rotational               0.592              1.987             12.160
 Vibrational              0.817              1.340              0.767
 Vibration     1          0.817              1.340              0.767

 Optimization completed.
    -- Stationary point found.
 Normal termination of Gaussian 09 at Thu Jun 16 17:32:35 2016.
