 Gaussian 09, Revision E.01,
 Gaussian 09:  EM64L-G09RevE.01 30-Nov-2015

 -----------------------------------------
 #p b3lyp/6-311+G(3df) freq symmetry=Loose
 -----------------------------------------

 ---------
 b3lyp opt
 ---------
 Symbolic Z-matrix:
 Charge =  2 Multiplicity = 1

                         Standard orientation:
 ---------------------------------------------------------------------
 Center     Atomic      Atomic             Coordinates (Angstroms)
 Number     Number       Type             X           Y           Z
 ---------------------------------------------------------------------
      1          6           0        0.000000    0.767956    0.000000
      2          6           0        0.665070   -0.383978    0.000000
      3          6           0       -0.665070   -0.383978    0.000000
 ---------------------------------------------------------------------

 SCF Done:  E(RB3LYP) =  -112.888646375     A.U. after    8 cycles

 The electronic state is 1-A1'.
 Alpha  occ. eigenvalues --  -11.04676 -11.04551 -11.04551  -1.70732  -1.20825
 Alpha  occ. eigenvalues --   -1.20825  -1.10394  -1.02840
 Alpha virt. eigenvalues --   -0.87024  -0.87024  -0.68902  -0.68902  -0.43580
 Alpha virt. eigenvalues --   -0.35895  -0.34376  -0.34376  -0.31926  -0.28338
 Alpha virt. eigenvalues --   -0.23979  -0.23979  -0.22218  -0.22218  -0.18526

 Mulliken charges:
               1
     1  C    0.666667
     2  C    0.666667
     3  C    0.666667
 Sum of Mulliken charges =   2.00000

 Dipole moment (field-independent basis, Debye):
    X=              0.0000    Y=             -0.0000    Z=             -0.0000  Tot=              0.0000
 Quadrupole moment (field-independent basis, Debye-Ang):
   XX=             -6.6025   YY=             -6.6025   ZZ=            -11.4437
   XY=             -0.0000   XZ=             -0.0000   YZ=              0.0000

  Exact polarizability:  19.400   0.000  19.400   0.000  -0.000  10.389
 Approx polarizability:  61.597  -0.000  61.597  -0.000  -0.000  14.580

                      1                      2                      3
                     E'                     E'                     A1'
 Frequencies --   1182.3575              1182.3575              1651.7044
 Red. masses --     12.0000                12.0000                12.0000
 Frc consts  --      9.8839                 9.8839                19.2884
 IR Inten    --      6.5305                 6.5301                 0.0000

 - Thermochemistry -
 -------------------
 Temperature   298.150 Kelvin.  Pressure   1.00000 Atm.
 Atom     1 has atomic number  6 and mass  12.00000

 Molecular mass:    36.00000 amu.
 Principal axes and moments of inertia in atomic units:
                           1         2         3
     Eigenvalues --    37.90907  37.90907  75.81813
           X            0.70711   0.70711   0.00000
           Y           -0.70711   0.70711   0.00000
           Z           -0.00000   0.00000   1.00000
 This molecule is an oblate symmetric top.
 Rotational symmetry number  6.
 Rotational temperatures (Kelvin)      2.28478     2.28478     1.14239
 Rotational constants (GHZ):          47.60711    47.60711    23.80356
 Zero-point vibrational energy      24023.5 (Joules/Mol)
                                    5.74176 (Kcal/Mol)
 Vibrational temperatures:   1701.15  1701.15  2376.43
          (Kelvin)

 Zero-point correction=                           0.009150 (Hartree/Particle)
 Thermal correction to Energy=                    0.012021
 Thermal correction to Enthalpy=                  0.012965
 Thermal correction to Gibbs Free Energy=        -0.011996
 Sum of electronic and zero-point Energies=           -112.879496
 Sum of electronic and thermal Energies=              -112.876625
 Sum of electronic and thermal Enthalpies=            -112.875681
 Sum of electronic and thermal Free Energies=         -112.900642

                     E (Thermal)             CV                S
                      KCal/Mol        Cal/Mol-Kelvin    Cal/Mol-Kelvin
 Total                    7.543              6.439             52.535
 Electronic               0.000              0.000              0.000
 Translational            0.889              2.981             36.673
 Rotational               0.889              2.981             15.767
 Vibrational              5.766              0.477              0.095

 Optimization completed.
    -- Stationary point found.
 Normal termination of Gaussian 09 at Sun Oct 23 02:03:06 2016.
