 Gaussian 09, Revision E.01,
 Gaussian 09:  EM64L-G09RevE.01 30-Nov-2015

 -----------------------------------------
 #p b3lyp/6-311+G(3df) freq symmetry=Loose
 -----------------------------------------

 ---------
 b3lyp opt
 ---------
 Symbolic Z-matrix:
 Charge =  2 Multiplicity = 3

                         Standard orientation:
 ---------------------------------------------------------------------
 Center     Atomic      Atomic             Coordinates (Angstroms)
 Number     Number       Type             X           Y           Z
 ---------------------------------------------------------------------
      1          6           0        0.000000    0.796597   -0.000000
      2          6           0       -0.000000   -0.796597    0.000000
      3          6           0        0.000000   -0.000000   -1.147011
      4          6           0       -0.000000   -0.000000    1.147011
 ---------------------------------------------------------------------

 SCF Done:  E(UB3LYP) =  -151.043551970     A.U. after   11 cycles

 The electronic state is 3-B1U.
 Alpha  occ. eigenvalues --  -10.96309 -10.96304 -10.94405 -10.94392  -1.65761
 Alpha  occ. eigenvalues --   -1.36459  -1.20545  -1.07158  -1.05702  -1.03958
 Alpha  occ. eigenvalues --   -0.93281  -0.92040
 Alpha virt. eigenvalues --   -0.77012  -0.70267  -0.66857  -0.54234  -0.37955
 Alpha virt. eigenvalues --   -0.36479  -0.31514  -0.30596  -0.30133  -0.27645
 Alpha virt. eigenvalues --   -0.24741  -0.24286  -0.23468  -0.22622  -0.22142

  Beta  occ. eigenvalues --  -10.94483 -10.94482 -10.93527 -10.93518  -1.64945
  Beta  occ. eigenvalues --   -1.34131  -1.17638  -1.05715  -1.04469  -0.94399
  Beta virt. eigenvalues --   -0.77609  -0.74949  -0.73946  -0.68584  -0.61337
  Beta virt. eigenvalues --   -0.50265  -0.36552  -0.36130  -0.30472  -0.30114
  Beta virt. eigenvalues --   -0.27604  -0.27246  -0.23802  -0.22749  -0.22184

 Mulliken charges and spin densities:
               1          2
     1  C    0.690550   0.289275
     2  C    0.690550   0.289275
     3  C    0.309450   0.710725
     4  C    0.309450   0.710725
 Sum of Mulliken charges =   2.00000   2.00000

 Dipole moment (field-independent basis, Debye):
    X=             -0.0000    Y=              0.0000    Z=              0.0000  Tot=              0.0000
 Quadrupole moment (field-independent basis, Debye-Ang):
   XX=            -15.4406   YY=            -12.7423   ZZ=             -8.4691
   XY=              0.0000   XZ=             -0.0000   YZ=              0.0000

  Exact polarizability:  17.075   0.000  26.155   0.000   0.000  37.485
 Approx polarizability:  24.729   0.000  62.402  -0.000   0.000  81.319

                      1                      2                      3
                     B3U                    AG                     B2U
 Frequencies --    375.9891               719.2254               811.3675
 Red. masses --     12.0000                12.0000                12.0000
 Frc consts  --      0.9995                 3.6573                 4.6544
 IR Inten    --      7.0493                 0.0000                17.9276

                      4                      5                      6
                     B3G                    AG                     B1U
 Frequencies --   1291.9934              1383.7209              1443.8265
 Red. masses --     12.0000                12.0000                12.0000
 Frc consts  --     11.8019                13.5372                14.7388
 IR Inten    --      0.0000                 0.0000               207.1962

 - Thermochemistry -
 -------------------
 Temperature   298.150 Kelvin.  Pressure   1.00000 Atm.
 Atom     1 has atomic number  6 and mass  12.00000

 Molecular mass:    48.00000 amu.
 Principal axes and moments of inertia in atomic units:
                           1         2         3
     Eigenvalues --    54.38587 112.75707 167.14294
           X           -0.00000   0.00000   1.00000
           Y           -0.00000   1.00000  -0.00000
           Z            1.00000   0.00000   0.00000
 This molecule is an asymmetric top.
 Rotational symmetry number  4.
 Rotational temperatures (Kelvin)      1.59258     0.76815     0.51820
 Rotational constants (GHZ):          33.18401    16.00557    10.79759
 Zero-point vibrational energy      36044.2 (Joules/Mol)
                                    8.61477 (Kcal/Mol)
 Warning -- explicit consideration of   1 degrees of freedom as
           vibrations may cause significant error
 Vibrational temperatures:    540.96  1034.80  1167.38  1858.89  1990.86
          (Kelvin)           2077.34

 Zero-point correction=                           0.013729 (Hartree/Particle)
 Thermal correction to Energy=                    0.017101
 Thermal correction to Enthalpy=                  0.018045
 Thermal correction to Gibbs Free Energy=        -0.010517
 Sum of electronic and zero-point Energies=           -151.029823
 Sum of electronic and thermal Energies=              -151.026451
 Sum of electronic and thermal Enthalpies=            -151.025507
 Sum of electronic and thermal Free Energies=         -151.054069

                     E (Thermal)             CV                S
                      KCal/Mol        Cal/Mol-Kelvin    Cal/Mol-Kelvin
 Total                   10.731              9.263             60.113
 Electronic               0.000              0.000              2.183
 Translational            0.889              2.981             37.530
 Rotational               0.889              2.981             18.800
 Vibrational              8.953              3.301              1.600
 Vibration     1          0.747              1.521              1.055

 Optimization completed.
    -- Stationary point found.
 Normal termination of Gaussian 09 at Sun Oct 23 02:05:11 2016.
