 Gaussian 09, Revision E.01,
 Gaussian 09:  EM64L-G09RevE.01 30-Nov-2015

 -----------------------------------------
 #p b3lyp/6-311+G(3df) freq symmetry=Loose
 -----------------------------------------

 ---------
 b3lyp opt
 ---------
 Symbolic Z-matrix:
 Charge =  2 Multiplicity = 3

                         Standard orientation:
 ---------------------------------------------------------------------
 Center     Atomic      Atomic             Coordinates (Angstroms)
 Number     Number       Type             X           Y           Z
 ---------------------------------------------------------------------
      1          6           0        0.985074    0.676439    0.002347
      2          6           0       -0.250628   -0.000141   -0.008646
      3          6           0       -1.719694    0.000021    0.003950
      4          6           0        0.985248   -0.676319    0.002349
 ---------------------------------------------------------------------

 SCF Done:  E(UB3LYP) =  -151.023090262     A.U. after   26 cycles

 The electronic state is 3-A.
 Alpha  occ. eigenvalues --  -10.96471 -10.91573 -10.91496 -10.86983  -1.56701
 Alpha  occ. eigenvalues --   -1.33977  -1.12136  -1.07164  -0.99499  -0.94939
 Alpha  occ. eigenvalues --   -0.89885  -0.88799
 Alpha virt. eigenvalues --   -0.76028  -0.71407  -0.60781  -0.55728  -0.41323
 Alpha virt. eigenvalues --   -0.38068  -0.33720  -0.29708  -0.29020  -0.28277
 Alpha virt. eigenvalues --   -0.25723  -0.22120  -0.21780  -0.21553  -0.21534

  Beta  occ. eigenvalues --  -10.96121 -10.89563 -10.89501 -10.86851  -1.54974
  Beta  occ. eigenvalues --   -1.32297  -1.05928  -1.04053  -0.98269  -0.89803
  Beta virt. eigenvalues --   -0.75136  -0.74676  -0.74095  -0.65310  -0.56186
  Beta virt. eigenvalues --   -0.55096  -0.39721  -0.33208  -0.32913  -0.28983
  Beta virt. eigenvalues --   -0.28946  -0.27798  -0.25198  -0.21717  -0.21593

 Mulliken charges and spin densities:
               1          2
     1  C    0.473007   0.933718
     2  C    0.527213  -0.081970
     3  C    0.526499   0.214712
     4  C    0.473281   0.933539
 Sum of Mulliken charges =   2.00000   2.00000

 Dipole moment (field-independent basis, Debye):
    X=             -0.3309    Y=             -0.0001    Z=             -0.0072  Tot=              0.3309
 Quadrupole moment (field-independent basis, Debye-Ang):
   XX=             -3.2765   YY=            -13.1272   ZZ=            -15.8167
   XY=              0.0005   XZ=              0.0384   YZ=             -0.0000

  Exact polarizability:  48.384   0.006  27.156   0.048  -0.000  19.258
 Approx polarizability: 111.727   0.001  47.407   0.213  -0.000  29.907

                      1                      2                      3
                      A                      A                      A
 Frequencies --    218.4608               264.0851               773.7469
 Red. masses --     12.0000                12.0000                12.0000
 Frc consts  --      0.3374                 0.4931                 4.2328
 IR Inten    --      2.5601                 1.8162                69.7315

                      4                      5                      6
                      A                      A                      A
 Frequencies --    938.2713              1333.5276              1579.2404
 Red. masses --     12.0000                12.0000                12.0000
 Frc consts  --      6.2243                12.5729                17.6331
 IR Inten    --     57.6823               282.6963               287.5390

 - Thermochemistry -
 -------------------
 Temperature   298.150 Kelvin.  Pressure   1.00000 Atm.
 Atom     1 has atomic number  6 and mass  12.00000

 Molecular mass:    48.00000 amu.
 Principal axes and moments of inertia in atomic units:
                           1         2         3
     Eigenvalues --    39.21365 212.60761 251.81258
           X            1.00000  -0.00000   0.00000
           Y            0.00000   1.00000   0.00000
           Z           -0.00000  -0.00000   1.00000
 This molecule is an asymmetric top.
 Rotational symmetry number  1.
 Rotational temperatures (Kelvin)      2.20877     0.40739     0.34396
 Rotational constants (GHZ):          46.02329     8.48860     7.16700
 Zero-point vibrational energy      30548.6 (Joules/Mol)
                                    7.30130 (Kcal/Mol)
 Warning -- explicit consideration of   2 degrees of freedom as
           vibrations may cause significant error
 Vibrational temperatures:    314.32   379.96  1113.25  1349.96  1918.65
          (Kelvin)           2272.17

 Zero-point correction=                           0.011635 (Hartree/Particle)
 Thermal correction to Energy=                    0.015614
 Thermal correction to Enthalpy=                  0.016558
 Thermal correction to Gibbs Free Energy=        -0.014786
 Sum of electronic and zero-point Energies=           -151.011455
 Sum of electronic and thermal Energies=              -151.007477
 Sum of electronic and thermal Enthalpies=            -151.006532
 Sum of electronic and thermal Free Energies=         -151.037876

                     E (Thermal)             CV                S
                      KCal/Mol        Cal/Mol-Kelvin    Cal/Mol-Kelvin
 Total                    9.798             10.847             65.969
 Electronic               0.000              0.000              2.183
 Translational            0.889              2.981             37.530
 Rotational               0.889              2.981             22.267
 Vibrational              8.020              4.886              3.988
 Vibration     1          0.646              1.813              1.972
 Vibration     2          0.671              1.739              1.635

 Normal termination of Gaussian 09 at Thu Jun 16 17:44:20 2016.
