 Gaussian 09, Revision E.01,
 Gaussian 09:  EM64L-G09RevE.01 30-Nov-2015

 -----------------------------------------
 #p b3lyp/6-311+G(3df) freq symmetry=Loose
 -----------------------------------------

 ---------
 b3lyp opt
 ---------
 Symbolic Z-matrix:
 Charge =  2 Multiplicity = 1

                         Standard orientation:
 ---------------------------------------------------------------------
 Center     Atomic      Atomic             Coordinates (Angstroms)
 Number     Number       Type             X           Y           Z
 ---------------------------------------------------------------------
      1          6           0       -0.000000    1.019582    0.000000
      2          6           0        1.019582   -0.000000    0.000000
      3          6           0       -1.019582    0.000000    0.000000
      4          6           0       -0.000000   -1.019582   -0.000000
 ---------------------------------------------------------------------

 SCF Done:  E(RB3LYP) =  -151.026375128     A.U. after    8 cycles

 The electronic state is 1-A1G.
 Alpha  occ. eigenvalues --  -10.95227 -10.95193 -10.95193 -10.95158  -1.59647
 Alpha  occ. eigenvalues --   -1.26248  -1.26248  -1.06875  -1.01414  -0.96075
 Alpha  occ. eigenvalues --   -0.89467
 Alpha virt. eigenvalues --   -0.75532  -0.75532  -0.73511  -0.73511  -0.52351
 Alpha virt. eigenvalues --   -0.40094  -0.40094  -0.35486  -0.29835  -0.27417
 Alpha virt. eigenvalues --   -0.26610  -0.25715  -0.25715  -0.25409  -0.21905

 Mulliken charges:
               1
     1  C    0.500000
     2  C    0.500000
     3  C    0.500000
     4  C    0.500000
 Sum of Mulliken charges =   2.00000

 Dipole moment (field-independent basis, Debye):
    X=              0.0000    Y=              0.0000    Z=              0.0000  Tot=              0.0000
 Quadrupole moment (field-independent basis, Debye-Ang):
   XX=            -10.3817   YY=            -10.3817   ZZ=            -16.1058
   XY=             -0.0000   XZ=              0.0000   YZ=             -0.0000

  Exact polarizability:  39.885   0.000  39.885   0.000  -0.000  16.399
 Approx polarizability: 175.337   0.000 175.337   0.000   0.000  26.825

                      1                      2                      3
                     B2U                    EU                     EU
 Frequencies --    546.5675               554.1702               554.1702
 Red. masses --     12.0000                12.0000                12.0000
 Frc consts  --      2.1121                 2.1713                 2.1713
 IR Inten    --      0.0000                35.6063                35.6063

                      4                      5                      6
                     B1G                    B2G                    A1G
 Frequencies --    633.3897              1232.3635              1244.5871
 Red. masses --     12.0000                12.0000                12.0000
 Frc consts  --      2.8364                10.7376                10.9517
 IR Inten    --      0.0000                 0.0000                 0.0000

 - Thermochemistry -
 -------------------
 Temperature   298.150 Kelvin.  Pressure   1.00000 Atm.
 Atom     1 has atomic number  6 and mass  12.00000

 Molecular mass:    48.00000 amu.
 Principal axes and moments of inertia in atomic units:
                           1         2         3
     Eigenvalues --    89.09492  89.09492 178.18983
           X           -0.19612   0.98058   0.00000
           Y            0.98058   0.19612   0.00000
           Z           -0.00000  -0.00000   1.00000
 This molecule is an oblate symmetric top.
 Rotational symmetry number  8.
 Rotational temperatures (Kelvin)      0.97215     0.97215     0.48608
 Rotational constants (GHZ):          20.25639    20.25639    10.12819
 Zero-point vibrational energy      28502.5 (Joules/Mol)
                                    6.81226 (Kcal/Mol)
 Warning -- explicit consideration of   3 degrees of freedom as
           vibrations may cause significant error
 Vibrational temperatures:    786.39   797.33   797.33   911.31  1773.09
          (Kelvin)           1790.68

 Zero-point correction=                           0.010856 (Hartree/Particle)
 Thermal correction to Energy=                    0.014426
 Thermal correction to Enthalpy=                  0.015370
 Thermal correction to Gibbs Free Energy=        -0.011884
 Sum of electronic and zero-point Energies=           -151.015519
 Sum of electronic and thermal Energies=              -151.011949
 Sum of electronic and thermal Enthalpies=            -151.011005
 Sum of electronic and thermal Free Energies=         -151.038259

                     E (Thermal)             CV                S
                      KCal/Mol        Cal/Mol-Kelvin    Cal/Mol-Kelvin
 Total                    9.052             10.694             57.361
 Electronic               0.000              0.000              0.000
 Translational            0.889              2.981             37.530
 Rotational               0.889              2.981             17.742
 Vibrational              7.275              4.732              2.089
 Vibration     1          0.902              1.147              0.551
 Vibration     2          0.910              1.131              0.536
 Vibration     3          0.910              1.131              0.536

 Optimization completed.
    -- Stationary point found.
 Normal termination of Gaussian 09 at Thu Jun 16 17:34:37 2016.
