 Gaussian 09, Revision E.01,
 Gaussian 09:  EM64L-G09RevE.01 30-Nov-2015

 -----------------------------------------
 #p b3lyp/6-311+G(3df) freq symmetry=Loose
 -----------------------------------------

 ---------
 b3lyp opt
 ---------
 Symbolic Z-matrix:
 Charge =  2 Multiplicity = 3

                         Standard orientation:
 ---------------------------------------------------------------------
 Center     Atomic      Atomic             Coordinates (Angstroms)
 Number     Number       Type             X           Y           Z
 ---------------------------------------------------------------------
      1          6           0       -0.005005    1.903721    0.000000
      2          6           0       -0.155594   -0.585969    1.052904
      3          6           0        0.471787   -1.198710   -0.000000
      4          6           0       -0.155594    0.466928    0.000000
      5          6           0       -0.155594   -0.585969   -1.052904
 ---------------------------------------------------------------------

 SCF Done:  E(UB3LYP) =  -189.096801315     A.U. after   20 cycles

 The electronic state is 3-A".
 Alpha  occ. eigenvalues --  -10.90671 -10.86325 -10.86099 -10.86086 -10.84761
 Alpha  occ. eigenvalues --   -1.55383  -1.32003  -1.23566  -1.10805  -1.00266
 Alpha  occ. eigenvalues --   -0.99735  -0.91320  -0.86577  -0.84563  -0.83687
 Alpha virt. eigenvalues --   -0.70467  -0.67867  -0.64446  -0.56726  -0.51893
 Alpha virt. eigenvalues --   -0.36575  -0.33278  -0.31222  -0.28664  -0.27419
 Alpha virt. eigenvalues --   -0.26745  -0.24107  -0.23489  -0.22237  -0.21505

  Beta  occ. eigenvalues --  -10.90182 -10.85304 -10.84953 -10.84947 -10.84186
  Beta  occ. eigenvalues --   -1.54217  -1.29717  -1.21571  -1.08578  -0.98320
  Beta  occ. eigenvalues --   -0.95774  -0.87720  -0.83583
  Beta virt. eigenvalues --   -0.72353  -0.69972  -0.66561  -0.65564  -0.63044
  Beta virt. eigenvalues --   -0.53332  -0.47511  -0.34452  -0.32524  -0.29668
  Beta virt. eigenvalues --   -0.28260  -0.26408  -0.25930  -0.23724  -0.22823

 Mulliken charges and spin densities:
               1          2
     1  C    0.340797   0.283575
     2  C    0.039982   0.510098
     3  C    0.769678   0.404624
     4  C    0.809561   0.291604
     5  C    0.039982   0.510098
 Sum of Mulliken charges =   2.00000   2.00000

 Dipole moment (field-independent basis, Debye):
    X=              0.4185    Y=              0.3188    Z=              0.0000  Tot=              0.5261
 Quadrupole moment (field-independent basis, Debye-Ang):
   XX=            -20.9160   YY=             -6.6610   ZZ=            -17.3855
   XY=             -1.7556   XZ=             -0.0000   YZ=              0.0000

  Exact polarizability:  25.334  -4.147  68.070  -0.000  -0.000  50.357
 Approx polarizability:  42.314 -12.862 152.804   0.000  -0.000 122.723

                      1                      2                      3
                     A"                     A'                     A'
 Frequencies --    200.6138               235.6523               326.9057
 Red. masses --     12.0000                12.0000                12.0000
 Frc consts  --      0.2845                 0.3926                 0.7556
 IR Inten    --      3.6553                 7.3931                10.7239

                      4                      5                      6
                     A'                     A"                     A'
 Frequencies --    571.4552               706.0364               738.0557
 Red. masses --     12.0000                12.0000                12.0000
 Frc consts  --      2.3089                 3.5244                 3.8513
 IR Inten    --      1.6107                20.1093                 2.7422

                      7                      8                      9
                     A'                     A"                     A'
 Frequencies --   1116.6098              1130.6745              1315.1554
 Red. masses --     12.0000                12.0000                12.0000
 Frc consts  --      8.8152                 9.0387                12.2288
 IR Inten    --    314.4980                 1.0623                85.5628

 - Thermochemistry -
 -------------------
 Temperature   298.150 Kelvin.  Pressure   1.00000 Atm.
 Atom     1 has atomic number  6 and mass  12.00000

 Molecular mass:    60.00000 amu.
 Principal axes and moments of inertia in atomic units:
                           1         2         3
     Eigenvalues --   106.03968 268.30289 352.29064
           X           -0.08125   0.00000   0.99669
           Y            0.99669   0.00000   0.08125
           Z           -0.00000   1.00000  -0.00000
 This molecule is an asymmetric top.
 Rotational symmetry number  1.
 Rotational temperatures (Kelvin)      0.81681     0.32282     0.24586
 Rotational constants (GHZ):          17.01949     6.72651     5.12288
 Zero-point vibrational energy      37928.6 (Joules/Mol)
                                    9.06514 (Kcal/Mol)
 Warning -- explicit consideration of   4 degrees of freedom as
           vibrations may cause significant error
 Vibrational temperatures:    288.64   339.05   470.34   822.20  1015.83
          (Kelvin)           1061.90  1606.55  1626.79  1892.21

 Zero-point correction=                           0.014446 (Hartree/Particle)
 Thermal correction to Energy=                    0.019174
 Thermal correction to Enthalpy=                  0.020118
 Thermal correction to Gibbs Free Energy=        -0.013445
 Sum of electronic and zero-point Energies=           -189.082355
 Sum of electronic and thermal Energies=              -189.077627
 Sum of electronic and thermal Enthalpies=            -189.076683
 Sum of electronic and thermal Free Energies=         -189.110247

                     E (Thermal)             CV                S
                      KCal/Mol        Cal/Mol-Kelvin    Cal/Mol-Kelvin
 Total                   12.032             14.539             70.640
 Electronic               0.000              0.000              2.183
 Translational            0.889              2.981             38.195
 Rotational               0.889              2.981             23.820
 Vibrational             10.254              8.577              6.442
 Vibration     1          0.638              1.839              2.127
 Vibration     2          0.655              1.786              1.835
 Vibration     3          0.711              1.622              1.275
 Vibration     4          0.928              1.093              0.501

 Optimization completed.
    -- Stationary point found.
 Normal termination of Gaussian 09 at Sun Oct 23 02:12:22 2016.
