 Gaussian 09, Revision E.01,
 Gaussian 09:  EM64L-G09RevE.01 30-Nov-2015

 -----------------------------------------
 #p b3lyp/6-311+G(3df) freq symmetry=Loose
 -----------------------------------------

 ---------
 b3lyp opt
 ---------
 Symbolic Z-matrix:
 Charge =  2 Multiplicity = 1

                         Standard orientation:
 ---------------------------------------------------------------------
 Center     Atomic      Atomic             Coordinates (Angstroms)
 Number     Number       Type             X           Y           Z
 ---------------------------------------------------------------------
      1          6           0        0.058804   -0.677936    0.000000
      2          6           0       -0.620396   -1.962214   -0.000000
      3          6           0        1.344925    0.057367    0.000000
      4          6           0       -0.783332    1.902876   -0.000000
      5          6           0       -0.000000    0.679908   -0.000000
 ---------------------------------------------------------------------

 SCF Done:  E(RB3LYP) =  -189.092500608     A.U. after   15 cycles

 The electronic state is 1-A'.
 Alpha  occ. eigenvalues --  -10.90217 -10.90197 -10.81767 -10.81130 -10.81063
 Alpha  occ. eigenvalues --   -1.48167  -1.29145  -1.26452  -1.04237  -0.94050
 Alpha  occ. eigenvalues --   -0.93875  -0.85966  -0.83969  -0.79950
 Alpha virt. eigenvalues --   -0.73704  -0.68028  -0.66390  -0.63828  -0.52678
 Alpha virt. eigenvalues --   -0.47397  -0.37285  -0.34406  -0.29556  -0.29212
 Alpha virt. eigenvalues --   -0.27729  -0.26347  -0.25969  -0.23874  -0.21419

 Mulliken charges:
               1
     1  C    0.633233
     2  C    0.308178
     3  C    0.113447
     4  C    0.309245
     5  C    0.635897
 Sum of Mulliken charges =   2.00000

 Dipole moment (field-independent basis, Debye):
    X=             -1.8250    Y=             -0.0831    Z=             -0.0000  Tot=              1.8269
 Quadrupole moment (field-independent basis, Debye-Ang):
   XX=            -18.8002   YY=             -3.5005   ZZ=            -20.4607
   XY=             -0.6490   XZ=             -0.0000   YZ=             -0.0000

  Exact polarizability:  45.870  -1.122  72.648  -0.000  -0.000  27.495
 Approx polarizability: 114.524  -3.586 200.683   0.000  -0.000  45.169

                      1                      2                      3
                     A'                     A"                     A"
 Frequencies --    137.3351               212.9255               265.5858
 Red. masses --     12.0000                12.0000                12.0000
 Frc consts  --      0.1334                 0.3205                 0.4987
 IR Inten    --      0.1551                11.6531                 0.0001

                      4                      5                      6
                     A'                     A'                     A'
 Frequencies --    279.7614               628.7081               741.6689
 Red. masses --     12.0000                12.0000                12.0000
 Frc consts  --      0.5534                 2.7947                 3.8891
 IR Inten    --     12.4968                 1.4507                57.0964

                      7                      8                      9
                     A'                     A'                     A'
 Frequencies --    882.1957              1100.3678              1687.8513
 Red. masses --     12.0000                12.0000                12.0000
 Frc consts  --      5.5025                 8.5607                20.1419
 IR Inten    --      8.4789              1132.5677               150.9433

 - Thermochemistry -
 -------------------
 Temperature   298.150 Kelvin.  Pressure   1.00000 Atm.
 Atom     1 has atomic number  6 and mass  12.00000

 Molecular mass:    60.00000 amu.
 Principal axes and moments of inertia in atomic units:
                           1         2         3
     Eigenvalues --   120.02345 360.23468 480.25813
           X           -0.04213   0.99911   0.00000
           Y            0.99911   0.04213   0.00000
           Z           -0.00000   0.00000   1.00000
 This molecule is an asymmetric top.
 Rotational symmetry number  1.
 Rotational temperatures (Kelvin)      0.72164     0.24044     0.18035
 Rotational constants (GHZ):          15.03657     5.00990     3.75786
 Zero-point vibrational energy      35507.6 (Joules/Mol)
                                    8.48651 (Kcal/Mol)
 Warning -- explicit consideration of   4 degrees of freedom as
           vibrations may cause significant error
 Vibrational temperatures:    197.59   306.35   382.12   402.51   904.57
          (Kelvin)           1067.09  1269.28  1583.18  2428.44

 Zero-point correction=                           0.013524 (Hartree/Particle)
 Thermal correction to Energy=                    0.018801
 Thermal correction to Enthalpy=                  0.019745
 Thermal correction to Gibbs Free Energy=        -0.014293
 Sum of electronic and zero-point Energies=           -189.078976
 Sum of electronic and thermal Energies=              -189.073700
 Sum of electronic and thermal Enthalpies=            -189.072756
 Sum of electronic and thermal Free Energies=         -189.106794

                     E (Thermal)             CV                S
                      KCal/Mol        Cal/Mol-Kelvin    Cal/Mol-Kelvin
 Total                   11.798             15.712             71.639
 Electronic               0.000              0.000              0.000
 Translational            0.889              2.981             38.195
 Rotational               0.889              2.981             24.544
 Vibrational             10.020              9.750              8.900
 Vibration     1          0.614              1.916              2.841
 Vibration     2          0.644              1.821              2.018
 Vibration     3          0.671              1.736              1.625
 Vibration     4          0.680              1.711              1.535

 Optimization completed.
    -- Stationary point found.
 Normal termination of Gaussian 09 at Sun Oct 23 02:06:45 2016.
