 Gaussian 09, Revision E.01,
 Gaussian 09:  EM64L-G09RevE.01 30-Nov-2015

 -----------------------------------------
 #p b3lyp/6-311+G(3df) freq symmetry=Loose
 -----------------------------------------

 ---------
 b3lyp opt
 ---------
 Symbolic Z-matrix:
 Charge =  2 Multiplicity = 1

                         Standard orientation:
 ---------------------------------------------------------------------
 Center     Atomic      Atomic             Coordinates (Angstroms)
 Number     Number       Type             X           Y           Z
 ---------------------------------------------------------------------
      1          6           0       -0.748289   -0.722280    0.000000
      2          6           0        0.748183   -0.720375   -0.000000
      3          6           0        1.378927    0.395952   -0.000000
      4          6           0       -1.378821    0.393881    0.000000
      5          6           0       -0.000000    0.652823    0.000000
 ---------------------------------------------------------------------

 SCF Done:  E(RB3LYP) =  -189.126074217     A.U. after   14 cycles

 The electronic state is 1-A'.
 Alpha  occ. eigenvalues --  -10.94963 -10.90979 -10.90952 -10.84842 -10.84836
 Alpha  occ. eigenvalues --   -1.63947  -1.44756  -1.22929  -1.12266  -1.05580
 Alpha  occ. eigenvalues --   -1.04574  -0.98819  -0.86174  -0.85525
 Alpha virt. eigenvalues --   -0.73967  -0.70353  -0.69493  -0.53472  -0.49358
 Alpha virt. eigenvalues --   -0.48632  -0.39268  -0.33657  -0.32193  -0.29536
 Alpha virt. eigenvalues --   -0.27699  -0.26440  -0.26240  -0.22744  -0.22208

 Mulliken charges:
               1
     1  C    0.369207
     2  C    0.368067
     3  C    0.376513
     4  C    0.375254
     5  C    0.510958
 Sum of Mulliken charges =   2.00000

 Dipole moment (field-independent basis, Debye):
    X=             -0.0020    Y=             -1.1328    Z=              0.0000  Tot=              1.1328
 Quadrupole moment (field-independent basis, Debye-Ang):
   XX=            -10.5008   YY=            -14.8883   ZZ=            -21.6854
   XY=              0.0083   XZ=             -0.0000   YZ=              0.0000

  Exact polarizability:  58.915   0.026  29.396  -0.000  -0.000  19.111
 Approx polarizability: 262.809   0.086  73.783  -0.000   0.000  29.095

                      1                      2                      3
                     A"                     A'                     A"
 Frequencies --    264.8852               367.3340               424.3207
 Red. masses --     12.0000                12.0000                12.0000
 Frc consts  --      0.4961                 0.9540                 1.2730
 IR Inten    --      0.0000                13.1503                 0.0696

                      4                      5                      6
                     A'                     A'                     A'
 Frequencies --    740.2886               816.6793              1116.7345
 Red. masses --     12.0000                12.0000                12.0000
 Frc consts  --      3.8747                 4.7156                 8.8172
 IR Inten    --      0.6887                25.1446                 0.3160

                      7                      8                      9
                     A'                     A'                     A'
 Frequencies --   1125.9979              1715.5962              1728.9012
 Red. masses --     12.0000                12.0000                12.0000
 Frc consts  --      8.9641                20.8095                21.1335
 IR Inten    --    121.6865                27.5643                 0.0108

 - Thermochemistry -
 -------------------
 Temperature   298.150 Kelvin.  Pressure   1.00000 Atm.
 Atom     1 has atomic number  6 and mass  12.00000

 Molecular mass:    60.00000 amu.
 Principal axes and moments of inertia in atomic units:
                           1         2         3
     Eigenvalues --    76.22308 210.93444 287.15752
           X            1.00000  -0.00140   0.00000
           Y            0.00140   1.00000   0.00000
           Z            0.00000  -0.00000   1.00000
 This molecule is an asymmetric top.
 Rotational symmetry number  1.
 Rotational temperatures (Kelvin)      1.13632     0.41062     0.30162
 Rotational constants (GHZ):          23.67710     8.55593     6.28485
 Zero-point vibrational energy      49649.4 (Joules/Mol)
                                   11.86650 (Kcal/Mol)
 Warning -- explicit consideration of   3 degrees of freedom as
           vibrations may cause significant error
 Vibrational temperatures:    381.11   528.51   610.50  1065.11  1175.02
          (Kelvin)           1606.73  1620.06  2468.36  2487.50

 Zero-point correction=                           0.018910 (Hartree/Particle)
 Thermal correction to Energy=                    0.023059
 Thermal correction to Enthalpy=                  0.024003
 Thermal correction to Gibbs Free Energy=        -0.007081
 Sum of electronic and zero-point Energies=           -189.107164
 Sum of electronic and thermal Energies=              -189.103015
 Sum of electronic and thermal Enthalpies=            -189.102071
 Sum of electronic and thermal Free Energies=         -189.133155

                     E (Thermal)             CV                S
                      KCal/Mol        Cal/Mol-Kelvin    Cal/Mol-Kelvin
 Total                   14.470             12.625             65.422
 Electronic               0.000              0.000              0.000
 Translational            0.889              2.981             38.195
 Rotational               0.889              2.981             23.050
 Vibrational             12.692              6.664              4.177
 Vibration     1          0.671              1.737              1.629
 Vibration     2          0.740              1.539              1.091
 Vibration     3          0.786              1.417              0.877

 Optimization completed.
    -- Stationary point found.
 Normal termination of Gaussian 09 at Sun Oct 23 02:06:59 2016.
