 Gaussian 09, Revision E.01,
 Gaussian 09:  EM64L-G09RevE.01 30-Nov-2015

 -----------------------------------------
 #p b3lyp/6-311+G(3df) freq symmetry=Loose
 -----------------------------------------

 ---------
 b3lyp opt
 ---------
 Symbolic Z-matrix:
 Charge =  2 Multiplicity = 3

                         Standard orientation:
 ---------------------------------------------------------------------
 Center     Atomic      Atomic             Coordinates (Angstroms)
 Number     Number       Type             X           Y           Z
 ---------------------------------------------------------------------
      1          6           0        0.000000    0.000000    0.000000
      2          6           0        0.000000   -0.000000   -2.534569
      3          6           0        0.000000   -0.000000   -1.291739
      4          6           0       -0.000000   -0.000000    2.534569
      5          6           0       -0.000000   -0.000000    1.291739
 ---------------------------------------------------------------------

 SCF Done:  E(UB3LYP) =  -189.232084800     A.U. after   13 cycles

 The electronic state is 3-SGU.
 Alpha  occ. eigenvalues --  -10.85080 -10.85077 -10.82578 -10.73065 -10.73059
 Alpha  occ. eigenvalues --   -1.35953  -1.31853  -1.24974  -1.15533  -0.92160
 Alpha  occ. eigenvalues --   -0.91880  -0.89367  -0.89367  -0.82328  -0.82328
 Alpha virt. eigenvalues --   -0.67369  -0.67369  -0.48689  -0.48689  -0.33112
 Alpha virt. eigenvalues --   -0.32360  -0.32360  -0.27735  -0.27511  -0.25363
 Alpha virt. eigenvalues --   -0.25363  -0.20862  -0.20526  -0.20526  -0.19182

  Beta  occ. eigenvalues --  -10.82766 -10.82508 -10.82505 -10.72923 -10.72916
  Beta  occ. eigenvalues --   -1.35965  -1.30021  -1.22846  -1.14697  -0.89655
  Beta  occ. eigenvalues --   -0.89655  -0.80162  -0.80162
  Beta virt. eigenvalues --   -0.68377  -0.68101  -0.64373  -0.64373  -0.45552
  Beta virt. eigenvalues --   -0.45552  -0.33082  -0.30804  -0.30804  -0.27744
  Beta virt. eigenvalues --   -0.27309  -0.25335  -0.25335  -0.20242  -0.20242

 Mulliken charges and spin densities:
               1          2
     1  C   -0.929126  -0.131746
     2  C    0.466932   1.180111
     3  C    0.997631  -0.114238
     4  C    0.466932   1.180111
     5  C    0.997631  -0.114238
 Sum of Mulliken charges =   2.00000   2.00000

 Dipole moment (field-independent basis, Debye):
    X=             -0.0000    Y=             -0.0000    Z=              0.0000  Tot=              0.0000
 Quadrupole moment (field-independent basis, Debye-Ang):
   XX=            -21.8732   YY=            -21.8732   ZZ=             27.4967
   XY=              0.0000   XZ=             -0.0000   YZ=              0.0000

  Exact polarizability:  22.531  -0.000  22.531  -0.000  -0.000 106.056
 Approx polarizability:  29.797   0.000  29.797  -0.000  -0.000 409.376

                      1                      2                      3
                     PIU                    PIU                    PIG
 Frequencies --    143.8369               143.8370               275.0234
 Red. masses --     12.0000                12.0000                12.0000
 Frc consts  --      0.1463                 0.1463                 0.5348
 IR Inten    --      8.8921                 8.8921                 0.0000

                      4                      5                      6
                     PIG                    PIU                    PIU
 Frequencies --    275.0235               642.6527               642.6528
 Red. masses --     12.0000                12.0000                12.0000
 Frc consts  --      0.5348                 2.9200                 2.9200
 IR Inten    --      0.0000                 6.5857                 6.5857

                      7                      8                      9
                     SGG                    SGU                    SGG
 Frequencies --    807.7575              1586.7399              2132.7899
 Red. masses --     12.0000                12.0000                12.0000
 Frc consts  --      4.6131                17.8009                32.1609
 IR Inten    --      0.0000                62.1541                 0.0000

                     10
                     SGU
 Frequencies --   2262.9043
 Red. masses --     12.0000
 Frc consts  --     36.2046
 IR Inten    --   2225.3471

 - Thermochemistry -
 -------------------
 Temperature   298.150 Kelvin.  Pressure   1.00000 Atm.
 Atom     1 has atomic number  6 and mass  12.00000

 Molecular mass:    60.00000 amu.
 Principal axes and moments of inertia in atomic units:
                           1         2         3
     Eigenvalues --     0.00000 693.58349 693.58349
           X           -0.00000   0.99993  -0.01190
           Y           -0.00000   0.01190   0.99993
           Z            1.00000   0.00000  -0.00000
 This molecule is a prolate symmetric top.
 Rotational symmetry number  2.
 Warning -- assumption of classical behavior for rotation
           may cause significant error
 Rotational temperature (Kelvin)      0.12488
 Rotational constant (GHZ):           2.602053
 Zero-point vibrational energy      53312.9 (Joules/Mol)
                                   12.74208 (Kcal/Mol)
 Warning -- explicit consideration of   4 degrees of freedom as
           vibrations may cause significant error
 Vibrational temperatures:    206.95   206.95   395.70   395.70   924.63
          (Kelvin)            924.63  1162.18  2282.96  3068.61  3255.81

 Zero-point correction=                           0.020306 (Hartree/Particle)
 Thermal correction to Energy=                    0.025235
 Thermal correction to Enthalpy=                  0.026179
 Thermal correction to Gibbs Free Energy=        -0.005204
 Sum of electronic and zero-point Energies=           -189.211779
 Sum of electronic and thermal Energies=              -189.206850
 Sum of electronic and thermal Enthalpies=            -189.205905
 Sum of electronic and thermal Free Energies=         -189.237289

                     E (Thermal)             CV                S
                      KCal/Mol        Cal/Mol-Kelvin    Cal/Mol-Kelvin
 Total                   15.835             14.816             66.052
 Electronic               0.000              0.000              2.183
 Translational            0.889              2.981             38.195
 Rotational               0.592              1.987             16.066
 Vibrational             14.354              9.848              9.607
 Vibration     1          0.616              1.909              2.752
 Vibration     2          0.616              1.909              2.752
 Vibration     3          0.677              1.720              1.564
 Vibration     4          0.677              1.720              1.564

 Optimization completed.
    -- Stationary point found.
 Normal termination of Gaussian 09 at Thu Jun 16 17:51:24 2016.
