 Gaussian 09, Revision E.01,
 Gaussian 09:  EM64L-G09RevE.01 30-Nov-2015

 -----------------------------------------
 #p b3lyp/6-311+G(3df) freq symmetry=Loose
 -----------------------------------------

 ---------
 b3lyp opt
 ---------
 Symbolic Z-matrix:
 Charge =  2 Multiplicity = 3

                         Standard orientation:
 ---------------------------------------------------------------------
 Center     Atomic      Atomic             Coordinates (Angstroms)
 Number     Number       Type             X           Y           Z
 ---------------------------------------------------------------------
      1          6           0        1.194679   -0.472489   -0.253150
      2          6           0        0.777073    0.763568    0.250794
      3          6           0       -1.347350   -0.267653   -0.017841
      4          6           0       -0.549803    0.823318   -0.178905
      5          6           0       -0.074599   -0.846744    0.199101
 ---------------------------------------------------------------------

 SCF Done:  E(UB3LYP) =  -189.124737910     A.U. after   23 cycles

 The electronic state is 3-A.
 Alpha  occ. eigenvalues --  -10.89676 -10.89577 -10.88741 -10.87982 -10.86602
 Alpha  occ. eigenvalues --   -1.59569  -1.38366  -1.26316  -1.09937  -1.07560
 Alpha  occ. eigenvalues --   -1.03193  -0.98430  -0.88681  -0.85692  -0.84087
 Alpha virt. eigenvalues --   -0.69761  -0.66941  -0.62159  -0.58669  -0.53410
 Alpha virt. eigenvalues --   -0.33773  -0.32508  -0.29326  -0.28464  -0.27509
 Alpha virt. eigenvalues --   -0.26091  -0.25672  -0.23903  -0.22483  -0.22149

  Beta  occ. eigenvalues --  -10.88999 -10.88152 -10.88066 -10.87389 -10.85681
  Beta  occ. eigenvalues --   -1.57972  -1.36201  -1.24296  -1.08132  -1.05377
  Beta  occ. eigenvalues --   -0.98806  -0.95006  -0.84656
  Beta virt. eigenvalues --   -0.73038  -0.71048  -0.68869  -0.64104  -0.59207
  Beta virt. eigenvalues --   -0.55874  -0.47596  -0.32760  -0.31105  -0.28838
  Beta virt. eigenvalues --   -0.27428  -0.26993  -0.25421  -0.25201  -0.22972

 Mulliken charges and spin densities:
               1          2
     1  C    0.474013  -0.385900
     2  C    0.470268   0.797793
     3  C    0.276072   1.178465
     4  C    0.409258   0.131043
     5  C    0.370388   0.278599
 Sum of Mulliken charges =   2.00000   2.00000

 Dipole moment (field-independent basis, Debye):
    X=             -0.0543    Y=              0.4090    Z=              0.5376  Tot=              0.6776
 Quadrupole moment (field-independent basis, Debye-Ang):
   XX=            -11.0916   YY=            -14.6317   ZZ=            -21.5262
   XY=              0.0989   XZ=              0.4080   YZ=             -0.2541

  Exact polarizability:  49.270  -0.680  36.808   0.032  -0.488  22.863
 Approx polarizability: 127.202  -4.691  96.039  -0.021  -3.689  38.322

                      1                      2                      3
                      A                      A                      A
 Frequencies --    160.5068               458.6391               488.7263
 Red. masses --     12.0000                12.0000                12.0000
 Frc consts  --      0.1821                 1.4872                 1.6887
 IR Inten    --      3.0296                 9.1496                 3.9341

                      4                      5                      6
                      A                      A                      A
 Frequencies --    534.5663               840.8084              1057.8639
 Red. masses --     12.0000                12.0000                12.0000
 Frc consts  --      2.0204                 4.9983                 7.9121
 IR Inten    --      7.5497                14.2785                 5.1110

                      7                      8                      9
                      A                      A                      A
 Frequencies --   1113.0997              1159.1592              1399.3304
 Red. masses --     12.0000                12.0000                12.0000
 Frc consts  --      8.7599                 9.4999                13.8443
 IR Inten    --     15.5402                 0.1864                60.4529

 - Thermochemistry -
 -------------------
 Temperature   298.150 Kelvin.  Pressure   1.00000 Atm.
 Atom     1 has atomic number  6 and mass  12.00000

 Molecular mass:    60.00000 amu.
 Principal axes and moments of inertia in atomic units:
                           1         2         3
     Eigenvalues --   105.91909 186.54883 275.41690
           X            1.00000   0.00000  -0.00000
           Y            0.00000   1.00000   0.00000
           Z            0.00000  -0.00000   1.00000
 This molecule is an asymmetric top.
 Rotational symmetry number  1.
 Rotational temperatures (Kelvin)      0.81774     0.46430     0.31448
 Rotational constants (GHZ):          17.03887     9.67436     6.55276
 Zero-point vibrational energy      43141.5 (Joules/Mol)
                                   10.31107 (Kcal/Mol)
 Warning -- explicit consideration of   4 degrees of freedom as
           vibrations may cause significant error
 Vibrational temperatures:    230.93   659.88   703.17   769.12  1209.73
          (Kelvin)           1522.03  1601.50  1667.77  2013.32

 Zero-point correction=                           0.016432 (Hartree/Particle)
 Thermal correction to Energy=                    0.020726
 Thermal correction to Enthalpy=                  0.021670
 Thermal correction to Gibbs Free Energy=        -0.010898
 Sum of electronic and zero-point Energies=           -189.108306
 Sum of electronic and thermal Energies=              -189.104012
 Sum of electronic and thermal Enthalpies=            -189.103068
 Sum of electronic and thermal Free Energies=         -189.135636

                     E (Thermal)             CV                S
                      KCal/Mol        Cal/Mol-Kelvin    Cal/Mol-Kelvin
 Total                   13.006             13.155             68.546
 Electronic               0.000              0.000              2.183
 Translational            0.889              2.981             38.195
 Rotational               0.889              2.981             23.213
 Vibrational             11.228              7.193              4.955
 Vibration     1          0.622              1.891              2.544
 Vibration     2          0.817              1.342              0.770
 Vibration     3          0.845              1.275              0.687
 Vibration     4          0.890              1.174              0.577

 Normal termination of Gaussian 09 at Thu Jun 16 17:58:54 2016.
