 Gaussian 09, Revision E.01,
 Gaussian 09:  EM64L-G09RevE.01 30-Nov-2015

 -----------------------------------------
 #p b3lyp/6-311+G(3df) freq symmetry=Loose
 -----------------------------------------

 ---------
 b3lyp opt
 ---------
 Symbolic Z-matrix:
 Charge =  2 Multiplicity = 1

                         Standard orientation:
 ---------------------------------------------------------------------
 Center     Atomic      Atomic             Coordinates (Angstroms)
 Number     Number       Type             X           Y           Z
 ---------------------------------------------------------------------
      1          6           0        2.638785    0.432245    0.000000
      2          6           0        0.000000    0.005418    0.000000
      3          6           0       -1.235785   -0.335777   -0.000000
      4          6           0        1.235667    0.350265    0.000000
      5          6           0       -2.638667   -0.452150   -0.000000
 ---------------------------------------------------------------------

 SCF Done:  E(RB3LYP) =  -189.173224097     A.U. after   15 cycles

 The electronic state is 1-A'.
 Alpha  occ. eigenvalues --  -10.84847 -10.84828 -10.80311 -10.79317 -10.79301
 Alpha  occ. eigenvalues --   -1.37422  -1.31002  -1.23573  -1.16837  -0.90385
 Alpha  occ. eigenvalues --   -0.89888  -0.82356  -0.81816  -0.80391
 Alpha virt. eigenvalues --   -0.75451  -0.65221  -0.64467  -0.52727  -0.52445
 Alpha virt. eigenvalues --   -0.38663  -0.36355  -0.35156  -0.32344  -0.28676
 Alpha virt. eigenvalues --   -0.26450  -0.26103  -0.20795  -0.20498  -0.20321

 Mulliken charges:
               1
     1  C    0.181928
     2  C   -0.025881
     3  C    0.851744
     4  C    0.828219
     5  C    0.163990
 Sum of Mulliken charges =   2.00000

 Dipole moment (field-independent basis, Debye):
    X=              0.0133    Y=              0.0374    Z=              0.0000  Tot=              0.0397
 Quadrupole moment (field-independent basis, Debye-Ang):
   XX=             11.6311   YY=            -18.2114   ZZ=            -23.0815
   XY=              7.9478   XZ=              0.0000   YZ=             -0.0000

  Exact polarizability: 120.640  21.190  30.760   0.000  -0.000  25.816
 Approx polarizability: 393.534  78.972  58.687   0.000   0.000  37.344

                      1                      2                      3
                     A'                     A'                     A"
 Frequencies --     48.7402                85.0356               117.3619
 Red. masses --     12.0000                12.0000                12.0000
 Frc consts  --      0.0168                 0.0511                 0.0974
 IR Inten    --     14.7173                 0.3228                 0.0045

                      4                      5                      6
                     A'                     A"                     A'
 Frequencies --    320.5013               552.9520               723.4005
 Red. masses --     12.0000                12.0000                12.0000
 Frc consts  --      0.7263                 2.1618                 3.6999
 IR Inten    --     40.2575                 2.9967                 0.1058

                      7                      8                      9
                     A'                     A'                     A'
 Frequencies --   1057.7901              1605.9528              1884.6752
 Red. masses --     12.0000                12.0000                12.0000
 Frc consts  --      7.9110                18.2346                25.1133
 IR Inten    --    912.8906                 0.6999               370.3193

 - Thermochemistry -
 -------------------
 Temperature   298.150 Kelvin.  Pressure   1.00000 Atm.
 Atom     1 has atomic number  6 and mass  12.00000

 Molecular mass:    60.00000 amu.
 Principal axes and moments of inertia in atomic units:
                           1         2         3
     Eigenvalues --     1.26857 753.21983 754.48841
           X            0.98284  -0.18447   0.00000
           Y            0.18447   0.98284   0.00000
           Z           -0.00000   0.00000   1.00000
 This molecule is an asymmetric top.
 Rotational symmetry number  1.
 Rotational temperatures (Kelvin)     68.27652     0.11499     0.11480
 Rotational constants (GHZ):        1422.65354     2.39604     2.39201
 Zero-point vibrational energy      38259.0 (Joules/Mol)
                                    9.14413 (Kcal/Mol)
 Warning -- explicit consideration of   5 degrees of freedom as
           vibrations may cause significant error
 Vibrational temperatures:     70.13   122.35   168.86   461.13   795.57
          (Kelvin)           1040.81  1521.92  2310.60  2711.62

 Zero-point correction=                           0.014572 (Hartree/Particle)
 Thermal correction to Energy=                    0.020428
 Thermal correction to Enthalpy=                  0.021372
 Thermal correction to Gibbs Free Energy=        -0.013499
 Sum of electronic and zero-point Energies=           -189.158652
 Sum of electronic and thermal Energies=              -189.152796
 Sum of electronic and thermal Enthalpies=            -189.151852
 Sum of electronic and thermal Free Energies=         -189.186723

                     E (Thermal)             CV                S
                      KCal/Mol        Cal/Mol-Kelvin    Cal/Mol-Kelvin
 Total                   12.819             15.775             73.392
 Electronic               0.000              0.000              0.000
 Translational            0.889              2.981             38.195
 Rotational               0.889              2.981             21.205
 Vibrational             11.041              9.813             13.991
 Vibration     1          0.595              1.978              4.868
 Vibration     2          0.601              1.960              3.771
 Vibration     3          0.608              1.935              3.143
 Vibration     4          0.706              1.634              1.308
 Vibration     5          0.908              1.133              0.538

 1\1\GINC-BELVIS23\Freq\RB3LYP\6-311+G(3df)\C5(2+)\ROOT\31-Oct-2016\0\\
 #p b3lyp/6-311+G(3df) freq symmetry=Loose\\b3lyp opt\\2,1\C,-0.126224,
 0.,0.024626\C,-0.003873,0.,2.694906\C,0.193805,0.,3.961595\C,-0.205192
 ,0.,1.427916\C,0.149031,0.,5.368584\\Version=EM64L-G09RevE.01\State=1-
 A'\HF=-189.1732241\RMSD=6.939e-09\RMSF=3.876e-05\ZeroPoint=0.0145721\T
 hermal=0.0204278\Dipole=-0.014022,0.,-0.0068986\DipoleDeriv=0.2353521,
 0.,-0.3136794,0.,0.3931906,0.,-0.1927105,0.,2.248988,-0.041937,0.,-0.5
 4712,0.,0.5523672,0.,-0.3248412,0.,0.3329872,0.8083818,0.,0.5200046,0.

 Normal termination of Gaussian 09 at Mon Oct 31 08:49:17 2016.
