 Gaussian 09, Revision E.01,
 Gaussian 09:  EM64L-G09RevE.01 30-Nov-2015

 ---------------------------------------------
 #p b3lyp/6-311+G(3df) opt freq symmetry=Loose
 ---------------------------------------------

 ---------
 b3lyp opt
 ---------
 Symbolic Z-matrix:
 Charge =  2 Multiplicity = 1

 SCF Done:  E(RB3LYP) =  -189.090016867     A.U. after   15 cycles
 SCF Done:  E(RB3LYP) =  -189.092261195     A.U. after   11 cycles
 SCF Done:  E(RB3LYP) =  -189.092462986     A.U. after   10 cycles
 SCF Done:  E(RB3LYP) =  -189.092486901     A.U. after    9 cycles
 SCF Done:  E(RB3LYP) =  -189.092492052     A.U. after    9 cycles
 SCF Done:  E(RB3LYP) =  -189.092494078     A.U. after    9 cycles
 SCF Done:  E(RB3LYP) =  -189.092496469     A.U. after   10 cycles
 SCF Done:  E(RB3LYP) =  -189.092499255     A.U. after   10 cycles
 SCF Done:  E(RB3LYP) =  -189.092500545     A.U. after    9 cycles
 Optimization completed.
    -- Stationary point found.
 Normal termination of Gaussian 09 at Mon Nov 14 15:55:50 2016.

 ----------------------------------------------------------------------
 #P Geom=AllCheck Guess=TCheck SCRF=Check GenChk RB3LYP/6-311+G(3df) Fr
 eq
 ----------------------------------------------------------------------

 Structure from the checkpoint file:  "/scratch/sergio/C5.q2.m1-8.com-2301893/Gau-24626.chk"
 ---------
 b3lyp opt
 ---------
 Charge =  2 Multiplicity = 1

                         Standard orientation:
 ---------------------------------------------------------------------
 Center     Atomic      Atomic             Coordinates (Angstroms)
 Number     Number       Type             X           Y           Z
 ---------------------------------------------------------------------
      1          6           0       -0.000000    0.679515    0.029183
      2          6           0       -0.000000   -0.679515    0.029183
      3          6           0       -0.000000    1.934505   -0.702215
      4          6           0       -0.000000   -1.934505   -0.702215
      5          6           0        0.000000    0.000000    1.346062
 ---------------------------------------------------------------------

 SCF Done:  E(RB3LYP) =  -189.092500545     A.U. after    1 cycles

 The electronic state is 1-A1.
 Alpha  occ. eigenvalues --  -10.90207 -10.90206 -10.81770 -10.81128 -10.81062
 Alpha  occ. eigenvalues --   -1.48164  -1.29144  -1.26449  -1.04242  -0.94044
 Alpha  occ. eigenvalues --   -0.93874  -0.85965  -0.83968  -0.79952
 Alpha virt. eigenvalues --   -0.73703  -0.68025  -0.66388  -0.63830  -0.52682
 Alpha virt. eigenvalues --   -0.47393  -0.37281  -0.34407  -0.29553  -0.29218
 Alpha virt. eigenvalues --   -0.27731  -0.26345  -0.25968  -0.23875  -0.21419

 Mulliken charges:
               1
     1  C    0.634559
     2  C    0.634559
     3  C    0.308835
     4  C    0.308835
     5  C    0.113212
 Sum of Mulliken charges =   2.00000

 Dipole moment (field-independent basis, Debye):
    X=             -0.0000    Y=              0.0000    Z=             -1.8268  Tot=              1.8268
 Quadrupole moment (field-independent basis, Debye-Ang):
   XX=            -20.4608   YY=             -3.4706   ZZ=            -18.8279
   XY=              0.0000   XZ=             -0.0000   YZ=              0.0000

  Exact polarizability:  27.495  -0.000  72.698  -0.000   0.000  45.817
 Approx polarizability:  45.169   0.000 200.810   0.000   0.000 114.350

                      1                      2                      3
                     A1                     B1                     A2
 Frequencies --    137.4672               212.9409               265.5763
 Red. masses --     12.0000                12.0000                12.0000
 Frc consts  --      0.1336                 0.3206                 0.4987
 IR Inten    --      0.1536                11.6428                 0.0000

                      4                      5                      6
                     B2                     B2                     A1
 Frequencies --    279.7643               628.5669               741.6033
 Red. masses --     12.0000                12.0000                12.0000
 Frc consts  --      0.5534                 2.7934                 3.8884
 IR Inten    --     12.5400                 1.4115                57.1795

                      7                      8                      9
                     A1                     B2                     A1
 Frequencies --    882.0400              1100.2835              1688.1426
 Red. masses --     12.0000                12.0000                12.0000
 Frc consts  --      5.5006                 8.5593                20.1488
 IR Inten    --      8.4909              1132.8715               150.9301

 - Thermochemistry -
 -------------------
 Temperature   298.150 Kelvin.  Pressure   1.00000 Atm.
 Atom     1 has atomic number  6 and mass  12.00000

 Molecular mass:    60.00000 amu.
 Principal axes and moments of inertia in atomic units:
                           1         2         3
     Eigenvalues --   119.97913 360.31055 480.28969
           X           -0.00000   0.00000   1.00000
           Y            1.00000   0.00000   0.00000
           Z           -0.00000   1.00000  -0.00000
 This molecule is an asymmetric top.
 Rotational symmetry number  2.
 Rotational temperatures (Kelvin)      0.72191     0.24039     0.18034
 Rotational constants (GHZ):          15.04213     5.00885     3.75761
 Zero-point vibrational energy      35507.5 (Joules/Mol)
                                    8.48649 (Kcal/Mol)
 Warning -- explicit consideration of   4 degrees of freedom as
           vibrations may cause significant error
 Vibrational temperatures:    197.78   306.37   382.10   402.52   904.37
          (Kelvin)           1067.00  1269.06  1583.06  2428.86

 Zero-point correction=                           0.013524 (Hartree/Particle)
 Thermal correction to Energy=                    0.018801
 Thermal correction to Enthalpy=                  0.019745
 Thermal correction to Gibbs Free Energy=        -0.013638
 Sum of electronic and zero-point Energies=           -189.078976
 Sum of electronic and thermal Energies=              -189.073700
 Sum of electronic and thermal Enthalpies=            -189.072756
 Sum of electronic and thermal Free Energies=         -189.106138

                     E (Thermal)             CV                S
                      KCal/Mol        Cal/Mol-Kelvin    Cal/Mol-Kelvin
 Total                   11.798             15.713             70.260
 Electronic               0.000              0.000              0.000
 Translational            0.889              2.981             38.195
 Rotational               0.889              2.981             23.166
 Vibrational             10.020              9.751              8.898
 Vibration     1          0.614              1.916              2.839
 Vibration     2          0.644              1.821              2.018
 Vibration     3          0.671              1.736              1.625
 Vibration     4          0.680              1.711              1.535

 Optimization completed.
    -- Stationary point found.
 Normal termination of Gaussian 09 at Mon Nov 14 15:58:54 2016.
