 Gaussian 09, Revision E.01,
 Gaussian 09:  EM64L-G09RevE.01 30-Nov-2015

 -----------------------------------------
 #p b3lyp/6-311+G(3df) freq symmetry=Loose
 -----------------------------------------

 ---------
 b3lyp opt
 ---------
 Symbolic Z-matrix:
 Charge =  1 Multiplicity = 4

                         Standard orientation:
 ---------------------------------------------------------------------
 Center     Atomic      Atomic             Coordinates (Angstroms)
 Number     Number       Type             X           Y           Z
 ---------------------------------------------------------------------
      1          6           0        0.702936    1.022394   -0.000530
      2          6           0       -0.703225    1.022077   -0.000400
      3          6           0       -1.142888   -0.400659    0.000272
      4          6           0       -0.000099   -0.622485   -0.898916
      5          6           0        0.000275   -0.620866    0.899516
      6          6           0        1.143000   -0.400460    0.000058
 ---------------------------------------------------------------------

 SCF Done:  E(UB3LYP) =  -227.782668328     A.U. after   17 cycles

 The electronic state is 4-A.
 Alpha  occ. eigenvalues --  -10.57745 -10.57735 -10.56609 -10.56605 -10.56079
 Alpha  occ. eigenvalues --  -10.56029  -1.34137  -1.06364  -1.03754  -0.90634
 Alpha  occ. eigenvalues --   -0.79733  -0.77395  -0.72973  -0.72776  -0.59910
 Alpha  occ. eigenvalues --   -0.59449  -0.58908  -0.56264  -0.52771
 Alpha virt. eigenvalues --   -0.37419  -0.34997  -0.31198  -0.30460  -0.16056
 Alpha virt. eigenvalues --   -0.13321  -0.12338  -0.11104  -0.08743  -0.08650
 Alpha virt. eigenvalues --   -0.07675  -0.07315  -0.07231  -0.06383  -0.06375

  Beta  occ. eigenvalues --  -10.57851 -10.57841 -10.54821 -10.54819 -10.54463
  Beta  occ. eigenvalues --  -10.54418  -1.32574  -1.03337  -1.00954  -0.90469
  Beta  occ. eigenvalues --   -0.76532  -0.73168  -0.71718  -0.64788  -0.58829
  Beta  occ. eigenvalues --   -0.58000
  Beta virt. eigenvalues --   -0.41913  -0.39752  -0.36392  -0.36013  -0.33400
  Beta virt. eigenvalues --   -0.31409  -0.27367  -0.14949  -0.12763  -0.11156
  Beta virt. eigenvalues --   -0.09676  -0.07720  -0.07254  -0.07089  -0.06882

 Mulliken charges and spin densities:
               1          2
     1  C    0.111453   0.810104
     2  C    0.111677   0.810199
     3  C    0.417721   0.779669
     4  C   -0.029242  -0.089923
     5  C   -0.029163  -0.089917
     6  C    0.417553   0.779868
 Sum of Mulliken charges =   1.00000   3.00000

 Dipole moment (field-independent basis, Debye):
    X=              0.0003    Y=             -0.2946    Z=             -0.0006  Tot=              0.2946
 Quadrupole moment (field-independent basis, Debye-Ang):
   XX=            -26.8959   YY=            -26.5726   ZZ=            -29.2263
   XY=             -0.0002   XZ=              0.0005   YZ=              0.0010

  Exact polarizability:  51.705   0.001  50.533   0.001   0.003  44.988
 Approx polarizability: 110.215   0.003 117.568   0.009   0.035 121.107

                      1                      2                      3
                      A                      A                      A
 Frequencies --    293.5468               322.1928               474.0205
 Red. masses --     12.0000                12.0000                12.0000
 Frc consts  --      0.6092                 0.7339                 1.5886
 IR Inten    --      0.0010                50.3910                 0.0188

                      4                      5                      6
                      A                      A                      A
 Frequencies --    569.4861               714.8713               723.6324
 Red. masses --     12.0000                12.0000                12.0000
 Frc consts  --      2.2930                 3.6132                 3.7023
 IR Inten    --      1.8712                 5.7410                 0.0001

                      7                      8                      9
                      A                      A                      A
 Frequencies --    753.5872               926.4685              1049.2496
 Red. masses --     12.0000                12.0000                12.0000
 Frc consts  --      4.0151                 6.0687                 7.7838
 IR Inten    --      0.1622                 0.0119                 7.7294

                     10                     11                     12
                      A                      A                      A
 Frequencies --   1172.9750              1181.7905              1317.0421
 Red. masses --     12.0000                12.0000                12.0000
 Frc consts  --      9.7277                 9.8744                12.2640
 IR Inten    --     21.1081                 0.2188                40.6662

 - Thermochemistry -
 -------------------
 Temperature   298.150 Kelvin.  Pressure   1.00000 Atm.
 Atom     1 has atomic number  6 and mass  12.00000

 Molecular mass:    72.00000 amu.
 Principal axes and moments of inertia in atomic units:
                           1         2         3
     Eigenvalues --   205.73488 223.62582 290.75937
           X            1.00000  -0.00000   0.00000
           Y            0.00000   1.00000  -0.00000
           Z           -0.00000   0.00000   1.00000
 This molecule is an asymmetric top.
 Rotational symmetry number  1.
 Rotational temperatures (Kelvin)      0.42100     0.38732     0.29789
 Rotational constants (GHZ):           8.77217     8.07036     6.20699
 Zero-point vibrational energy      56815.8 (Joules/Mol)
                                   13.57931 (Kcal/Mol)
 Warning -- explicit consideration of   4 degrees of freedom as
           vibrations may cause significant error
 Vibrational temperatures:    422.35   463.56   682.01   819.36  1028.54
          (Kelvin)           1041.14  1084.24  1332.98  1509.63  1687.65
                             1700.33  1894.93

 Zero-point correction=                           0.021640 (Hartree/Particle)
 Thermal correction to Energy=                    0.026145
 Thermal correction to Enthalpy=                  0.027089
 Thermal correction to Gibbs Free Energy=        -0.006512
 Sum of electronic and zero-point Energies=           -227.761028
 Sum of electronic and thermal Energies=              -227.756523
 Sum of electronic and thermal Enthalpies=            -227.755579
 Sum of electronic and thermal Free Energies=         -227.789180

                     E (Thermal)             CV                S
                      KCal/Mol        Cal/Mol-Kelvin    Cal/Mol-Kelvin
 Total                   16.406             15.371             70.720
 Electronic               0.000              0.000              2.755
 Translational            0.889              2.981             38.739
 Rotational               0.889              2.981             24.107
 Vibrational             14.629              9.409              5.119
 Vibration     1          0.688              1.686              1.453
 Vibration     2          0.707              1.631              1.299
 Vibration     3          0.831              1.308              0.726
 Vibration     4          0.926              1.097              0.505

 Optimization completed.
    -- Stationary point found.
 Normal termination of Gaussian 09 at Tue Nov  1 19:43:13 2016.
