 Gaussian 09, Revision E.01,
 Gaussian 09:  EM64L-G09RevE.01 30-Nov-2015

 -----------------------------------------
 #p b3lyp/6-311+G(3df) freq symmetry=Loose
 -----------------------------------------

 ---------
 b3lyp opt
 ---------
 Symbolic Z-matrix:
 Charge =  1 Multiplicity = 2

                         Standard orientation:
 ---------------------------------------------------------------------
 Center     Atomic      Atomic             Coordinates (Angstroms)
 Number     Number       Type             X           Y           Z
 ---------------------------------------------------------------------
      1          6           0       -0.000000    0.000000   -2.265136
      2          6           0        0.000000   -0.000000    1.485156
      3          6           0       -0.000000    0.779716   -1.024289
      4          6           0        0.000000   -0.000000    0.129921
      5          6           0       -0.000000   -0.779716   -1.024289
      6          6           0        0.000000   -0.000000    2.698634
 ---------------------------------------------------------------------

 SCF Done:  E(UB3LYP) =  -227.890045171     A.U. after   25 cycles

 The electronic state is 2-A1.
 Alpha  occ. eigenvalues --  -10.58070 -10.55386 -10.53781 -10.53760 -10.52089
 Alpha  occ. eigenvalues --  -10.48038  -1.27723  -1.08718  -1.00742  -0.89739
 Alpha  occ. eigenvalues --   -0.82916  -0.71074  -0.68856  -0.67641  -0.59815
 Alpha  occ. eigenvalues --   -0.58292  -0.58241  -0.51498
 Alpha virt. eigenvalues --   -0.42284  -0.33625  -0.31245  -0.25836  -0.22232
 Alpha virt. eigenvalues --   -0.15343  -0.12436  -0.11020  -0.10843  -0.10285
 Alpha virt. eigenvalues --   -0.08844  -0.07389  -0.06949  -0.06123  -0.05135

  Beta  occ. eigenvalues --  -10.58077 -10.53811 -10.53790 -10.52887 -10.52143
  Beta  occ. eigenvalues --  -10.47975  -1.27833  -1.07992  -0.99368  -0.89248
  Beta  occ. eigenvalues --   -0.83037  -0.71409  -0.68998  -0.58406  -0.58371
  Beta  occ. eigenvalues --   -0.56635  -0.51565
  Beta virt. eigenvalues --   -0.44835  -0.41215  -0.33783  -0.30285  -0.24614
  Beta virt. eigenvalues --   -0.20629  -0.15217  -0.11513  -0.11000  -0.10593
  Beta virt. eigenvalues --   -0.10316  -0.08900  -0.06797  -0.06705  -0.05788

 Mulliken charges and spin densities:
               1          2
     1  C   -0.668145  -0.036738
     2  C   -0.012286  -0.118738
     3  C    0.761527  -0.029989
     4  C   -0.443015  -0.058020
     5  C    0.761527  -0.029989
     6  C    0.600392   1.273474
 Sum of Mulliken charges =   1.00000   1.00000

 Dipole moment (field-independent basis, Debye):
    X=             -0.0000    Y=              0.0000    Z=              3.5549  Tot=              3.5549
 Quadrupole moment (field-independent basis, Debye-Ang):
   XX=            -28.7033   YY=            -30.9318   ZZ=            -15.1332
   XY=             -0.0000   XZ=              0.0000   YZ=             -0.0000

  Exact polarizability:  31.865  -0.000  45.420  -0.000   0.000 101.775
 Approx polarizability:  49.925   0.000  96.192   0.000  -0.000 219.811

                      1                      2                      3
                     B1                     B2                     B1
 Frequencies --    142.0038               150.3353               292.0770
 Red. masses --     12.0000                12.0000                12.0000
 Frc consts  --      0.1426                 0.1598                 0.6032
 IR Inten    --      3.5003                 0.1117                15.1122

                      4                      5                      6
                     B2                     B1                     B2
 Frequencies --    409.2839               602.9435               642.1917
 Red. masses --     12.0000                12.0000                12.0000
 Frc consts  --      1.1844                 2.5703                 2.9158
 IR Inten    --     10.6007                 0.9855                44.9101

                      7                      8                      9
                     A1                     A1                     B2
 Frequencies --    663.9304               950.6769              1127.2821
 Red. masses --     12.0000                12.0000                12.0000
 Frc consts  --      3.1166                 6.3899                 8.9846
 IR Inten    --      1.3381                 2.5556                 5.4529

                     10                     11                     12
                     A1                     A1                     A1
 Frequencies --   1246.6195              1636.8892              2210.4592
 Red. masses --     12.0000                12.0000                12.0000
 Frc consts  --     10.9875                18.9439                34.5459
 IR Inten    --    370.4855               332.0790               579.6808

 - Thermochemistry -
 -------------------
 Temperature   298.150 Kelvin.  Pressure   1.00000 Atm.
 Atom     1 has atomic number  6 and mass  12.00000

 Molecular mass:    72.00000 amu.
 Principal axes and moments of inertia in atomic units:
                           1         2         3
     Eigenvalues --    52.10535 717.11433 769.21968
           X            0.00000  -0.00000   1.00000
           Y            0.00000   1.00000   0.00000
           Z            1.00000  -0.00000  -0.00000
 This molecule is an asymmetric top.
 Rotational symmetry number  2.
 Rotational temperatures (Kelvin)      1.66228     0.12078     0.11260
 Rotational constants (GHZ):          34.63639     2.51667     2.34620
 Zero-point vibrational energy      60260.0 (Joules/Mol)
                                   14.40250 (Kcal/Mol)
 Warning -- explicit consideration of   5 degrees of freedom as
           vibrations may cause significant error
 Vibrational temperatures:    204.31   216.30   420.23   588.87   867.50
          (Kelvin)            923.97   955.25  1367.81  1621.91  1793.61
                             2355.12  3180.35

 Zero-point correction=                           0.022952 (Hartree/Particle)
 Thermal correction to Energy=                    0.028323
 Thermal correction to Enthalpy=                  0.029268
 Thermal correction to Gibbs Free Energy=        -0.005337
 Sum of electronic and zero-point Energies=           -227.867093
 Sum of electronic and thermal Energies=              -227.861722
 Sum of electronic and thermal Enthalpies=            -227.860778
 Sum of electronic and thermal Free Energies=         -227.895382

                     E (Thermal)             CV                S
                      KCal/Mol        Cal/Mol-Kelvin    Cal/Mol-Kelvin
 Total                   17.773             16.702             72.832
 Electronic               0.000              0.000              1.377
 Translational            0.889              2.981             38.739
 Rotational               0.889              2.981             23.490
 Vibrational             15.996             10.741              9.226
 Vibration     1          0.615              1.911              2.777
 Vibration     2          0.618              1.902              2.668
 Vibration     3          0.687              1.688              1.462
 Vibration     4          0.774              1.450              0.929
 Vibration     5          0.961              1.026              0.445

 Optimization completed.
    -- Stationary point found.
 Normal termination of Gaussian 09 at Tue Nov  1 19:41:14 2016.
