 Gaussian 09, Revision E.01,
 Gaussian 09:  EM64L-G09RevE.01 30-Nov-2015

 -----------------------------------------
 #p b3lyp/6-311+G(3df) freq symmetry=Loose
 -----------------------------------------

 ---------
 b3lyp opt
 ---------
 Symbolic Z-matrix:
 Charge =  2 Multiplicity = 3

                         Standard orientation:
 ---------------------------------------------------------------------
 Center     Atomic      Atomic             Coordinates (Angstroms)
 Number     Number       Type             X           Y           Z
 ---------------------------------------------------------------------
      1          6           0       -0.000000    0.000000   -1.943209
      2          6           0        0.000000   -0.000000    0.640018
      3          6           0       -0.000000    0.000000   -0.664226
      4          6           0        0.000000   -0.000000    1.894408
      5          6           0       -0.000000    0.000000   -3.205784
      6          6           0        0.000000   -0.000000    3.278793
 ---------------------------------------------------------------------

 SCF Done:  E(UB3LYP) =  -227.357895925     A.U. after   64 cycles

 Unable to determine electronic state:  an orbital has unidentified symmetry.
 Alpha  occ. eigenvalues --  -10.81516 -10.76971 -10.76354 -10.73596 -10.71469
 Alpha  occ. eigenvalues --  -10.70528  -1.33295  -1.29345  -1.23967  -1.16725
 Alpha  occ. eigenvalues --   -1.10355  -0.89606  -0.87871  -0.86721  -0.81618
 Alpha  occ. eigenvalues --   -0.80177  -0.75768  -0.73246
 Alpha virt. eigenvalues --   -0.66837  -0.57248  -0.55498  -0.42357  -0.41211
 Alpha virt. eigenvalues --   -0.31967  -0.28411  -0.28231  -0.27527  -0.26116
 Alpha virt. eigenvalues --   -0.24451  -0.24371  -0.22973  -0.19931  -0.19909

  Beta  occ. eigenvalues --  -10.78076 -10.76618 -10.75976 -10.73596 -10.71457
  Beta  occ. eigenvalues --  -10.70504  -1.32439  -1.27953  -1.21485  -1.15264
  Beta  occ. eigenvalues --   -1.09686  -0.86596  -0.85652  -0.79133  -0.78246
  Beta  occ. eigenvalues --   -0.75125
  Beta virt. eigenvalues --   -0.65044  -0.64505  -0.63365  -0.53925  -0.52436
  Beta virt. eigenvalues --   -0.39690  -0.38508  -0.31866  -0.27793  -0.26874
  Beta virt. eigenvalues --   -0.25931  -0.25623  -0.24402  -0.24053  -0.22312

 Mulliken charges and spin densities:
               1          2
     1  C    1.073128   0.008192
     2  C   -0.286388  -0.072874
     3  C   -0.632950   0.121425
     4  C    1.447523   0.135276
     5  C    0.472471   1.637072
     6  C   -0.073784   0.170908
 Sum of Mulliken charges =   2.00000   2.00000

 Dipole moment (field-independent basis, Debye):
    X=             -0.0000    Y=              0.0000    Z=             -3.0852  Tot=              3.0852
 Quadrupole moment (field-independent basis, Debye-Ang):
   XX=            -26.1579   YY=            -27.6695   ZZ=             33.3272
   XY=             -0.0000   XZ=              0.0000   YZ=             -0.0000

  Exact polarizability:  28.529   0.000  28.881   0.000   0.000 168.316
 Approx polarizability:  41.479  -0.000  39.830   0.000  -0.000 513.870

                      1                      2                      3
                     ?A                     ?A                     ?A
 Frequencies --     90.8406                91.5500               195.2052
 Red. masses --     12.0000                12.0000                12.0000
 Frc consts  --      0.0583                 0.0593                 0.2694
 IR Inten    --      0.0976                 0.0112                 6.6130

                      4                      5                      6
                     ?A                     ?A                     ?A
 Frequencies --    198.9579               374.6956               413.3354
 Red. masses --     12.0000                12.0000                12.0000
 Frc consts  --      0.2799                 0.9926                 1.2079
 IR Inten    --      8.8330                 0.0122                 0.3712

                      7                      8                      9
                     ?A                     SG                     ?A
 Frequencies --    628.6274               653.1331               700.8659
 Red. masses --     12.0000                12.0000                12.0000
 Frc consts  --      2.7939                 3.0160                 3.4730
 IR Inten    --      0.3643                23.6940                 5.1123

                     10                     11                     12
                     SG                     SG                     SG
 Frequencies --   1139.9371              1621.8073              2001.7586
 Red. masses --     12.0000                12.0000                12.0000
 Frc consts  --      9.1874                18.5964                28.3305
 IR Inten    --    599.1917                61.5639               743.6385

                     13
                     SG
 Frequencies --   2077.1882
 Red. masses --     12.0000
 Frc consts  --     30.5058
 IR Inten    --    253.4643

 - Thermochemistry -
 -------------------
 Temperature   298.150 Kelvin.  Pressure   1.00000 Atm.
 Atom     1 has atomic number  6 and mass  12.00000

 Molecular mass:    72.00000 amu.
 Principal axes and moments of inertia in atomic units:
                           1         2         3
     Eigenvalues --     0.000001253.151881253.15188
           X            0.00000   0.88700  -0.46176
           Y           -0.00000   0.46176   0.88700
           Z            1.00000  -0.00000   0.00000
 This molecule is a prolate symmetric top.
 Rotational symmetry number  1.
 Warning -- assumption of classical behavior for rotation
           may cause significant error
 Rotational temperature (Kelvin)      0.06912
 Rotational constant (GHZ):           1.440162
 Zero-point vibrational energy      60937.2 (Joules/Mol)
                                   14.56434 (Kcal/Mol)
 Warning -- explicit consideration of   6 degrees of freedom as
           vibrations may cause significant error
 Vibrational temperatures:    130.70   131.72   280.86   286.26   539.10
          (Kelvin)            594.70   904.45   939.71  1008.39  1640.11
                             2333.42  2880.08  2988.61

 Zero-point correction=                           0.023210 (Hartree/Particle)
 Thermal correction to Energy=                    0.029251
 Thermal correction to Enthalpy=                  0.030195
 Thermal correction to Gibbs Free Energy=        -0.005080
 Sum of electronic and zero-point Energies=           -227.334686
 Sum of electronic and thermal Energies=              -227.328645
 Sum of electronic and thermal Enthalpies=            -227.327701
 Sum of electronic and thermal Free Energies=         -227.362976

                     E (Thermal)             CV                S
                      KCal/Mol        Cal/Mol-Kelvin    Cal/Mol-Kelvin
 Total                   18.355             18.570             74.243
 Electronic               0.000              0.000              2.183
 Translational            0.889              2.981             38.739
 Rotational               0.592              1.987             18.619
 Vibrational             16.874             13.602             14.702
 Vibration     1          0.602              1.956              3.642
 Vibration     2          0.602              1.955              3.627
 Vibration     3          0.636              1.847              2.178
 Vibration     4          0.637              1.841              2.143
 Vibration     5          0.746              1.524              1.061
 Vibration     6          0.777              1.441              0.915

 Optimization completed.
    -- Stationary point found.
 Normal termination of Gaussian 09 at Sun Jun 19 13:19:57 2016.
