 Gaussian 09, Revision E.01,
 Gaussian 09:  EM64L-G09RevE.01 30-Nov-2015

 -----------------------------------------
 #p b3lyp/6-311+G(3df) freq symmetry=Loose
 -----------------------------------------

 ---------
 b3lyp opt
 ---------
 Symbolic Z-matrix:
 Charge =  1 Multiplicity = 2

                         Standard orientation:
 ---------------------------------------------------------------------
 Center     Atomic      Atomic             Coordinates (Angstroms)
 Number     Number       Type             X           Y           Z
 ---------------------------------------------------------------------
      1          6           0        0.000000    0.000000    3.240976
      2          6           0        0.000000    0.000000    1.906848
      3          6           0        0.000000    0.000000    0.651727
      4          6           0        0.000000    0.000000   -0.651727
      5          6           0        0.000000    0.000000   -1.906848
      6          6           0        0.000000    0.000000   -3.240976
 ---------------------------------------------------------------------

 SCF Done:  E(UB3LYP) =  -227.960764942     A.U. after   13 cycles

 Unable to determine electronic state:  an orbital has unidentified symmetry.
 Alpha  occ. eigenvalues --  -10.53165 -10.53055 -10.52809 -10.52808 -10.47804
 Alpha  occ. eigenvalues --  -10.47800  -1.12246  -1.07272  -1.01764  -0.94968
 Alpha  occ. eigenvalues --   -0.89036  -0.67156  -0.66245  -0.59763  -0.58250
 Alpha  occ. eigenvalues --   -0.55648  -0.55540  -0.50650
 Alpha virt. eigenvalues --   -0.44705  -0.35861  -0.33855  -0.20705  -0.19528
 Alpha virt. eigenvalues --   -0.16529  -0.12031  -0.10374  -0.10300  -0.07576
 Alpha virt. eigenvalues --   -0.07297  -0.07195  -0.06068  -0.05764  -0.05378

  Beta  occ. eigenvalues --  -10.53007 -10.52901 -10.52262 -10.52260 -10.47748
  Beta  occ. eigenvalues --  -10.47744  -1.11597  -1.06607  -1.00067  -0.93887
  Beta  occ. eigenvalues --   -0.88504  -0.66129  -0.65318  -0.58060  -0.57106
  Beta  occ. eigenvalues --   -0.54632  -0.54538
  Beta virt. eigenvalues --   -0.44084  -0.42450  -0.33372  -0.31887  -0.19218
  Beta virt. eigenvalues --   -0.18038  -0.16462  -0.11866  -0.10357  -0.10087
  Beta virt. eigenvalues --   -0.07132  -0.07065  -0.06688  -0.05632  -0.05212

 Mulliken charges and spin densities:
               1          2
     1  C   -0.406278   0.282616
     2  C    1.437925   0.152189
     3  C   -0.531647   0.065195
     4  C   -0.531647   0.065195
     5  C    1.437925   0.152189
     6  C   -0.406278   0.282616
 Sum of Mulliken charges =   1.00000   1.00000

 Dipole moment (field-independent basis, Debye):
    X=              0.0000    Y=              0.0000    Z=              0.0000  Tot=              0.0000
 Quadrupole moment (field-independent basis, Debye-Ang):
   XX=            -28.7921   YY=            -30.4228   ZZ=            -16.2615
   XY=             -0.0000   XZ=              0.0000   YZ=              0.0000

  Exact polarizability:  34.667   0.000  35.465  -0.000  -0.000 187.573
 Approx polarizability:  52.455  -0.000  49.884  -0.000  -0.000 564.291

                      1                      2                      3
                     ?A                     ?A                     ?B
 Frequencies --     84.5307                95.0895               164.5685
 Red. masses --     12.0000                12.0000                12.0000
 Frc consts  --      0.0505                 0.0639                 0.1915
 IR Inten    --      7.9487                 5.1688                 0.0000

                      4                      5                      6
                     ?B                     ?A                     ?A
 Frequencies --    195.4838               334.5244               384.0293
 Red. masses --     12.0000                12.0000                12.0000
 Frc consts  --      0.2702                 0.7912                 1.0427
 IR Inten    --      0.0000                 5.4453                 2.9011

                      7                      8                      9
                     ?B                     SGG                    ?B
 Frequencies --    603.7001               660.7626               674.7953
 Red. masses --     12.0000                12.0000                12.0000
 Frc consts  --      2.5768                 3.0869                 3.2194
 IR Inten    --      0.0000                 0.0000                 0.0000

                     10                     11                     12
                     SGU                    SGG                    SGU
 Frequencies --   1167.4175              1579.0350              2061.9282
 Red. masses --     12.0000                12.0000                12.0000
 Frc consts  --      9.6357                17.6285                30.0593
 IR Inten    --    465.1444                 0.0000              1285.4343

                     13
                     SGG
 Frequencies --   2189.1093
 Red. masses --     12.0000
 Frc consts  --     33.8818
 IR Inten    --      0.0000

 - Thermochemistry -
 -------------------
 Temperature   298.150 Kelvin.  Pressure   1.00000 Atm.
 Atom     1 has atomic number  6 and mass  12.00000

 Molecular mass:    72.00000 amu.
 Principal axes and moments of inertia in atomic units:
                           1         2         3
     Eigenvalues --     0.000001248.279391248.27939
           X           -0.00000   1.00000  -0.00000
           Y            0.00000   0.00000   1.00000
           Z            1.00000   0.00000  -0.00000
 This molecule is a prolate symmetric top.
 Rotational symmetry number  2.
 Warning -- assumption of classical behavior for rotation
           may cause significant error
 Rotational temperature (Kelvin)      0.06939
 Rotational constant (GHZ):           1.445783
 Zero-point vibrational energy      60979.5 (Joules/Mol)
                                   14.57445 (Kcal/Mol)
 Warning -- explicit consideration of   7 degrees of freedom as
           vibrations may cause significant error
 Vibrational temperatures:    121.62   136.81   236.78   281.26   481.31
          (Kelvin)            552.53   868.59   950.69   970.88  1679.65
                             2271.88  2966.65  3149.64

 Zero-point correction=                           0.023226 (Hartree/Particle)
 Thermal correction to Energy=                    0.029419
 Thermal correction to Enthalpy=                  0.030363
 Thermal correction to Gibbs Free Energy=        -0.004233
 Sum of electronic and zero-point Energies=           -227.937539
 Sum of electronic and thermal Energies=              -227.931346
 Sum of electronic and thermal Enthalpies=            -227.930402
 Sum of electronic and thermal Free Energies=         -227.964997

                     E (Thermal)             CV                S
                      KCal/Mol        Cal/Mol-Kelvin    Cal/Mol-Kelvin
 Total                   18.461             18.831             72.813
 Electronic               0.000              0.000              1.377
 Translational            0.889              2.981             38.739
 Rotational               0.592              1.987             17.234
 Vibrational             16.980             13.863             15.463
 Vibration     1          0.601              1.960              3.783
 Vibration     2          0.603              1.953              3.553
 Vibration     3          0.623              1.886              2.497
 Vibration     4          0.636              1.846              2.175
 Vibration     5          0.716              1.607              1.238
 Vibration     6          0.753              1.504              1.023
 Vibration     7          0.962              1.024              0.443

 Optimization completed.
    -- Stationary point found.
 Normal termination of Gaussian 09 at Tue Nov  1 19:38:12 2016.
