 Gaussian 09, Revision E.01,
 Gaussian 09:  EM64L-G09RevE.01 30-Nov-2015

 -----------------------------------------
 #p b3lyp/6-311+G(3df) freq symmetry=Loose
 -----------------------------------------

 ---------
 b3lyp opt
 ---------
 Symbolic Z-matrix:
 Charge =  2 Multiplicity = 1

                         Standard orientation:
 ---------------------------------------------------------------------
 Center     Atomic      Atomic             Coordinates (Angstroms)
 Number     Number       Type             X           Y           Z
 ---------------------------------------------------------------------
      1          6           0       -0.000000    0.687246    0.910222
      2          6           0       -0.000000   -0.687246    0.910222
      3          6           0        0.000000   -1.169014   -0.388575
      4          6           0       -0.904041    0.000000   -0.521647
      5          6           0        0.904041   -0.000000   -0.521647
      6          6           0        0.000000    1.169014   -0.388575
 ---------------------------------------------------------------------

 SCF Done:  E(RB3LYP) =  -227.134834615     A.U. after   13 cycles

 The electronic state is 1-A1.
 Alpha  occ. eigenvalues --  -10.89202 -10.89143 -10.86940 -10.86933 -10.84924
 Alpha  occ. eigenvalues --  -10.84920  -1.66382  -1.37636  -1.30036  -1.20265
 Alpha  occ. eigenvalues --   -1.09526  -1.01492  -1.00876  -0.97729  -0.88571
 Alpha  occ. eigenvalues --   -0.85247  -0.81474
 Alpha virt. eigenvalues --   -0.72884  -0.69209  -0.62547  -0.56579  -0.56099
 Alpha virt. eigenvalues --   -0.55408  -0.40913  -0.34939  -0.32344  -0.29526
 Alpha virt. eigenvalues --   -0.26748  -0.25872  -0.25018  -0.24532  -0.24186

 Mulliken charges:
               1
     1  C    0.359543
     2  C    0.359543
     3  C    0.446368
     4  C    0.194089
     5  C    0.194089
     6  C    0.446368
 Sum of Mulliken charges =   2.00000

 Dipole moment (field-independent basis, Debye):
    X=             -0.0000    Y=              0.0000    Z=              1.4144  Tot=              1.4144
 Quadrupole moment (field-independent basis, Debye-Ang):
   XX=            -24.1759   YY=            -19.3334   ZZ=            -19.4348
   XY=             -0.0000   XZ=              0.0000   YZ=             -0.0000

  Exact polarizability:  37.278  -0.000  49.785   0.000  -0.000  40.876
 Approx polarizability: 106.490  -0.000 180.273  -0.000  -0.000 125.203

                      1                      2                      3
                     A2                     B2                     A1
 Frequencies --    141.8390               288.7410               432.7202
 Red. masses --     12.0000                12.0000                12.0000
 Frc consts  --      0.1422                 0.5895                 1.3239
 IR Inten    --      0.0000               181.9845                 1.4696

                      4                      5                      6
                     A1                     B1                     B1
 Frequencies --    473.2110               513.9097               705.9091
 Red. masses --     12.0000                12.0000                12.0000
 Frc consts  --      1.5832                 1.8673                 3.5231
 IR Inten    --      9.8251                 9.8802                11.6457

                      7                      8                      9
                     A2                     A1                     B2
 Frequencies --    763.9848               910.8192               965.4968
 Red. masses --     12.0000                12.0000                12.0000
 Frc consts  --      4.1267                 5.8654                 6.5907
 IR Inten    --      0.0000                 1.1064                 0.0004

                     10                     11                     12
                     A1                     B2                     A1
 Frequencies --   1249.6363              1305.0439              1377.4593
 Red. masses --     12.0000                12.0000                12.0000
 Frc consts  --     11.0408                12.0415                13.4149
 IR Inten    --      3.7227                16.4084                 2.1663

 - Thermochemistry -
 -------------------
 Temperature   298.150 Kelvin.  Pressure   1.00000 Atm.
 Atom     1 has atomic number  6 and mass  12.00000

 Molecular mass:    72.00000 amu.
 Principal axes and moments of inertia in atomic units:
                           1         2         3
     Eigenvalues --   177.31633 227.65041 264.87418
           X           -0.00000  -0.00000   1.00000
           Y            1.00000   0.00000   0.00000
           Z           -0.00000   1.00000   0.00000
 This molecule is an asymmetric top.
 Rotational symmetry number  2.
 Rotational temperatures (Kelvin)      0.48847     0.38047     0.32700
 Rotational constants (GHZ):          10.17809     7.92769     6.81358
 Zero-point vibrational energy      54602.2 (Joules/Mol)
                                   13.05023 (Kcal/Mol)
 Warning -- explicit consideration of   5 degrees of freedom as
           vibrations may cause significant error
 Vibrational temperatures:    204.07   415.43   622.59   680.84   739.40
          (Kelvin)           1015.64  1099.20  1310.46  1389.13  1797.95
                             1877.66  1981.85

 Zero-point correction=                           0.020797 (Hartree/Particle)
 Thermal correction to Energy=                    0.025786
 Thermal correction to Enthalpy=                  0.026730
 Thermal correction to Gibbs Free Energy=        -0.005849
 Sum of electronic and zero-point Energies=           -227.114038
 Sum of electronic and thermal Energies=              -227.109049
 Sum of electronic and thermal Enthalpies=            -227.108105
 Sum of electronic and thermal Free Energies=         -227.140684

                     E (Thermal)             CV                S
                      KCal/Mol        Cal/Mol-Kelvin    Cal/Mol-Kelvin
 Total                   16.181             16.362             68.568
 Electronic               0.000              0.000              0.000
 Translational            0.889              2.981             38.739
 Rotational               0.889              2.981             22.507
 Vibrational             14.403             10.400              7.322
 Vibration     1          0.615              1.911              2.779
 Vibration     2          0.685              1.695              1.481
 Vibration     3          0.794              1.399              0.850
 Vibration     4          0.830              1.309              0.729
 Vibration     5          0.869              1.219              0.624

 Optimization completed.
    -- Stationary point found.

 1\1\GINC-BELVIS17\Freq\RB3LYP\6-311+G(3df)\C6(2+)\ROOT\23-Oct-2016\0\\
 #p b3lyp/6-311+G(3df) freq symmetry=Loose\\b3lyp opt\\2,1\C,0.81376690
 6,-0.7512544889,-0.2724189472\C,-0.5454635063,-0.9310658575,-0.3693214
 76\C,-1.213303755,0.206161726,0.0545637221\C,-0.0940907382,0.157521789
 ,1.027491843\C,-0.0596741003,0.8066137172,-0.6597112773\C,1.0987641936
 ,0.5120231151,0.2193961367\\Version=EM64L-G09RevE.01\State=1-A1\HF=-22
 7.1348346\RMSD=2.360e-09\RMSF=7.707e-05\ZeroPoint=0.0207969\Thermal=0.
 0257856\Dipole=0.0820144,-0.5142473,-0.1961656\DipoleDeriv=1.109441,0.

 Normal termination of Gaussian 09 at Sun Oct 23 12:12:39 2016.
