 Gaussian 09, Revision E.01,
 Gaussian 09:  EM64L-G09RevE.01 30-Nov-2015

 -----------------------------------------
 #p b3lyp/6-311+G(3df) freq symmetry=Loose
 -----------------------------------------

 ---------
 b3lyp opt
 ---------
 Symbolic Z-matrix:
 Charge =  2 Multiplicity = 3

                         Standard orientation:
 ---------------------------------------------------------------------
 Center     Atomic      Atomic             Coordinates (Angstroms)
 Number     Number       Type             X           Y           Z
 ---------------------------------------------------------------------
      1          6           0       -0.000000    0.809555   -0.692253
      2          6           0       -0.000000   -0.809555   -0.692253
      3          6           0       -0.000000   -0.809555    0.692253
      4          6           0       -0.000000    0.809555    0.692253
      5          6           0       -0.000000    0.000000    1.751533
      6          6           0        0.000000    0.000000   -1.751533
 ---------------------------------------------------------------------

 SCF Done:  E(UB3LYP) =  -227.293883306     A.U. after   13 cycles

 The electronic state is 3-B1G.
 Alpha  occ. eigenvalues --  -10.85094 -10.85087 -10.85036 -10.85027 -10.81172
 Alpha  occ. eigenvalues --  -10.81170  -1.57299  -1.44632  -1.25936  -1.24730
 Alpha  occ. eigenvalues --   -1.06671  -1.01900  -1.01764  -0.97878  -0.89482
 Alpha  occ. eigenvalues --   -0.87382  -0.80870  -0.79118
 Alpha virt. eigenvalues --   -0.67003  -0.57760  -0.56908  -0.53754  -0.51451
 Alpha virt. eigenvalues --   -0.41774  -0.35158  -0.35071  -0.28445  -0.26350
 Alpha virt. eigenvalues --   -0.26190  -0.25944  -0.23598  -0.22926  -0.21741

  Beta  occ. eigenvalues --  -10.84593 -10.84582 -10.84542 -10.84530 -10.80000
  Beta  occ. eigenvalues --  -10.79997  -1.56211  -1.43965  -1.23503  -1.23170
  Beta  occ. eigenvalues --   -1.05482  -1.00759  -0.98095  -0.96207  -0.85260
  Beta  occ. eigenvalues --   -0.82638
  Beta virt. eigenvalues --   -0.70267  -0.66213  -0.63758  -0.56072  -0.54965
  Beta virt. eigenvalues --   -0.50266  -0.49190  -0.38007  -0.34706  -0.33420
  Beta virt. eigenvalues --   -0.28108  -0.25976  -0.25851  -0.25333  -0.22294

 Mulliken charges and spin densities:
               1          2
     1  C    0.339174   0.181318
     2  C    0.339174   0.181318
     3  C    0.339174   0.181318
     4  C    0.339174   0.181318
     5  C    0.321651   0.637364
     6  C    0.321651   0.637364
 Sum of Mulliken charges =   2.00000   2.00000

 Dipole moment (field-independent basis, Debye):
    X=             -0.0000    Y=              0.0000    Z=              0.0000  Tot=              0.0000
 Quadrupole moment (field-independent basis, Debye-Ang):
   XX=            -26.8437   YY=            -18.2850   ZZ=            -12.5364
   XY=             -0.0000   XZ=             -0.0000   YZ=              0.0000

  Exact polarizability:  23.965  -0.000  37.723  -0.000  -0.000  79.759
 Approx polarizability:  36.012  -0.000  93.757  -0.000   0.000 215.180

                      1                      2                      3
                     B3U                    AU                     B2G
 Frequencies --    257.6641               369.6063               414.7355
 Red. masses --     12.0000                12.0000                12.0000
 Frc consts  --      0.4694                 0.9659                 1.2161
 IR Inten    --      1.3173                 0.0000                 0.0000

                      4                      5                      6
                     B1U                    B3G                    AG
 Frequencies --    460.7537               528.5876               765.9446
 Red. masses --     12.0000                12.0000                12.0000
 Frc consts  --      1.5010                 1.9754                 4.1479
 IR Inten    --      1.7310                 0.0000                 0.0000

                      7                      8                      9
                     B2U                    AG                     B3G
 Frequencies --    850.8841              1122.8859              1189.9902
 Red. masses --     12.0000                12.0000                12.0000
 Frc consts  --      5.1188                 8.9146                10.0119
 IR Inten    --     12.1453                 0.0000                 0.0000

                     10                     11                     12
                     B2U                    B1U                    AG
 Frequencies --   1408.2922              1471.9833              1818.8083
 Red. masses --     12.0000                12.0000                12.0000
 Frc consts  --     14.0222                15.3192                23.3887
 IR Inten    --     40.1118                19.0760                 0.0000

 - Thermochemistry -
 -------------------
 Temperature   298.150 Kelvin.  Pressure   1.00000 Atm.
 Atom     1 has atomic number  6 and mass  12.00000

 Molecular mass:    72.00000 amu.
 Principal axes and moments of inertia in atomic units:
                           1         2         3
     Eigenvalues --   112.33922 345.07599 457.41521
           X           -0.00000   0.00000   1.00000
           Y            0.00000   1.00000  -0.00000
           Z            1.00000  -0.00000   0.00000
 This molecule is an asymmetric top.
 Rotational symmetry number  4.
 Rotational temperatures (Kelvin)      0.77100     0.25100     0.18935
 Rotational constants (GHZ):          16.06510     5.22998     3.94552
 Zero-point vibrational energy      63761.8 (Joules/Mol)
                                   15.23943 (Kcal/Mol)
 Warning -- explicit consideration of   5 degrees of freedom as
           vibrations may cause significant error
 Vibrational temperatures:    370.72   531.78   596.71   662.92   760.52
          (Kelvin)           1102.02  1224.23  1615.58  1712.13  2026.22
                             2117.85  2616.86

 Zero-point correction=                           0.024286 (Hartree/Particle)
 Thermal correction to Energy=                    0.028896
 Thermal correction to Enthalpy=                  0.029840
 Thermal correction to Gibbs Free Energy=        -0.002525
 Sum of electronic and zero-point Energies=           -227.269598
 Sum of electronic and thermal Energies=              -227.264987
 Sum of electronic and thermal Enthalpies=            -227.264043
 Sum of electronic and thermal Free Energies=         -227.296408

                     E (Thermal)             CV                S
                      KCal/Mol        Cal/Mol-Kelvin    Cal/Mol-Kelvin
 Total                   18.132             15.169             68.117
 Electronic               0.000              0.000              2.183
 Translational            0.889              2.981             38.739
 Rotational               0.889              2.981             21.632
 Vibrational             16.355              9.207              5.563
 Vibration     1          0.667              1.750              1.678
 Vibration     2          0.742              1.535              1.081
 Vibration     3          0.778              1.438              0.910
 Vibration     4          0.819              1.337              0.764
 Vibration     5          0.884              1.187              0.590

 Normal termination of Gaussian 09 at Sun Oct 23 12:21:37 2016.
