 Gaussian 09, Revision E.01,
 Gaussian 09:  EM64L-G09RevE.01 30-Nov-2015

 -----------------------------------------
 #p b3lyp/6-311+G(3df) freq symmetry=Loose
 -----------------------------------------

 ---------
 b3lyp opt
 ---------
 Symbolic Z-matrix:
 Charge =  1 Multiplicity = 4

                         Standard orientation:
 ---------------------------------------------------------------------
 Center     Atomic      Atomic             Coordinates (Angstroms)
 Number     Number       Type             X           Y           Z
 ---------------------------------------------------------------------
      1          6           0        0.000000    0.866107    0.000000
      2          6           0        0.000980   -0.443160   -0.000000
      3          6           0        0.000067   -3.032861   -0.000000
      4          6           0       -0.659303    2.155991    0.000000
      5          6           0        0.657354    2.157050    0.000000
      6          6           0        0.000901   -1.703127   -0.000000
 ---------------------------------------------------------------------

 SCF Done:  E(UB3LYP) =  -227.903288163     A.U. after   23 cycles

 The electronic state is 4-A".
 Alpha  occ. eigenvalues --  -10.55951 -10.55851 -10.54775 -10.49993 -10.49427
 Alpha  occ. eigenvalues --  -10.45758  -1.23457  -1.07999  -1.00528  -0.90120
 Alpha  occ. eigenvalues --   -0.79823  -0.75131  -0.69773  -0.62806  -0.61887
 Alpha  occ. eigenvalues --   -0.60444  -0.54195  -0.53283  -0.48871
 Alpha virt. eigenvalues --   -0.36742  -0.29614  -0.29602  -0.17901  -0.15273
 Alpha virt. eigenvalues --   -0.12340  -0.11361  -0.11217  -0.09684  -0.09286
 Alpha virt. eigenvalues --   -0.07296  -0.06422  -0.06212  -0.04021  -0.03865

  Beta  occ. eigenvalues --  -10.54138 -10.54083 -10.54038 -10.49993 -10.48553
  Beta  occ. eigenvalues --  -10.45384  -1.20856  -1.06768  -0.97419  -0.88514
  Beta  occ. eigenvalues --   -0.73426  -0.71494  -0.66878  -0.58482  -0.57285
  Beta  occ. eigenvalues --   -0.51598
  Beta virt. eigenvalues --   -0.44835  -0.42193  -0.39463  -0.33302  -0.25265
  Beta virt. eigenvalues --   -0.25200  -0.15193  -0.14812  -0.11216  -0.10680
  Beta virt. eigenvalues --   -0.10525  -0.08385  -0.07443  -0.06788  -0.05859

 Mulliken charges and spin densities:
               1          2
     1  C    0.431544  -0.082034
     2  C   -0.531537   0.201903
     3  C   -0.355561   0.404921
     4  C    0.094855   1.044583
     5  C    0.094968   1.044206
     6  C    1.265731   0.386421
 Sum of Mulliken charges =   1.00000   3.00000

 Dipole moment (field-independent basis, Debye):
    X=              0.0005    Y=              3.3013    Z=              0.0000  Tot=              3.3013
 Quadrupole moment (field-independent basis, Debye-Ang):
   XX=            -27.6952   YY=            -15.6273   ZZ=            -30.1266
   XY=             -0.0092   XZ=              0.0000   YZ=              0.0000

  Exact polarizability:  42.691  -0.036 141.224  -0.000  -0.000  34.299
 Approx polarizability:  77.385  -0.035 314.232  -0.000   0.000  49.135

                      1                      2                      3
                     A'                     A"                     A'
 Frequencies --     69.1443               125.7251               225.0330
 Red. masses --     12.0000                12.0000                12.0000
 Frc consts  --      0.0338                 0.1118                 0.3580
 IR Inten    --      6.9462                 1.7876                 6.3002

                      4                      5                      6
                     A"                     A"                     A'
 Frequencies --    337.9576               519.9185               551.6107
 Red. masses --     12.0000                12.0000                12.0000
 Frc consts  --      0.8075                 1.9112                 2.1513
 IR Inten    --      5.4745                 0.3795                 0.4568

                      7                      8                      9
                     A'                     A'                     A'
 Frequencies --    628.8849               836.4295              1127.9228
 Red. masses --     12.0000                12.0000                12.0000
 Frc consts  --      2.7962                 4.9464                 8.9948
 IR Inten    --     10.0617                40.1307                12.0052

                     10                     11                     12
                     A'                     A'                     A'
 Frequencies --   1488.4741              1708.5885              2059.1887
 Red. masses --     12.0000                12.0000                12.0000
 Frc consts  --     15.6644                20.6398                29.9795
 IR Inten    --    194.7998               248.6202               136.8259

 - Thermochemistry -
 -------------------
 Temperature   298.150 Kelvin.  Pressure   1.00000 Atm.
 Atom     1 has atomic number  6 and mass  12.00000

 Molecular mass:    72.00000 amu.
 Principal axes and moments of inertia in atomic units:
                           1         2         3
     Eigenvalues --    37.14460 957.61326 994.75786
           X           -0.00026   1.00000   0.00000
           Y            1.00000   0.00026  -0.00000
           Z            0.00000  -0.00000   1.00000
 This molecule is an asymmetric top.
 Rotational symmetry number  1.
 Rotational temperatures (Kelvin)      2.33180     0.09045     0.08707
 Rotational constants (GHZ):          48.58690     1.88462     1.81425
 Zero-point vibrational energy      57892.5 (Joules/Mol)
                                   13.83665 (Kcal/Mol)
 Warning -- explicit consideration of   6 degrees of freedom as
           vibrations may cause significant error
 Vibrational temperatures:     99.48   180.89   323.77   486.25   748.05
          (Kelvin)            793.64   904.82  1203.43  1622.83  2141.58
                             2458.27  2962.71

 Zero-point correction=                           0.022050 (Hartree/Particle)
 Thermal correction to Energy=                    0.027904
 Thermal correction to Enthalpy=                  0.028848
 Thermal correction to Gibbs Free Energy=        -0.008546
 Sum of electronic and zero-point Energies=           -227.881238
 Sum of electronic and thermal Energies=              -227.875385
 Sum of electronic and thermal Enthalpies=            -227.874440
 Sum of electronic and thermal Free Energies=         -227.911834

                     E (Thermal)             CV                S
                      KCal/Mol        Cal/Mol-Kelvin    Cal/Mol-Kelvin
 Total                   17.510             17.546             78.702
 Electronic               0.000              0.000              2.755
 Translational            0.889              2.981             38.739
 Rotational               0.889              2.981             25.073
 Vibrational             15.732             11.585             12.135
 Vibration     1          0.598              1.969              4.178
 Vibration     2          0.611              1.927              3.010
 Vibration     3          0.650              1.803              1.918
 Vibration     4          0.718              1.600              1.222
 Vibration     5          0.875              1.206              0.610
 Vibration     6          0.907              1.136              0.541

 Optimization completed.
    -- Stationary point found.
 Normal termination of Gaussian 09 at Tue Nov  1 19:42:21 2016.
