 Gaussian 09, Revision E.01,
 Gaussian 09:  EM64L-G09RevE.01 30-Nov-2015

 -----------------------------------------
 #p b3lyp/6-311+G(3df) freq symmetry=Loose
 -----------------------------------------

 ---------
 b3lyp opt
 ---------
 Symbolic Z-matrix:
 Charge =  2 Multiplicity = 3

                         Standard orientation:
 ---------------------------------------------------------------------
 Center     Atomic      Atomic             Coordinates (Angstroms)
 Number     Number       Type             X           Y           Z
 ---------------------------------------------------------------------
      1          6           0       -0.000000    0.850260   -0.000000
      2          6           0        0.000000   -0.000000    1.149170
      3          6           0        0.000000   -0.000000   -1.149170
      4          6           0        0.000000   -0.850260   -0.000000
      5          6           0       -0.000000    0.000000   -2.603163
      6          6           0       -0.000000    0.000000    2.603163
 ---------------------------------------------------------------------

 SCF Done:  E(UB3LYP) =  -227.195195186     A.U. after   12 cycles

 The electronic state is 3-AU.
 Alpha  occ. eigenvalues --  -10.82329 -10.82329 -10.82074 -10.82065 -10.79363
 Alpha  occ. eigenvalues --  -10.79359  -1.51661  -1.31288  -1.24054  -1.11576
 Alpha  occ. eigenvalues --   -1.10174  -0.97531  -0.96002  -0.83581  -0.81814
 Alpha  occ. eigenvalues --   -0.80197  -0.80059  -0.72334
 Alpha virt. eigenvalues --   -0.65843  -0.64850  -0.60152  -0.54791  -0.54397
 Alpha virt. eigenvalues --   -0.40788  -0.36381  -0.30956  -0.28747  -0.28446
 Alpha virt. eigenvalues --   -0.26996  -0.25194  -0.23856  -0.22464  -0.21924

  Beta  occ. eigenvalues --  -10.81998 -10.81987 -10.81504 -10.81503 -10.78568
  Beta  occ. eigenvalues --  -10.78565  -1.51097  -1.28014  -1.20612  -1.09765
  Beta  occ. eigenvalues --   -1.09436  -0.96184  -0.93002  -0.81900  -0.78519
  Beta  occ. eigenvalues --   -0.78479
  Beta virt. eigenvalues --   -0.71473  -0.63085  -0.62015  -0.60401  -0.57916
  Beta virt. eigenvalues --   -0.52346  -0.50127  -0.36794  -0.34438  -0.30178
  Beta virt. eigenvalues --   -0.28348  -0.27042  -0.26841  -0.23692  -0.23229

 Mulliken charges and spin densities:
               1          2
     1  C    1.266990  -0.025092
     2  C   -0.091473   0.547054
     3  C   -0.091473   0.547054
     4  C    1.266990  -0.025092
     5  C   -0.175517   0.478038
     6  C   -0.175517   0.478038
 Sum of Mulliken charges =   2.00000   2.00000

 Dipole moment (field-independent basis, Debye):
    X=             -0.0000    Y=             -0.0000    Z=             -0.0000  Tot=              0.0000
 Quadrupole moment (field-independent basis, Debye-Ang):
   XX=            -25.8023   YY=            -26.1508   ZZ=             -0.2639
   XY=              0.0000   XZ=              0.0000   YZ=              0.0000

  Exact polarizability:  28.616  -0.000  43.961   0.000  -0.000 165.777
 Approx polarizability:  50.256  -0.000 105.361   0.000  -0.000 560.233

                      1                      2                      3
                     B3U                    B2U                    B2G
 Frequencies --    105.7405               204.3400               310.3787
 Red. masses --     12.0000                12.0000                12.0000
 Frc consts  --      0.0791                 0.2952                 0.6811
 IR Inten    --      0.6132                 2.6846                 0.0000

                      4                      5                      6
                     B3G                    AG                     B3U
 Frequencies --    339.3751               515.4547               594.5406
 Red. masses --     12.0000                12.0000                12.0000
 Frc consts  --      0.8143                 1.8785                 2.4992
 IR Inten    --      0.0000                 0.0000                 0.6401

                      7                      8                      9
                     B2U                    B1U                    AG
 Frequencies --    619.2823               783.8597               862.5045
 Red. masses --     12.0000                12.0000                12.0000
 Frc consts  --      2.7115                 4.3442                 5.2596
 IR Inten    --     39.3177                50.3977                 0.0000

                     10                     11                     12
                     B3G                    B1U                    AG
 Frequencies --    982.4191              1266.1834              1436.2244
 Red. masses --     12.0000                12.0000                12.0000
 Frc consts  --      6.8238                11.3351                14.5840
 IR Inten    --      0.0000               385.2058                 0.0000

 - Thermochemistry -
 -------------------
 Temperature   298.150 Kelvin.  Pressure   1.00000 Atm.
 Atom     1 has atomic number  6 and mass  12.00000

 Molecular mass:    72.00000 amu.
 Principal axes and moments of inertia in atomic units:
                           1         2         3
     Eigenvalues --    61.96009 693.96205 755.92214
           X            0.00000  -0.00000   1.00000
           Y           -0.00000   1.00000   0.00000
           Z            1.00000   0.00000  -0.00000
 This molecule is an asymmetric top.
 Rotational symmetry number  4.
 Rotational temperatures (Kelvin)      1.39790     0.12481     0.11458
 Rotational constants (GHZ):          29.12748     2.60063     2.38747
 Zero-point vibrational energy      47972.1 (Joules/Mol)
                                   11.46560 (Kcal/Mol)
 Warning -- explicit consideration of   7 degrees of freedom as
           vibrations may cause significant error
 Vibrational temperatures:    152.14   294.00   446.57   488.28   741.62
          (Kelvin)            855.41   891.01  1127.80  1240.95  1413.48
                             1821.75  2066.40

 Zero-point correction=                           0.018272 (Hartree/Particle)
 Thermal correction to Energy=                    0.023892
 Thermal correction to Enthalpy=                  0.024836
 Thermal correction to Gibbs Free Energy=        -0.009943
 Sum of electronic and zero-point Energies=           -227.176924
 Sum of electronic and thermal Energies=              -227.171303
 Sum of electronic and thermal Enthalpies=            -227.170359
 Sum of electronic and thermal Free Energies=         -227.205138

                     E (Thermal)             CV                S
                      KCal/Mol        Cal/Mol-Kelvin    Cal/Mol-Kelvin
 Total                   14.992             18.128             73.199
 Electronic               0.000              0.000              2.183
 Translational            0.889              2.981             38.739
 Rotational               0.889              2.981             22.234
 Vibrational             13.215             12.166             10.042
 Vibration     1          0.605              1.945              3.346
 Vibration     2          0.640              1.834              2.094
 Vibration     3          0.699              1.654              1.360
 Vibration     4          0.719              1.597              1.215
 Vibration     5          0.870              1.216              0.621
 Vibration     6          0.952              1.043              0.459
 Vibration     7          0.979              0.991              0.418

 Normal termination of Gaussian 09 at Sun Oct 23 12:21:43 2016.
