 Gaussian 09, Revision E.01,
 Gaussian 09:  EM64L-G09RevE.01 30-Nov-2015

 -----------------------------------------
 #p b3lyp/6-311+G(3df) freq symmetry=Loose
 -----------------------------------------

 ---------
 b3lyp opt
 ---------
 Symbolic Z-matrix:
 Charge =  2 Multiplicity = 1

                         Standard orientation:
 ---------------------------------------------------------------------
 Center     Atomic      Atomic             Coordinates (Angstroms)
 Number     Number       Type             X           Y           Z
 ---------------------------------------------------------------------
      1          6           0       -0.220544   -0.648994    1.024145
      2          6           0       -0.220544    1.494418    0.000000
      3          6           0        0.732719    0.519988    0.000000
      4          6           0        0.871712   -0.914069   -0.000000
      5          6           0       -0.942800    0.197650   -0.000000
      6          6           0       -0.220544   -0.648994   -1.024145
 ---------------------------------------------------------------------

 SCF Done:  E(RB3LYP) =  -227.164867685     A.U. after   14 cycles

 The electronic state is 1-A'.
 Alpha  occ. eigenvalues --  -10.89199 -10.88043 -10.88041 -10.86811 -10.85581
 Alpha  occ. eigenvalues --  -10.84000  -1.63398  -1.37554  -1.24839  -1.22711
 Alpha  occ. eigenvalues --   -1.04186  -1.02275  -0.99023  -0.95414  -0.88190
 Alpha  occ. eigenvalues --   -0.86217  -0.80974
 Alpha virt. eigenvalues --   -0.69932  -0.68196  -0.63458  -0.62820  -0.56930
 Alpha virt. eigenvalues --   -0.52758  -0.39072  -0.38931  -0.35211  -0.31154
 Alpha virt. eigenvalues --   -0.29451  -0.28627  -0.25178  -0.24950  -0.24677

 Mulliken charges:
               1
     1  C    0.152230
     2  C   -0.036186
     3  C    0.456661
     4  C    0.540657
     5  C    0.734408
     6  C    0.152230
 Sum of Mulliken charges =   2.00000

 Dipole moment (field-independent basis, Debye):
    X=             -0.2984    Y=             -0.3828    Z=             -0.0000  Tot=              0.4854
 Quadrupole moment (field-independent basis, Debye-Ang):
   XX=            -20.9770   YY=            -19.8838   ZZ=            -22.8229
   XY=             -0.0206   XZ=             -0.0000   YZ=              0.0000

  Exact polarizability:  41.091  -7.763  57.605  -0.000   0.000  45.299
 Approx polarizability: 126.670 -63.473 236.253   0.000   0.000 150.230

                      1                      2                      3
                     A"                     A'                     A"
 Frequencies --    275.9539               437.2706               442.7756
 Red. masses --     12.0000                12.0000                12.0000
 Frc consts  --      0.5384                 1.3519                 1.3861
 IR Inten    --      5.1151                41.2669                38.7822

                      4                      5                      6
                     A"                     A'                     A'
 Frequencies --    632.5605               652.7470               696.4681
 Red. masses --     12.0000                12.0000                12.0000
 Frc consts  --      2.8290                 3.0125                 3.4295
 IR Inten    --      3.3036                51.5376                10.7046

                      7                      8                      9
                     A"                     A'                     A'
 Frequencies --    755.2546               774.9909               863.2654
 Red. masses --     12.0000                12.0000                12.0000
 Frc consts  --      4.0329                 4.2464                 5.2689
 IR Inten    --     10.3268                 8.8237                12.1784

                     10                     11                     12
                     A'                     A'                     A'
 Frequencies --    889.0583              1117.8005              1304.6935
 Red. masses --     12.0000                12.0000                12.0000
 Frc consts  --      5.5885                 8.8341                12.0351
 IR Inten    --     21.8806                 4.2809                14.6921

 - Thermochemistry -
 -------------------
 Temperature   298.150 Kelvin.  Pressure   1.00000 Atm.
 Atom     1 has atomic number  6 and mass  12.00000

 Molecular mass:    72.00000 amu.
 Principal axes and moments of inertia in atomic units:
                           1         2         3
     Eigenvalues --   181.25939 279.30884 280.77983
           X           -0.29527   0.95541   0.00000
           Y            0.95541   0.29527   0.00000
           Z           -0.00000   0.00000   1.00000
 This molecule is an asymmetric top.
 Rotational symmetry number  1.
 Rotational temperatures (Kelvin)      0.47784     0.31010     0.30848
 Rotational constants (GHZ):           9.95668     6.46145     6.42760
 Zero-point vibrational energy      52891.9 (Joules/Mol)
                                   12.64147 (Kcal/Mol)
 Warning -- explicit consideration of   3 degrees of freedom as
           vibrations may cause significant error
 Vibrational temperatures:    397.04   629.13   637.05   910.11   939.16
          (Kelvin)           1002.06  1086.64  1115.04  1242.04  1279.16
                             1608.26  1877.16

 Zero-point correction=                           0.020145 (Hartree/Particle)
 Thermal correction to Energy=                    0.024695
 Thermal correction to Enthalpy=                  0.025639
 Thermal correction to Gibbs Free Energy=        -0.006699
 Sum of electronic and zero-point Energies=           -227.144722
 Sum of electronic and thermal Energies=              -227.140173
 Sum of electronic and thermal Enthalpies=            -227.139229
 Sum of electronic and thermal Free Energies=         -227.171566

                     E (Thermal)             CV                S
                      KCal/Mol        Cal/Mol-Kelvin    Cal/Mol-Kelvin
 Total                   15.496             16.065             68.060
 Electronic               0.000              0.000              0.000
 Translational            0.889              2.981             38.739
 Rotational               0.889              2.981             24.167
 Vibrational             13.719             10.104              5.154
 Vibration     1          0.678              1.718              1.559
 Vibration     2          0.798              1.389              0.835
 Vibration     3          0.802              1.377              0.818

 Optimization completed.
    -- Stationary point found.

 1\1\GINC-BELVIS17\Freq\RB3LYP\6-311+G(3df)\C6(2+)\ROOT\23-Oct-2016\0\\
 #p b3lyp/6-311+G(3df) freq symmetry=Loose\\b3lyp opt\\2,1\C,0.72391367
 5,-0.850243181,0.521287259\C,0.5408764387,0.8573397107,-1.1199758815\C
 ,-0.2992424706,-0.1759041558,-0.828720189\C,-0.7745282254,-0.956057726
 6,0.2854176336\C,0.621709919,0.6486395255,0.347392916\C,-0.8127293541,
 0.4762258124,0.7945972334\\Version=EM64L-G09RevE.01\State=1-A'\HF=-227
 .1648677\RMSD=6.122e-09\RMSF=6.123e-05\ZeroPoint=0.0201455\Thermal=0.0
 246949\Dipole=0.0295734,-0.0046001,0.1885978\DipoleDeriv=0.2225804,0.0

 Normal termination of Gaussian 09 at Sun Oct 23 12:13:46 2016.
