 Gaussian 09, Revision E.01,
 Gaussian 09:  EM64L-G09RevE.01 30-Nov-2015

 -----------------------------------------
 #p b3lyp/6-311+G(3df) freq symmetry=Loose
 -----------------------------------------

 ---------
 b3lyp opt
 ---------
 Symbolic Z-matrix:
 Charge =  2 Multiplicity = 1

                         Standard orientation:
 ---------------------------------------------------------------------
 Center     Atomic      Atomic             Coordinates (Angstroms)
 Number     Number       Type             X           Y           Z
 ---------------------------------------------------------------------
      1          6           0       -0.779745    0.834230   -0.066823
      2          6           0        0.824276   -0.434792   -0.665709
      3          6           0        0.779745    0.836550    0.024264
      4          6           0       -0.824276   -0.400335    0.686982
      5          6           0       -0.734898   -0.437383   -0.757120
      6          6           0        0.734898   -0.398269    0.778406
 ---------------------------------------------------------------------

 SCF Done:  E(RB3LYP) =  -227.155611016     A.U. after   12 cycles

 The electronic state is 1-A.
 Alpha  occ. eigenvalues --  -10.85940 -10.85928 -10.85884 -10.85879 -10.85853
 Alpha  occ. eigenvalues --  -10.85851  -1.64787  -1.40425  -1.21382  -1.21382
 Alpha  occ. eigenvalues --   -1.07727  -0.95935  -0.95935  -0.94901  -0.91212
 Alpha  occ. eigenvalues --   -0.91211  -0.82054
 Alpha virt. eigenvalues --   -0.69274  -0.69274  -0.66859  -0.66856  -0.49837
 Alpha virt. eigenvalues --   -0.44903  -0.35777  -0.35775  -0.29382  -0.28780
 Alpha virt. eigenvalues --   -0.27478  -0.27469  -0.26120  -0.25542  -0.22990

 Mulliken charges:
               1
     1  C    0.333035
     2  C    0.327869
     3  C    0.333089
     4  C    0.327876
     5  C    0.339123
     6  C    0.339006
 Sum of Mulliken charges =   2.00000

 Dipole moment (field-independent basis, Debye):
    X=              0.0000    Y=             -0.0004    Z=              0.0000  Tot=              0.0004
 Quadrupole moment (field-independent basis, Debye-Ang):
   XX=            -16.7462   YY=            -22.2810   ZZ=            -22.2608
   XY=              0.0085   XZ=              0.3306   YZ=              0.0005

  Exact polarizability:  43.285   0.006  38.579   0.246   0.000  38.589
 Approx polarizability: 117.347   0.010 109.653   0.386   0.000 109.663

                      1                      2                      3
                      A                      A                      A
 Frequencies --     85.8658                88.1431               514.1572
 Red. masses --     12.0000                12.0000                12.0000
 Frc consts  --      0.0521                 0.0549                 1.8691
 IR Inten    --      0.0054                 0.0058                 0.0011

                      4                      5                      6
                      A                      A                      A
 Frequencies --    656.2075               656.6032               831.4068
 Red. masses --     12.0000                12.0000                12.0000
 Frc consts  --      3.0445                 3.0482                 4.8872
 IR Inten    --     42.3478                42.3916                 0.0059

                      7                      8                      9
                      A                      A                      A
 Frequencies --    832.3123               998.2558              1002.1220
 Red. masses --     12.0000                12.0000                12.0000
 Frc consts  --      4.8978                 7.0456                 7.1002
 IR Inten    --      0.0049                 0.0030                 7.3949

                     10                     11                     12
                      A                      A                      A
 Frequencies --   1002.7821              1243.0460              1301.7014
 Red. masses --     12.0000                12.0000                12.0000
 Frc consts  --      7.1096                10.9246                11.9799
 IR Inten    --      7.3496                 6.8569                 0.0000

 - Thermochemistry -
 -------------------
 Temperature   298.150 Kelvin.  Pressure   1.00000 Atm.
 Atom     1 has atomic number  6 and mass  12.00000

 Molecular mass:    72.00000 amu.
 Principal axes and moments of inertia in atomic units:
                           1         2         3
     Eigenvalues --   179.54134 246.58903 246.59967
           X            0.99854   0.00000  -0.05409
           Y            0.00138   0.99968   0.02543
           Z            0.05407  -0.02546   0.99821
 This molecule is an asymmetric top.
 Rotational symmetry number  1.
 Rotational temperatures (Kelvin)      0.48242     0.35125     0.35123
 Rotational constants (GHZ):          10.05195     7.31882     7.31851
 Zero-point vibrational energy      55103.6 (Joules/Mol)
                                   13.17008 (Kcal/Mol)
 Warning -- explicit consideration of   3 degrees of freedom as
           vibrations may cause significant error
 Vibrational temperatures:    123.54   126.82   739.76   944.14   944.70
          (Kelvin)           1196.21  1197.51  1436.27  1441.83  1442.78
                             1788.46  1872.86

 Zero-point correction=                           0.020988 (Hartree/Particle)
 Thermal correction to Energy=                    0.026091
 Thermal correction to Enthalpy=                  0.027036
 Thermal correction to Gibbs Free Energy=        -0.007246
 Sum of electronic and zero-point Energies=           -227.134623
 Sum of electronic and thermal Energies=              -227.129520
 Sum of electronic and thermal Enthalpies=            -227.128575
 Sum of electronic and thermal Free Energies=         -227.162857

                     E (Thermal)             CV                S
                      KCal/Mol        Cal/Mol-Kelvin    Cal/Mol-Kelvin
 Total                   16.373             15.580             72.152
 Electronic               0.000              0.000              0.000
 Translational            0.889              2.981             38.739
 Rotational               0.889              2.981             23.905
 Vibrational             14.595              9.618              9.508
 Vibration     1          0.601              1.959              3.752
 Vibration     2          0.601              1.958              3.701
 Vibration     3          0.869              1.219              0.624

 1\1\GINC-BELVIS17\Freq\RB3LYP\6-311+G(3df)\C6(2+)\ROOT\23-Oct-2016\0\\
 #p b3lyp/6-311+G(3df) freq symmetry=Loose\\b3lyp opt\\2,1\C,0.14638184
 2,-1.124878359,-0.147061829\C,0.619582292,0.953096656,-0.139166315\C,0
 .049591193,0.077061283,-1.140179104\C,-0.717537497,-0.429352865,0.7825
 8439\C,0.716670299,-0.248407713,0.853983103\C,-0.814687129,0.772480998
 ,-0.210160246\\Version=EM64L-G09RevE.01\State=1-A\HF=-227.155611\RMSD=
 1.914e-09\RMSF=5.743e-05\ZeroPoint=0.0209879\Thermal=0.0260915\Dipole=
 -0.0000133,0.0000898,0.00011\DipoleDeriv=0.1754395,-0.0233549,0.006461

 Normal termination of Gaussian 09 at Sun Oct 23 12:15:04 2016.
