 Gaussian 09, Revision E.01,
 Gaussian 09:  EM64L-G09RevE.01 30-Nov-2015

 -----------------------------------------
 #p b3lyp/6-311+G(3df) freq symmetry=Loose
 -----------------------------------------

 ---------
 b3lyp opt
 ---------
 Symbolic Z-matrix:
 Charge =  1 Multiplicity = 2

                         Standard orientation:
 ---------------------------------------------------------------------
 Center     Atomic      Atomic             Coordinates (Angstroms)
 Number     Number       Type             X           Y           Z
 ---------------------------------------------------------------------
      1          6           0        0.685749   -0.765303   -0.000000
      2          6           0        0.685749    0.765303    0.000000
      3          6           0       -0.685749    0.765303   -0.000000
      4          6           0       -0.685749   -0.765303   -0.000000
      5          6           0       -1.821506   -0.000000    0.000000
      6          6           0        1.821506    0.000000    0.000000
 ---------------------------------------------------------------------

 SCF Done:  E(UB3LYP) =  -227.882240009     A.U. after   13 cycles

 The electronic state is 2-B3G.
 Alpha  occ. eigenvalues --  -10.58658 -10.58642 -10.58597 -10.58576 -10.52443
 Alpha  occ. eigenvalues --  -10.52441  -1.33487  -1.19324  -1.00445  -1.00194
 Alpha  occ. eigenvalues --   -0.78588  -0.78127  -0.73618  -0.73469  -0.61777
 Alpha  occ. eigenvalues --   -0.61339  -0.55604  -0.51078
 Alpha virt. eigenvalues --   -0.42092  -0.32760  -0.28879  -0.27965  -0.25030
 Alpha virt. eigenvalues --   -0.18312  -0.16565  -0.15399  -0.12217  -0.10381
 Alpha virt. eigenvalues --   -0.09982  -0.08542  -0.06997  -0.06531  -0.05699

  Beta  occ. eigenvalues --  -10.58159 -10.58138 -10.58100 -10.58078 -10.52596
  Beta  occ. eigenvalues --  -10.52595  -1.32389  -1.19002  -0.99959  -0.97794
  Beta  occ. eigenvalues --   -0.77706  -0.74434  -0.73112  -0.72795  -0.61463
  Beta  occ. eigenvalues --   -0.60395  -0.51186
  Beta virt. eigenvalues --   -0.45029  -0.41103  -0.32466  -0.28262  -0.24278
  Beta virt. eigenvalues --   -0.23490  -0.16713  -0.16355  -0.14734  -0.12019
  Beta virt. eigenvalues --   -0.10256  -0.09916  -0.08415  -0.06715  -0.06082

 Mulliken charges and spin densities:
               1          2
     1  C    0.294528   0.270773
     2  C    0.294528   0.270773
     3  C    0.294528   0.270773
     4  C    0.294528   0.270773
     5  C   -0.089055  -0.041547
     6  C   -0.089055  -0.041547
 Sum of Mulliken charges =   1.00000   1.00000

 Dipole moment (field-independent basis, Debye):
    X=              0.0000    Y=             -0.0000    Z=             -0.0000  Tot=              0.0000
 Quadrupole moment (field-independent basis, Debye-Ang):
   XX=            -31.0983   YY=            -24.3251   ZZ=            -29.5314
   XY=              0.0000   XZ=              0.0000   YZ=             -0.0000

  Exact polarizability:  91.249  -0.000  41.355  -0.000  -0.000  30.078
 Approx polarizability: 307.271   0.000  96.934  -0.000   0.000  47.510

                      1                      2                      3
                     B1U                    AU                     B2G
 Frequencies --    194.2811               411.2305               444.6049
 Red. masses --     12.0000                12.0000                12.0000
 Frc consts  --      0.2669                 1.1956                 1.3976
 IR Inten    --     14.3278                 0.0000                 0.0000

                      4                      5                      6
                     B1G                    B3U                    B2U
 Frequencies --    520.1517               635.8329               713.9073
 Red. masses --     12.0000                12.0000                12.0000
 Frc consts  --      1.9129                 2.8584                 3.6034
 IR Inten    --      0.0000                10.3436                 2.2582

                      7                      8                      9
                     AG                     B1G                    AG
 Frequencies --    863.8464               950.4178              1188.3537
 Red. masses --     12.0000                12.0000                12.0000
 Frc consts  --      5.2760                 6.3865                 9.9844
 IR Inten    --      0.0000                 0.0000                 0.0000

                     10                     11                     12
                     B3U                    B2U                    AG
 Frequencies --   1252.9065              1327.0482              1756.2725
 Red. masses --     12.0000                12.0000                12.0000
 Frc consts  --     11.0986                12.4510                21.8080
 IR Inten    --    357.4659                64.7071                 0.0000

 - Thermochemistry -
 -------------------
 Temperature   298.150 Kelvin.  Pressure   1.00000 Atm.
 Atom     1 has atomic number  6 and mass  12.00000

 Molecular mass:    72.00000 amu.
 Principal axes and moments of inertia in atomic units:
                           1         2         3
     Eigenvalues --   100.39348 364.96766 465.36114
           X            1.00000  -0.00000   0.00000
           Y            0.00000   1.00000   0.00000
           Z           -0.00000  -0.00000   1.00000
 This molecule is an asymmetric top.
 Rotational symmetry number  4.
 Rotational temperatures (Kelvin)      0.86274     0.23732     0.18612
 Rotational constants (GHZ):          17.97668     4.94493     3.87815
 Zero-point vibrational energy      61361.6 (Joules/Mol)
                                   14.66577 (Kcal/Mol)
 Warning -- explicit consideration of   4 degrees of freedom as
           vibrations may cause significant error
 Vibrational temperatures:    279.53   591.67   639.69   748.38   914.82
          (Kelvin)           1027.15  1242.88  1367.44  1709.77  1802.65
                             1909.32  2526.88

 Zero-point correction=                           0.023371 (Hartree/Particle)
 Thermal correction to Energy=                    0.027948
 Thermal correction to Enthalpy=                  0.028892
 Thermal correction to Gibbs Free Energy=        -0.003085
 Sum of electronic and zero-point Energies=           -227.858869
 Sum of electronic and thermal Energies=              -227.854292
 Sum of electronic and thermal Enthalpies=            -227.853348
 Sum of electronic and thermal Free Energies=         -227.885325

                     E (Thermal)             CV                S
                      KCal/Mol        Cal/Mol-Kelvin    Cal/Mol-Kelvin
 Total                   17.538             15.130             67.303
 Electronic               0.000              0.000              1.377
 Translational            0.889              2.981             38.739
 Rotational               0.889              2.981             21.593
 Vibrational             15.760              9.168              5.593
 Vibration     1          0.635              1.848              2.187
 Vibration     2          0.775              1.446              0.922
 Vibration     3          0.804              1.373              0.812
 Vibration     4          0.875              1.205              0.610

 Normal termination of Gaussian 09 at Tue Nov  1 19:51:52 2016.
