 Gaussian 09, Revision E.01,
 Gaussian 09:  EM64L-G09RevE.01 30-Nov-2015

 -----------------------------------------
 #p b3lyp/6-311+G(3df) freq symmetry=Loose
 -----------------------------------------

 ---------
 b3lyp opt
 ---------
 Symbolic Z-matrix:
 Charge =  2 Multiplicity = 1

                         Standard orientation:
 ---------------------------------------------------------------------
 Center     Atomic      Atomic             Coordinates (Angstroms)
 Number     Number       Type             X           Y           Z
 ---------------------------------------------------------------------
      1          6           0       -0.000000    0.717858   -0.730062
      2          6           0        0.000000   -0.717858   -0.730062
      3          6           0       -0.000000   -0.717858    0.730062
      4          6           0       -0.000000    0.717858    0.730062
      5          6           0        0.000000    0.000000    1.915686
      6          6           0        0.000000    0.000000   -1.915686
 ---------------------------------------------------------------------

 SCF Done:  E(RB3LYP) =  -227.253331252     A.U. after   11 cycles

 The electronic state is 1-AG.
 Alpha  occ. eigenvalues --  -10.87080 -10.87047 -10.87040 -10.87006 -10.81109
 Alpha  occ. eigenvalues --  -10.81108  -1.60197  -1.47815  -1.27557  -1.21301
 Alpha  occ. eigenvalues --   -1.02360  -1.02046  -0.98000  -0.96927  -0.89136
 Alpha  occ. eigenvalues --   -0.88407  -0.76619
 Alpha virt. eigenvalues --   -0.69678  -0.68279  -0.58303  -0.51608  -0.50947
 Alpha virt. eigenvalues --   -0.50227  -0.47339  -0.45955  -0.36207  -0.29139
 Alpha virt. eigenvalues --   -0.27610  -0.26469  -0.24720  -0.23977  -0.21458

 Mulliken charges:
               1
     1  C    0.365141
     2  C    0.365141
     3  C    0.365141
     4  C    0.365141
     5  C    0.269718
     6  C    0.269718
 Sum of Mulliken charges =   2.00000

 Dipole moment (field-independent basis, Debye):
    X=             -0.0000    Y=             -0.0000    Z=             -0.0000  Tot=              0.0000
 Quadrupole moment (field-independent basis, Debye-Ang):
   XX=            -25.8374   YY=            -20.5121   ZZ=            -15.4462
   XY=              0.0000   XZ=             -0.0000   YZ=             -0.0000

  Exact polarizability:  25.942   0.000  34.739   0.000   0.000  94.115
 Approx polarizability:  43.385  -0.000  85.641  -0.000  -0.000 397.254

                      1                      2                      3
                     B3U                    B2G                    B3G
 Frequencies --    166.1123               466.0040               521.4382
 Red. masses --     12.0000                12.0000                12.0000
 Frc consts  --      0.1951                 1.5354                 1.9224
 IR Inten    --      9.8380                 0.0000                 0.0000

                      4                      5                      6
                     B2U                    AU                     B1U
 Frequencies --    601.6895               615.3011               677.4862
 Red. masses --     12.0000                12.0000                12.0000
 Frc consts  --      2.5596                 2.6767                 3.2451
 IR Inten    --      9.5000                 0.0000                98.1438

                      7                      8                      9
                     AG                     B3G                    B1U
 Frequencies --    762.9055               950.8461              1212.1721
 Red. masses --     12.0000                12.0000                12.0000
 Frc consts  --      4.1150                 6.3922                10.3887
 IR Inten    --      0.0000                 0.0000               203.1398

                     10                     11                     12
                     AG                     B2U                    AG
 Frequencies --   1261.0308              1315.4131              1610.7835
 Red. masses --     12.0000                12.0000                12.0000
 Frc consts  --     11.2430                12.2336                18.3445
 IR Inten    --      0.0000                40.5239                 0.0000

 - Thermochemistry -
 -------------------
 Temperature   298.150 Kelvin.  Pressure   1.00000 Atm.
 Atom     1 has atomic number  6 and mass  12.00000

 Molecular mass:    72.00000 amu.
 Principal axes and moments of inertia in atomic units:
                           1         2         3
     Eigenvalues --    88.33160 405.88706 494.21866
           X           -0.00000   0.00000   1.00000
           Y            0.00000   1.00000  -0.00000
           Z            1.00000  -0.00000   0.00000
 This molecule is an asymmetric top.
 Rotational symmetry number  4.
 Rotational temperatures (Kelvin)      0.98055     0.21339     0.17525
 Rotational constants (GHZ):          20.43143     4.44641     3.65171
 Zero-point vibrational energy      60777.4 (Joules/Mol)
                                   14.52614 (Kcal/Mol)
 Warning -- explicit consideration of   5 degrees of freedom as
           vibrations may cause significant error
 Vibrational temperatures:    239.00   670.47   750.23   865.70   885.28
          (Kelvin)            974.75  1097.65  1368.05  1744.04  1814.34
                             1892.58  2317.56

 Zero-point correction=                           0.023149 (Hartree/Particle)
 Thermal correction to Energy=                    0.027666
 Thermal correction to Enthalpy=                  0.028610
 Thermal correction to Gibbs Free Energy=        -0.002685
 Sum of electronic and zero-point Energies=           -227.230182
 Sum of electronic and thermal Energies=              -227.225665
 Sum of electronic and thermal Enthalpies=            -227.224721
 Sum of electronic and thermal Free Energies=         -227.256017

                     E (Thermal)             CV                S
                      KCal/Mol        Cal/Mol-Kelvin    Cal/Mol-Kelvin
 Total                   17.361             14.979             65.868
 Electronic               0.000              0.000              0.000
 Translational            0.889              2.981             38.739
 Rotational               0.889              2.981             21.631
 Vibrational             15.583              9.017              5.497
 Vibration     1          0.624              1.884              2.479
 Vibration     2          0.823              1.325              0.749
 Vibration     3          0.876              1.203              0.607
 Vibration     4          0.960              1.028              0.447
 Vibration     5          0.975              1.000              0.424

 Optimization completed.
    -- Stationary point found.

 1\1\GINC-BELVIS17\Freq\RB3LYP\6-311+G(3df)\C6(2+)\ROOT\23-Oct-2016\0\\
 #p b3lyp/6-311+G(3df) freq symmetry=Loose\\b3lyp opt\\2,1\C,0.91709847
 2,0.4538318271,-0.0357434488\C,-0.3933966277,0.793439491,-0.5138122931
 \C,-0.9170981386,-0.4538314938,0.0357434488\C,0.393396961,-0.793439157
 7,0.5138122931\C,-0.6870976649,-1.636422817,0.7210186541\C,0.687097998
 3,1.6364231503,-0.7210186541\\Version=EM64L-G09RevE.01\State=1-AG\HF=-
 227.2533313\RMSD=1.664e-09\RMSF=1.371e-05\ZeroPoint=0.0231489\Thermal=
 0.0276662\Dipole=0.,0.,0.\DipoleDeriv=0.4438122,-0.1057909,0.0589174,0

 Normal termination of Gaussian 09 at Sun Oct 23 12:11:42 2016.
