 Gaussian 09, Revision E.01,
 Gaussian 09:  EM64L-G09RevE.01 30-Nov-2015

 -----------------------------------------
 #p b3lyp/6-311+G(3df) freq symmetry=Loose
 -----------------------------------------

 ---------
 b3lyp opt
 ---------
 Symbolic Z-matrix:
 Charge =  1 Multiplicity = 4

                         Standard orientation:
 ---------------------------------------------------------------------
 Center     Atomic      Atomic             Coordinates (Angstroms)
 Number     Number       Type             X           Y           Z
 ---------------------------------------------------------------------
      1          6           0        0.000000    0.830252    0.624072
      2          6           0        0.000000    0.000000    1.650815
      3          6           0        0.000000    1.176246   -0.731190
      4          6           0       -0.000000   -0.830252    0.624072
      5          6           0       -0.000000   -0.000000   -1.436578
      6          6           0       -0.000000   -1.176246   -0.731190
 ---------------------------------------------------------------------

 SCF Done:  E(UB3LYP) =  -227.895229768     A.U. after   18 cycles

 The electronic state is 4-B1.
 Alpha  occ. eigenvalues --  -10.58195 -10.58189 -10.53544 -10.53541 -10.52003
 Alpha  occ. eigenvalues --  -10.50404  -1.26453  -1.12158  -1.04515  -0.89051
 Alpha  occ. eigenvalues --   -0.84544  -0.75208  -0.73438  -0.72585  -0.59001
 Alpha  occ. eigenvalues --   -0.58276  -0.57435  -0.56455  -0.50874
 Alpha virt. eigenvalues --   -0.39315  -0.30648  -0.29186  -0.26253  -0.16317
 Alpha virt. eigenvalues --   -0.16211  -0.10945  -0.10303  -0.10276  -0.09020
 Alpha virt. eigenvalues --   -0.08352  -0.07536  -0.06186  -0.05882  -0.05133

  Beta  occ. eigenvalues --  -10.57417 -10.57410 -10.52745 -10.51455 -10.51454
  Beta  occ. eigenvalues --  -10.49242  -1.24711  -1.10059  -0.99860  -0.86260
  Beta  occ. eigenvalues --   -0.82416  -0.73906  -0.69781  -0.69298  -0.56097
  Beta  occ. eigenvalues --   -0.55034
  Beta virt. eigenvalues --   -0.45918  -0.39803  -0.38496  -0.33864  -0.27794
  Beta virt. eigenvalues --   -0.24607  -0.23140  -0.15713  -0.12816  -0.09983
  Beta virt. eigenvalues --   -0.09864  -0.09799  -0.08458  -0.07482  -0.06196

 Mulliken charges and spin densities:
               1          2
     1  C    0.217259   0.367636
     2  C    0.320977  -0.358258
     3  C    0.202309   1.055841
     4  C    0.217259   0.367636
     5  C   -0.160111   0.511303
     6  C    0.202309   1.055841
 Sum of Mulliken charges =   1.00000   3.00000

 Dipole moment (field-independent basis, Debye):
    X=             -0.0000    Y=              0.0000    Z=              0.7164  Tot=              0.7164
 Quadrupole moment (field-independent basis, Debye-Ang):
   XX=            -29.8549   YY=            -24.6857   ZZ=            -25.7700
   XY=             -0.0000   XZ=             -0.0000   YZ=             -0.0000

  Exact polarizability:  28.765  -0.000  59.259   0.000  -0.000  76.041
 Approx polarizability:  44.057   0.000 145.666   0.000  -0.000 221.288

                      1                      2                      3
                     A1                     B1                     B2
 Frequencies --    369.7235               390.9047               471.4843
 Red. masses --     12.0000                12.0000                12.0000
 Frc consts  --      0.9665                 1.0804                 1.5717
 IR Inten    --     16.1755                 1.8731                49.8339

                      4                      5                      6
                     B1                     A2                     A1
 Frequencies --    531.2230               565.6312               629.9114
 Red. masses --     12.0000                12.0000                12.0000
 Frc consts  --      1.9952                 2.2620                 2.8054
 IR Inten    --      0.0402                 0.0000                41.7189

                      7                      8                      9
                     B2                     A1                     A1
 Frequencies --    882.5503              1009.2003              1203.1609
 Red. masses --     12.0000                12.0000                12.0000
 Frc consts  --      5.5069                 7.2009                10.2348
 IR Inten    --     12.5878                 8.1195                 0.2897

                     10                     11                     12
                     B2                     B2                     A1
 Frequencies --   1213.2377              1380.4933              1734.9643
 Red. masses --     12.0000                12.0000                12.0000
 Frc consts  --     10.4069                13.4741                21.2820
 IR Inten    --    109.5265                 0.0376               147.0658

 - Thermochemistry -
 -------------------
 Temperature   298.150 Kelvin.  Pressure   1.00000 Atm.
 Atom     1 has atomic number  6 and mass  12.00000

 Molecular mass:    72.00000 amu.
 Principal axes and moments of inertia in atomic units:
                           1         2         3
     Eigenvalues --   177.65674 284.42057 462.07731
           X            0.00000   0.00000   1.00000
           Y            0.00000   1.00000   0.00000
           Z            1.00000   0.00000   0.00000
 This molecule is an asymmetric top.
 Rotational symmetry number  2.
 Rotational temperatures (Kelvin)      0.48753     0.30453     0.18744
 Rotational constants (GHZ):          10.15859     6.34533     3.90571
 Zero-point vibrational energy      62101.0 (Joules/Mol)
                                   14.84251 (Kcal/Mol)
 Warning -- explicit consideration of   5 degrees of freedom as
           vibrations may cause significant error
 Vibrational temperatures:    531.95   562.42   678.36   764.31   813.82
          (Kelvin)            906.30  1269.79  1452.01  1731.08  1745.58
                             1986.22  2496.22

 Zero-point correction=                           0.023653 (Hartree/Particle)
 Thermal correction to Energy=                    0.028052
 Thermal correction to Enthalpy=                  0.028996
 Thermal correction to Gibbs Free Energy=        -0.003992
 Sum of electronic and zero-point Energies=           -227.871577
 Sum of electronic and thermal Energies=              -227.867178
 Sum of electronic and thermal Enthalpies=            -227.866234
 Sum of electronic and thermal Free Energies=         -227.899222

                     E (Thermal)             CV                S
                      KCal/Mol        Cal/Mol-Kelvin    Cal/Mol-Kelvin
 Total                   17.603             14.991             69.429
 Electronic               0.000              0.000              2.755
 Translational            0.889              2.981             38.739
 Rotational               0.889              2.981             23.283
 Vibrational             15.825              9.029              4.653
 Vibration     1          0.742              1.534              1.081
 Vibration     2          0.759              1.490              0.997
 Vibration     3          0.828              1.313              0.733
 Vibration     4          0.886              1.181              0.584
 Vibration     5          0.921              1.106              0.513

 Optimization completed.
    -- Stationary point found.
 Normal termination of Gaussian 09 at Tue Nov  1 19:39:12 2016.
