 Gaussian 09, Revision E.01,
 Gaussian 09:  EM64L-G09RevE.01 30-Nov-2015

 -----------------------------------------
 #p b3lyp/6-311+G(3df) freq symmetry=Loose
 -----------------------------------------

 ---------
 b3lyp opt
 ---------
 Symbolic Z-matrix:
 Charge =  1 Multiplicity = 2

                         Standard orientation:
 ---------------------------------------------------------------------
 Center     Atomic      Atomic             Coordinates (Angstroms)
 Number     Number       Type             X           Y           Z
 ---------------------------------------------------------------------
      1          6           0       -0.141901    0.947616   -0.000643
      2          6           0        1.165419    0.675434    0.000305
      3          6           0        0.854069   -0.836301   -0.001251
      4          6           0       -0.266115   -0.462655    0.893112
      5          6           0       -0.268239   -0.462226   -0.892313
      6          6           0       -1.343232    0.138132    0.000790
 ---------------------------------------------------------------------

 SCF Done:  E(UB3LYP) =  -227.794894924     A.U. after   20 cycles

 The electronic state is 2-A.
 Alpha  occ. eigenvalues --  -10.59551 -10.58974 -10.58608 -10.58601 -10.57793
 Alpha  occ. eigenvalues --  -10.55289  -1.38466  -1.10191  -1.03234  -0.93056
 Alpha  occ. eigenvalues --   -0.79514  -0.74390  -0.73216  -0.72843  -0.62543
 Alpha  occ. eigenvalues --   -0.60193  -0.57775  -0.55649
 Alpha virt. eigenvalues --   -0.40828  -0.36914  -0.34255  -0.29728  -0.24225
 Alpha virt. eigenvalues --   -0.17129  -0.14983  -0.12960  -0.12405  -0.09519
 Alpha virt. eigenvalues --   -0.08492  -0.08052  -0.08045  -0.07407  -0.06903

  Beta  occ. eigenvalues --  -10.58925 -10.58581 -10.58572 -10.57901 -10.57040
  Beta  occ. eigenvalues --  -10.55495  -1.37918  -1.09378  -1.02070  -0.92817
  Beta  occ. eigenvalues --   -0.78032  -0.73231  -0.72575  -0.70277  -0.62438
  Beta  occ. eigenvalues --   -0.59534  -0.54709
  Beta virt. eigenvalues --   -0.43099  -0.39298  -0.36322  -0.33345  -0.29554
  Beta virt. eigenvalues --   -0.24344  -0.16720  -0.14461  -0.12707  -0.11562
  Beta virt. eigenvalues --   -0.09041  -0.08068  -0.07969  -0.07676  -0.07216

 Mulliken charges and spin densities:
               1          2
     1  C    0.719628  -0.094802
     2  C   -0.236113   0.425858
     3  C    0.521536   0.765877
     4  C   -0.021126  -0.020515
     5  C   -0.021544  -0.020828
     6  C    0.037619  -0.055590
 Sum of Mulliken charges =   1.00000   1.00000

 Dipole moment (field-independent basis, Debye):
    X=              0.9968    Y=              0.1765    Z=             -0.0037  Tot=              1.0123
 Quadrupole moment (field-independent basis, Debye-Ang):
   XX=            -29.5303   YY=            -25.6403   ZZ=            -29.0810
   XY=             -0.2625   XZ=              0.0028   YZ=             -0.0007

  Exact polarizability:  58.051   3.388  44.620   0.012  -0.000  43.294
 Approx polarizability: 156.780  20.806 101.910   0.075  -0.035 116.756

                      1                      2                      3
                      A                      A                      A
 Frequencies --    117.9536               396.3420               402.3203
 Red. masses --     12.0000                12.0000                12.0000
 Frc consts  --      0.0984                 1.1106                 1.1444
 IR Inten    --      6.5766                19.5524                37.4558

                      4                      5                      6
                      A                      A                      A
 Frequencies --    515.3079               718.1262               745.8793
 Red. masses --     12.0000                12.0000                12.0000
 Frc consts  --      1.8774                 3.6461                 3.9334
 IR Inten    --     12.6513                 0.4772                 1.1289

                      7                      8                      9
                      A                      A                      A
 Frequencies --    750.6809               771.1982               852.7140
 Red. masses --     12.0000                12.0000                12.0000
 Frc consts  --      3.9842                 4.2050                 5.1409
 IR Inten    --     19.5081                 5.3707                16.7002

                     10                     11                     12
                      A                      A                      A
 Frequencies --   1066.2249              1148.6192              1426.8061
 Red. masses --     12.0000                12.0000                12.0000
 Frc consts  --      8.0376                 9.3279                14.3933
 IR Inten    --     17.0733                22.4613                50.0691

 - Thermochemistry -
 -------------------
 Temperature   298.150 Kelvin.  Pressure   1.00000 Atm.
 Atom     1 has atomic number  6 and mass  12.00000

 Molecular mass:    72.00000 amu.
 Principal axes and moments of inertia in atomic units:
                           1         2         3
     Eigenvalues --   175.44963 242.06184 280.90770
           X            1.00000   0.00000   0.00000
           Y           -0.00000   1.00000   0.00000
           Z           -0.00000  -0.00000   1.00000
 This molecule is an asymmetric top.
 Rotational symmetry number  1.
 Rotational temperatures (Kelvin)      0.49367     0.35782     0.30834
 Rotational constants (GHZ):          10.28638     7.45570     6.42468
 Zero-point vibrational energy      53306.6 (Joules/Mol)
                                   12.74059 (Kcal/Mol)
 Warning -- explicit consideration of   4 degrees of freedom as
           vibrations may cause significant error
 Vibrational temperatures:    169.71   570.25   578.85   741.41  1033.22
          (Kelvin)           1073.15  1080.06  1109.58  1226.86  1534.06
                             1652.60  2052.85

 Zero-point correction=                           0.020303 (Hartree/Particle)
 Thermal correction to Energy=                    0.025172
 Thermal correction to Enthalpy=                  0.026116
 Thermal correction to Gibbs Free Energy=        -0.007678
 Sum of electronic and zero-point Energies=           -227.774592
 Sum of electronic and thermal Energies=              -227.769723
 Sum of electronic and thermal Enthalpies=            -227.768779
 Sum of electronic and thermal Free Energies=         -227.802573

                     E (Thermal)             CV                S
                      KCal/Mol        Cal/Mol-Kelvin    Cal/Mol-Kelvin
 Total                   15.796             16.244             71.126
 Electronic               0.000              0.000              1.377
 Translational            0.889              2.981             38.739
 Rotational               0.889              2.981             23.993
 Vibrational             14.018             10.283              7.017
 Vibration     1          0.608              1.934              3.134
 Vibration     2          0.763              1.478              0.976
 Vibration     3          0.768              1.465              0.954
 Vibration     4          0.870              1.216              0.621

 Normal termination of Gaussian 09 at Tue Nov  1 20:42:33 2016.
