 Gaussian 09, Revision E.01,
 Gaussian 09:  EM64L-G09RevE.01 30-Nov-2015

 -----------------------------------------
 #p b3lyp/6-311+G(3df) freq symmetry=Loose
 -----------------------------------------

 ---------
 b3lyp opt
 ---------
 Symbolic Z-matrix:
 Charge =  2 Multiplicity = 3

                         Standard orientation:
 ---------------------------------------------------------------------
 Center     Atomic      Atomic             Coordinates (Angstroms)
 Number     Number       Type             X           Y           Z
 ---------------------------------------------------------------------
      1          6           0       -0.052483   -0.000261   -0.875248
      2          6           0        0.781192    0.002272    0.689851
      3          6           0        0.671815   -1.171407   -0.239201
      4          6           0       -0.643120   -0.001890    0.871310
      5          6           0       -1.417724   -0.005073   -0.207496
      6          6           0        0.660319    1.176360   -0.239216
 ---------------------------------------------------------------------

 SCF Done:  E(UB3LYP) =  -227.169479513     A.U. after   21 cycles

 The electronic state is 3-A.
 Alpha  occ. eigenvalues --  -10.85908 -10.85423 -10.85296 -10.85279 -10.85069
 Alpha  occ. eigenvalues --  -10.84982  -1.60299  -1.34357  -1.24859  -1.22754
 Alpha  occ. eigenvalues --   -1.05536  -0.99165  -0.96505  -0.94761  -0.89355
 Alpha  occ. eigenvalues --   -0.89043  -0.83796  -0.80380
 Alpha virt. eigenvalues --   -0.64791  -0.63884  -0.63224  -0.59877  -0.54194
 Alpha virt. eigenvalues --   -0.39061  -0.35073  -0.32703  -0.30048  -0.29934
 Alpha virt. eigenvalues --   -0.26980  -0.25360  -0.25146  -0.24770  -0.23565

  Beta  occ. eigenvalues --  -10.85610 -10.85152 -10.84836 -10.84442 -10.84429
  Beta  occ. eigenvalues --  -10.83005  -1.59285  -1.32377  -1.23359  -1.22137
  Beta  occ. eigenvalues --   -1.04192  -0.96291  -0.95460  -0.91950  -0.86634
  Beta  occ. eigenvalues --   -0.82358
  Beta virt. eigenvalues --   -0.68571  -0.68399  -0.63624  -0.61777  -0.61382
  Beta virt. eigenvalues --   -0.58298  -0.52547  -0.38033  -0.33142  -0.31818
  Beta virt. eigenvalues --   -0.29331  -0.27995  -0.26107  -0.24968  -0.24793

 Mulliken charges and spin densities:
               1          2
     1  C    0.543184  -0.036065
     2  C    0.561648   0.225197
     3  C    0.104363   0.449310
     4  C    0.394244  -0.178469
     5  C    0.292642   1.091819
     6  C    0.103919   0.448209
 Sum of Mulliken charges =   2.00000   2.00000

 Dipole moment (field-independent basis, Debye):
    X=             -0.2096    Y=             -0.0048    Z=              0.2281  Tot=              0.3098
 Quadrupole moment (field-independent basis, Debye-Ang):
   XX=            -17.0435   YY=            -23.4447   ZZ=            -20.8377
   XY=              0.0129   XZ=             -0.6776   YZ=             -0.0071

  Exact polarizability:  48.604  -0.074  60.530   0.041   0.006  38.967
 Approx polarizability: 120.900  -0.144 147.270   0.836  -0.009 103.575

                      1                      2                      3
                      A                      A                      A
 Frequencies --    145.4525               313.9796               337.2605
 Red. masses --     12.0000                12.0000                12.0000
 Frc consts  --      0.1496                 0.6970                 0.8042
 IR Inten    --     16.5108                 0.1895                 1.7931

                      4                      5                      6
                      A                      A                      A
 Frequencies --    620.1302               650.6068               722.9656
 Red. masses --     12.0000                12.0000                12.0000
 Frc consts  --      2.7189                 2.9927                 3.6954
 IR Inten    --      0.1346                 3.7275                 3.2328

                      7                      8                      9
                      A                      A                      A
 Frequencies --    763.4326               863.0738               909.2711
 Red. masses --     12.0000                12.0000                12.0000
 Frc consts  --      4.1207                 5.2666                 5.8455
 IR Inten    --      1.8073                23.4957                 5.3051

                     10                     11                     12
                      A                      A                      A
 Frequencies --    942.8656              1139.7048              1484.7003
 Red. masses --     12.0000                12.0000                12.0000
 Frc consts  --      6.2854                 9.1837                15.5851
 IR Inten    --     10.7589                 0.7544                39.8764

 - Thermochemistry -
 -------------------
 Temperature   298.150 Kelvin.  Pressure   1.00000 Atm.
 Atom     1 has atomic number  6 and mass  12.00000

 Molecular mass:    72.00000 amu.
 Principal axes and moments of inertia in atomic units:
                           1         2         3
     Eigenvalues --   210.60779 260.65414 286.25520
           X            1.00000   0.00000   0.00000
           Y           -0.00000   1.00000  -0.00000
           Z           -0.00000   0.00000   1.00000
 This molecule is an asymmetric top.
 Rotational symmetry number  1.
 Rotational temperatures (Kelvin)      0.41126     0.33229     0.30258
 Rotational constants (GHZ):           8.56920     6.92389     6.30466
 Zero-point vibrational energy      53194.6 (Joules/Mol)
                                   12.71382 (Kcal/Mol)
 Warning -- explicit consideration of   4 degrees of freedom as
           vibrations may cause significant error
 Vibrational temperatures:    209.27   451.75   485.24   892.23   936.08
          (Kelvin)           1040.18  1098.41  1241.77  1308.24  1356.57
                             1639.78  2136.15

 Zero-point correction=                           0.020261 (Hartree/Particle)
 Thermal correction to Energy=                    0.025187
 Thermal correction to Enthalpy=                  0.026131
 Thermal correction to Gibbs Free Energy=        -0.008208
 Sum of electronic and zero-point Energies=           -227.149219
 Sum of electronic and thermal Energies=              -227.144293
 Sum of electronic and thermal Enthalpies=            -227.143349
 Sum of electronic and thermal Free Energies=         -227.177687

                     E (Thermal)             CV                S
                      KCal/Mol        Cal/Mol-Kelvin    Cal/Mol-Kelvin
 Total                   15.805             16.343             72.272
 Electronic               0.000              0.000              2.183
 Translational            0.889              2.981             38.739
 Rotational               0.889              2.981             24.267
 Vibrational             14.027             10.381              7.083
 Vibration     1          0.617              1.908              2.731
 Vibration     2          0.702              1.647              1.341
 Vibration     3          0.718              1.601              1.225
 Vibration     4          0.980              0.989              0.416

 Normal termination of Gaussian 09 at Sun Jun 19 13:36:21 2016.
