 Gaussian 09, Revision E.01,
 Gaussian 09:  EM64L-G09RevE.01 30-Nov-2015

 -----------------------------------------
 #p b3lyp/6-311+G(3df) freq symmetry=Loose
 -----------------------------------------

 ---------
 b3lyp opt
 ---------
 Symbolic Z-matrix:
 Charge =  2 Multiplicity = 1

                         Standard orientation:
 ---------------------------------------------------------------------
 Center     Atomic      Atomic             Coordinates (Angstroms)
 Number     Number       Type             X           Y           Z
 ---------------------------------------------------------------------
      1          6           0       -1.131924    0.562251   -0.002221
      2          6           0       -0.554841   -0.398261    1.025206
      3          6           0        1.492004    0.231877   -0.000224
      4          6           0        0.468125   -0.842245    0.004489
      5          6           0       -0.552822   -0.407345   -1.023235
      6          6           0        0.279458    0.853723   -0.004015
 ---------------------------------------------------------------------

 SCF Done:  E(RB3LYP) =  -227.164877305     A.U. after   15 cycles

 The electronic state is 1-A.
 Alpha  occ. eigenvalues --  -10.89199 -10.88046 -10.88043 -10.86809 -10.85583
 Alpha  occ. eigenvalues --  -10.84000  -1.63396  -1.37552  -1.24844  -1.22709
 Alpha  occ. eigenvalues --   -1.04165  -1.02282  -0.99019  -0.95417  -0.88197
 Alpha  occ. eigenvalues --   -0.86219  -0.80977
 Alpha virt. eigenvalues --   -0.69939  -0.68192  -0.63454  -0.62818  -0.56927
 Alpha virt. eigenvalues --   -0.52748  -0.39098  -0.38952  -0.35214  -0.31130
 Alpha virt. eigenvalues --   -0.29440  -0.28627  -0.25183  -0.24952  -0.24676

 Mulliken charges:
               1
     1  C    0.539066
     2  C    0.152100
     3  C   -0.036988
     4  C    0.735487
     5  C    0.151968
     6  C    0.458367
 Sum of Mulliken charges =   2.00000

 Dipole moment (field-independent basis, Debye):
    X=             -0.2709    Y=             -0.4008    Z=              0.0064  Tot=              0.4838
 Quadrupole moment (field-independent basis, Debye-Ang):
   XX=            -19.9723   YY=            -20.8904   ZZ=            -22.8206
   XY=              0.2891   XZ=             -0.0057   YZ=             -0.0107

  Exact polarizability:  60.544  -1.747  38.148   0.008   0.034  45.293
 Approx polarizability: 262.728 -21.430 100.371   0.092   0.200 150.229

                      1                      2                      3
                      A                      A                      A
 Frequencies --    275.9330               437.4226               441.4747
 Red. masses --     12.0000                12.0000                12.0000
 Frc consts  --      0.5383                 1.3528                 1.3780
 IR Inten    --      5.1495                41.3845                38.5293

                      4                      5                      6
                      A                      A                      A
 Frequencies --    632.1161               652.7902               697.0183
 Red. masses --     12.0000                12.0000                12.0000
 Frc consts  --      2.8250                 3.0129                 3.4349
 IR Inten    --      3.5683                52.0238                10.7903

                      7                      8                      9
                      A                      A                      A
 Frequencies --    756.9804               774.4483               864.3411
 Red. masses --     12.0000                12.0000                12.0000
 Frc consts  --      4.0514                 4.2405                 5.2820
 IR Inten    --     10.2946                 8.4894                12.0188

                     10                     11                     12
                      A                      A                      A
 Frequencies --    890.2203              1116.6789              1306.5802
 Red. masses --     12.0000                12.0000                12.0000
 Frc consts  --      5.6031                 8.8163                12.0699
 IR Inten    --     21.6923                 4.1264                14.7299

 - Thermochemistry -
 -------------------
 Temperature   298.150 Kelvin.  Pressure   1.00000 Atm.
 Atom     1 has atomic number  6 and mass  12.00000

 Molecular mass:    72.00000 amu.
 Principal axes and moments of inertia in atomic units:
                           1         2         3
     Eigenvalues --   181.29959 279.23407 280.71488
           X            1.00000   0.00000   0.00000
           Y           -0.00000   1.00000  -0.00000
           Z           -0.00000   0.00000   1.00000
 This molecule is an asymmetric top.
 Rotational symmetry number  1.
 Rotational temperatures (Kelvin)      0.47774     0.31018     0.30855
 Rotational constants (GHZ):           9.95447     6.46318     6.42909
 Zero-point vibrational energy      52910.9 (Joules/Mol)
                                   12.64600 (Kcal/Mol)
 Warning -- explicit consideration of   3 degrees of freedom as
           vibrations may cause significant error
 Vibrational temperatures:    397.01   629.35   635.18   909.47   939.22
          (Kelvin)           1002.85  1089.12  1114.26  1243.59  1280.83
                             1606.65  1879.88

 Zero-point correction=                           0.020153 (Hartree/Particle)
 Thermal correction to Energy=                    0.024702
 Thermal correction to Enthalpy=                  0.025646
 Thermal correction to Gibbs Free Energy=        -0.006692
 Sum of electronic and zero-point Energies=           -227.144725
 Sum of electronic and thermal Energies=              -227.140175
 Sum of electronic and thermal Enthalpies=            -227.139231
 Sum of electronic and thermal Free Energies=         -227.171569

                     E (Thermal)             CV                S
                      KCal/Mol        Cal/Mol-Kelvin    Cal/Mol-Kelvin
 Total                   15.501             16.063             68.061
 Electronic               0.000              0.000              0.000
 Translational            0.889              2.981             38.739
 Rotational               0.889              2.981             24.167
 Vibrational             13.723             10.101              5.155
 Vibration     1          0.678              1.718              1.559
 Vibration     2          0.798              1.389              0.835
 Vibration     3          0.801              1.380              0.822

 1\1\GINC-BELVIS12\Freq\RB3LYP\6-311+G(3df)\C6(2+)\ROOT\19-Jun-2016\0\\
 #p b3lyp/6-311+G(3df) freq symmetry=Loose\\b3lyp opt\\2,1\C,0.675509,-
 0.498796,-0.944602\C,-0.171873,0.76339,-0.951422\C,0.064497,0.556396,1
 .402179\C,-0.8775,0.271083,0.291627\C,-0.497728,-1.110881,-0.191734\C,
 0.807096,0.018808,0.393953\\Version=EM64L-G09RevE.01\State=1-A\HF=-227
 .1648773\RMSD=4.487e-09\RMSF=1.498e-04\ZeroPoint=0.0201527\Thermal=0.0
 247022\Dipole=-0.1427711,-0.0232252,-0.1237051\DipoleDeriv=0.0765971,0
 .3148182,0.4842826,0.0844384,0.5868055,-0.4127688,-0.0869341,-0.314505

 Normal termination of Gaussian 09 at Sun Jun 19 13:16:56 2016.
