 Gaussian 09, Revision E.01,
 Gaussian 09:  EM64L-G09RevE.01 30-Nov-2015

 -----------------------------------------
 #p b3lyp/6-311+G(3df) freq symmetry=Loose
 -----------------------------------------

 ---------
 b3lyp opt
 ---------
 Symbolic Z-matrix:
 Charge =  2 Multiplicity = 1

                         Standard orientation:
 ---------------------------------------------------------------------
 Center     Atomic      Atomic             Coordinates (Angstroms)
 Number     Number       Type             X           Y           Z
 ---------------------------------------------------------------------
      1          6           0        0.000000   -0.952919    0.677838
      2          6           0        0.000000    0.000000    1.551059
      3          6           0        0.000000    0.952919    0.677838
      4          6           0        0.000000   -0.952919   -0.677838
      5          6           0        0.000000    0.000000   -1.551059
      6          6           0        0.000000    0.952919   -0.677838
 ---------------------------------------------------------------------

 SCF Done:  E(RB3LYP) =  -227.319388339     A.U. after   10 cycles

 The electronic state is 1-AG.
 Alpha  occ. eigenvalues --  -10.82493 -10.82489 -10.82424 -10.82422 -10.78680
 Alpha  occ. eigenvalues --  -10.78676  -1.50622  -1.38048  -1.27458  -1.17837
 Alpha  occ. eigenvalues --   -1.10767  -1.04532  -0.96884  -0.94731  -0.83862
 Alpha  occ. eigenvalues --   -0.83003  -0.80221
 Alpha virt. eigenvalues --   -0.66887  -0.65395  -0.64909  -0.55143  -0.52729
 Alpha virt. eigenvalues --   -0.52567  -0.33976  -0.33178  -0.27269  -0.25893
 Alpha virt. eigenvalues --   -0.25746  -0.25274  -0.25166  -0.21422  -0.21300

 Mulliken charges:
               1
     1  C    0.300920
     2  C    0.398160
     3  C    0.300920
     4  C    0.300920
     5  C    0.398160
     6  C    0.300920
 Sum of Mulliken charges =   2.00000

 Dipole moment (field-independent basis, Debye):
    X=              0.0000    Y=             -0.0000    Z=             -0.0000  Tot=              0.0000
 Quadrupole moment (field-independent basis, Debye-Ang):
   XX=            -28.1669   YY=            -13.6590   ZZ=            -11.7075
   XY=             -0.0000   XZ=              0.0000   YZ=             -0.0000

  Exact polarizability:  23.542   0.000  43.530  -0.000  -0.000  61.618
 Approx polarizability:  32.730   0.000 115.930  -0.000  -0.000 185.703

                      1                      2                      3
                     B2G                    B3U                    AU
 Frequencies --    286.1173               355.3214               465.3486
 Red. masses --     12.0000                12.0000                12.0000
 Frc consts  --      0.5788                 0.8926                 1.5310
 IR Inten    --      0.0000                 4.0809                 0.0000

                      4                      5                      6
                     AG                     B1U                    B3G
 Frequencies --    504.6222               511.1822               524.0001
 Red. masses --     12.0000                12.0000                12.0000
 Frc consts  --      1.8004                 1.8475                 1.9413
 IR Inten    --      0.0000                67.4225                 0.0000

                      7                      8                      9
                     B2U                    AG                     B2U
 Frequencies --   1153.3769              1190.4700              1568.3875
 Red. masses --     12.0000                12.0000                12.0000
 Frc consts  --      9.4053                10.0200                17.3915
 IR Inten    --     39.7744                 0.0000                 1.6105

                     10                     11                     12
                     B3G                    B1U                    AG
 Frequencies --   1669.3157              1674.1282              1853.4885
 Red. masses --     12.0000                12.0000                12.0000
 Frc consts  --     19.7019                19.8157                24.2891
 IR Inten    --      0.0000                 1.7752                 0.0000

 - Thermochemistry -
 -------------------
 Temperature   298.150 Kelvin.  Pressure   1.00000 Atm.
 Atom     1 has atomic number  6 and mass  12.00000

 Molecular mass:    72.00000 amu.
 Principal axes and moments of inertia in atomic units:
                           1         2         3
     Eigenvalues --   155.65068 284.94650 440.59717
           X           -0.00000   0.00000   1.00000
           Y           -0.00000   1.00000  -0.00000
           Z            1.00000   0.00000   0.00000
 This molecule is an asymmetric top.
 Rotational symmetry number  4.
 Rotational temperatures (Kelvin)      0.55646     0.30397     0.19658
 Rotational constants (GHZ):          11.59482     6.33361     4.09613
 Zero-point vibrational energy      70315.1 (Joules/Mol)
                                   16.80570 (Kcal/Mol)
 Warning -- explicit consideration of   6 degrees of freedom as
           vibrations may cause significant error
 Vibrational temperatures:    411.66   511.23   669.53   726.04   735.48
          (Kelvin)            753.92  1659.45  1712.82  2256.56  2401.77
                             2408.69  2666.75

 Zero-point correction=                           0.026782 (Hartree/Particle)
 Thermal correction to Energy=                    0.031349
 Thermal correction to Enthalpy=                  0.032293
 Thermal correction to Gibbs Free Energy=         0.001005
 Sum of electronic and zero-point Energies=           -227.292607
 Sum of electronic and thermal Energies=              -227.288039
 Sum of electronic and thermal Enthalpies=            -227.287095
 Sum of electronic and thermal Free Energies=         -227.318383

                     E (Thermal)             CV                S
                      KCal/Mol        Cal/Mol-Kelvin    Cal/Mol-Kelvin
 Total                   19.672             14.824             65.852
 Electronic               0.000              0.000              0.000
 Translational            0.889              2.981             38.739
 Rotational               0.889              2.981             21.729
 Vibrational             17.894              8.862              5.384
 Vibration     1          0.684              1.699              1.497
 Vibration     2          0.731              1.564              1.143
 Vibration     3          0.823              1.327              0.751
 Vibration     4          0.860              1.240              0.647
 Vibration     5          0.866              1.225              0.631
 Vibration     6          0.879              1.197              0.601

 Optimization completed.
    -- Stationary point found.

 1\1\GINC-BELVIS17\Freq\RB3LYP\6-311+G(3df)\C6(2+)\ROOT\23-Oct-2016\0\\
 #p b3lyp/6-311+G(3df) freq symmetry=Loose\\b3lyp opt\\2,1\C,-0.3341667
 58,0.92702488,-0.629663352\C,-1.4304218161,0.2474310128,-0.5463121298\
 C,-0.9160683387,-0.7107625514,0.1521690776\C,0.9160680054,0.7107618847
 ,-0.1521687439\C,1.4304214828,-0.2474316794,0.5463124634\C,0.334166424
 7,-0.9270255467,0.6296636857\\Version=EM64L-G09RevE.01\State=1-AG\HF=-
 227.3193883\RMSD=2.787e-09\RMSF=2.896e-05\ZeroPoint=0.0267816\Thermal=
 0.0313492\Dipole=0.,0.,0.\DipoleDeriv=0.3533958,-0.1008096,0.082129,-0

 Normal termination of Gaussian 09 at Sun Oct 23 12:19:39 2016.
