 Gaussian 09, Revision E.01,
 Gaussian 09:  EM64L-G09RevE.01 30-Nov-2015

 -----------------------------------------
 #p b3lyp/6-311+G(3df) freq symmetry=Loose
 -----------------------------------------

 ---------
 b3lyp opt
 ---------
 Symbolic Z-matrix:
 Charge =  2 Multiplicity = 1

                         Standard orientation:
 ---------------------------------------------------------------------
 Center     Atomic      Atomic             Coordinates (Angstroms)
 Number     Number       Type             X           Y           Z
 ---------------------------------------------------------------------
      1          6           0       -0.000000    0.952862    0.677776
      2          6           0       -0.000000   -0.952862    0.677776
      3          6           0       -0.000000    0.952862   -0.677776
      4          6           0       -0.000000   -0.952862   -0.677776
      5          6           0       -0.000000    0.000000   -1.550919
      6          6           0        0.000000    0.000000    1.550919
 ---------------------------------------------------------------------

 SCF Done:  E(RB3LYP) =  -227.319388278     A.U. after   10 cycles

 The electronic state is 1-AG.
 Alpha  occ. eigenvalues --  -10.82491 -10.82488 -10.82422 -10.82421 -10.78678
 Alpha  occ. eigenvalues --  -10.78674  -1.50630  -1.38053  -1.27462  -1.17842
 Alpha  occ. eigenvalues --   -1.10770  -1.04537  -0.96889  -0.94736  -0.83865
 Alpha  occ. eigenvalues --   -0.83005  -0.80224
 Alpha virt. eigenvalues --   -0.66888  -0.65394  -0.64905  -0.55141  -0.52728
 Alpha virt. eigenvalues --   -0.52565  -0.33970  -0.33178  -0.27270  -0.25893
 Alpha virt. eigenvalues --   -0.25746  -0.25270  -0.25167  -0.21422  -0.21299

 Mulliken charges:
               1
     1  C    0.300896
     2  C    0.300896
     3  C    0.300896
     4  C    0.300896
     5  C    0.398208
     6  C    0.398208
 Sum of Mulliken charges =   2.00000

 Dipole moment (field-independent basis, Debye):
    X=             -0.0000    Y=              0.0000    Z=             -0.0000  Tot=              0.0000
 Quadrupole moment (field-independent basis, Debye-Ang):
   XX=            -28.1654   YY=            -13.6594   ZZ=            -11.7087
   XY=              0.0000   XZ=             -0.0000   YZ=             -0.0000

  Exact polarizability:  23.539  -0.000  43.524  -0.000  -0.000  61.606
 Approx polarizability:  32.726   0.000 115.906   0.000   0.000 185.640

                      1                      2                      3
                     B2G                    B3U                    AU
 Frequencies --    285.7993               355.0053               465.2356
 Red. masses --     12.0000                12.0000                12.0000
 Frc consts  --      0.5775                 0.8910                 1.5303
 IR Inten    --      0.0000                 4.0807                 0.0000

                      4                      5                      6
                     AG                     B1U                    B3G
 Frequencies --    504.5921               511.0269               523.8675
 Red. masses --     12.0000                12.0000                12.0000
 Frc consts  --      1.8002                 1.8464                 1.9403
 IR Inten    --      0.0000                67.4434                 0.0000

                      7                      8                      9
                     B2U                    AG                     B2U
 Frequencies --   1153.7147              1190.8480              1569.0825
 Red. masses --     12.0000                12.0000                12.0000
 Frc consts  --      9.4108                10.0264                17.4070
 IR Inten    --     39.7862                 0.0000                 1.6078

                     10                     11                     12
                     B3G                    B1U                    AG
 Frequencies --   1669.8052              1674.5629              1854.1167
 Red. masses --     12.0000                12.0000                12.0000
 Frc consts  --     19.7135                19.8260                24.3056
 IR Inten    --      0.0000                 1.7741                 0.0000

 - Thermochemistry -
 -------------------
 Temperature   298.150 Kelvin.  Pressure   1.00000 Atm.
 Atom     1 has atomic number  6 and mass  12.00000

 Molecular mass:    72.00000 amu.
 Principal axes and moments of inertia in atomic units:
                           1         2         3
     Eigenvalues --   155.63209 284.89489 440.52698
           X            0.00000  -0.00000   1.00000
           Y           -0.00000   1.00000   0.00000
           Z            1.00000   0.00000  -0.00000
 This molecule is an asymmetric top.
 Rotational symmetry number  4.
 Rotational temperatures (Kelvin)      0.55653     0.30402     0.19661
 Rotational constants (GHZ):          11.59620     6.33476     4.09678
 Zero-point vibrational energy      70326.4 (Joules/Mol)
                                   16.80841 (Kcal/Mol)
 Warning -- explicit consideration of   6 degrees of freedom as
           vibrations may cause significant error
 Vibrational temperatures:    411.20   510.77   669.37   725.99   735.25
          (Kelvin)            753.73  1659.94  1713.36  2257.56  2402.47
                             2409.32  2667.66

 Zero-point correction=                           0.026786 (Hartree/Particle)
 Thermal correction to Energy=                    0.031355
 Thermal correction to Enthalpy=                  0.032299
 Thermal correction to Gibbs Free Energy=         0.001009
 Sum of electronic and zero-point Energies=           -227.292602
 Sum of electronic and thermal Energies=              -227.288034
 Sum of electronic and thermal Enthalpies=            -227.287090
 Sum of electronic and thermal Free Energies=         -227.318380

                     E (Thermal)             CV                S
                      KCal/Mol        Cal/Mol-Kelvin    Cal/Mol-Kelvin
 Total                   19.675             14.825             65.855
 Electronic               0.000              0.000              0.000
 Translational            0.889              2.981             38.739
 Rotational               0.889              2.981             21.728
 Vibrational             17.898              8.863              5.388
 Vibration     1          0.684              1.700              1.499
 Vibration     2          0.731              1.565              1.144
 Vibration     3          0.823              1.327              0.751
 Vibration     4          0.860              1.240              0.647
 Vibration     5          0.866              1.226              0.631
 Vibration     6          0.879              1.197              0.601

 Optimization completed.
    -- Stationary point found.

 1\1\GINC-BELVIS17\Freq\RB3LYP\6-311+G(3df)\C6(2+)\ROOT\23-Oct-2016\0\\
 #p b3lyp/6-311+G(3df) freq symmetry=Loose\\b3lyp opt\\2,1\C,0.96043131
 89,-0.4819005452,0.4611624589\C,-0.8798472087,-0.0908098359,0.76482051
 22\C,0.8798468754,0.0908095026,-0.7648198455\C,-0.9604316523,0.4819002
 119,-0.4611617922\C,-0.0921986946,0.6552506611,-1.402674411\C,0.092198
 3613,-0.6552509944,1.4026750777\\Version=EM64L-G09RevE.01\State=1-AG\H
 F=-227.3193883\RMSD=2.779e-09\RMSF=6.727e-05\ZeroPoint=0.0267859\Therm
 al=0.0313545\Dipole=0.,0.,0.\DipoleDeriv=0.5248924,-0.1945074,0.270105

 Normal termination of Gaussian 09 at Sun Oct 23 12:11:37 2016.
