 Gaussian 09, Revision E.01,
 Gaussian 09:  EM64L-G09RevE.01 30-Nov-2015

 -----------------------------------------
 #p b3lyp/6-311+G(3df) freq symmetry=Loose
 -----------------------------------------

 ---------
 b3lyp opt
 ---------
 Symbolic Z-matrix:
 Charge =  2 Multiplicity = 1

                         Standard orientation:
 ---------------------------------------------------------------------
 Center     Atomic      Atomic             Coordinates (Angstroms)
 Number     Number       Type             X           Y           Z
 ---------------------------------------------------------------------
      1          6           0       -1.057108   -0.481295   -0.270398
      2          6           0       -0.230861    1.226663   -0.400138
      3          6           0       -0.000298   -0.230793    1.290171
      4          6           0       -0.432909    0.948822    0.877056
      5          6           0        0.761723   -0.754355   -0.754352
      6          6           0        0.599692   -1.112908    0.508394
      7          6           0        0.359761    0.403865   -1.250733
 ---------------------------------------------------------------------

 SCF Done:  E(RB3LYP) =  -265.328297505     A.U. after   13 cycles

 The electronic state is 1-A.
 Alpha  occ. eigenvalues --  -10.85577 -10.79444 -10.79443 -10.79443 -10.78617
 Alpha  occ. eigenvalues --  -10.78617 -10.78605  -1.52196  -1.32991  -1.32989
 Alpha  occ. eigenvalues --   -1.13336  -1.13334  -1.11850  -1.04088  -0.94160
 Alpha  occ. eigenvalues --   -0.88769  -0.88767  -0.83065  -0.78917  -0.78915
 Alpha virt. eigenvalues --   -0.64697  -0.59701  -0.59699  -0.53552  -0.53543
 Alpha virt. eigenvalues --   -0.53050  -0.53040  -0.52731  -0.33183  -0.29552
 Alpha virt. eigenvalues --   -0.25889  -0.24707  -0.24707  -0.22909  -0.22908

 Mulliken charges:
               1
     1  C    0.193340
     2  C    0.318593
     3  C    0.318847
     4  C    0.283782
     5  C    0.318598
     6  C    0.283347
     7  C    0.283494
 Sum of Mulliken charges =   2.00000

 Dipole moment (field-independent basis, Debye):
    X=              0.7310    Y=              0.3327    Z=              0.1872  Tot=              0.8246
 Quadrupole moment (field-independent basis, Debye-Ang):
   XX=            -27.5706   YY=            -22.6561   ZZ=            -21.7804
   XY=             -2.8207   XZ=             -1.5884   YZ=             -0.7222

  Exact polarizability:  42.752  -6.468  54.020  -3.642  -1.655  56.029
 Approx polarizability: 102.282 -26.800 148.976 -15.093  -6.855 157.295

                      1                      2                      3
                      A                      A                      A
 Frequencies --    215.1784               301.7261               302.8180
 Red. masses --     12.0000                12.0000                12.0000
 Frc consts  --      0.3274                 0.6437                 0.6483
 IR Inten    --      0.1538                 0.0028                 0.0019

                      4                      5                      6
                      A                      A                      A
 Frequencies --    310.9960               424.5726               426.1854
 Red. masses --     12.0000                12.0000                12.0000
 Frc consts  --      0.6838                 1.2745                 1.2842
 IR Inten    --      0.0998                 0.0910                 0.0900

                      7                      8                      9
                      A                      A                      A
 Frequencies --    622.5926               623.2682               627.0811
 Red. masses --     12.0000                12.0000                12.0000
 Frc consts  --      2.7406                 2.7465                 2.7802
 IR Inten    --      0.7226                 1.0755                93.2684

                     10                     11                     12
                      A                      A                      A
 Frequencies --   1224.8152              1394.1738              1395.1252
 Red. masses --     12.0000                12.0000                12.0000
 Frc consts  --     10.6065                13.7425                13.7612
 IR Inten    --      0.2025                 1.4426                 1.4255

                     13                     14                     15
                      A                      A                      A
 Frequencies --   1412.0997              1688.9089              1689.3787
 Red. masses --     12.0000                12.0000                12.0000
 Frc consts  --     14.0981                20.1671                20.1783
 IR Inten    --      0.0013                10.3045                10.3008

 - Thermochemistry -
 -------------------
 Temperature   298.150 Kelvin.  Pressure   1.00000 Atm.
 Atom     1 has atomic number  6 and mass  12.00000

 Molecular mass:    84.00000 amu.
 Principal axes and moments of inertia in atomic units:
                           1         2         3
     Eigenvalues --   295.80606 295.82715 449.42373
           X           -0.46292  -0.00000   0.88640
           Y            0.77243  -0.49053   0.40339
           Z            0.43481   0.87142   0.22708
 This molecule is an asymmetric top.
 Rotational symmetry number  1.
 Rotational temperatures (Kelvin)      0.29281     0.29279     0.19272
 Rotational constants (GHZ):           6.10110     6.10066     4.01568
 Zero-point vibrational energy      75717.2 (Joules/Mol)
                                   18.09683 (Kcal/Mol)
 Warning -- explicit consideration of   6 degrees of freedom as
           vibrations may cause significant error
 Vibrational temperatures:    309.59   434.12   435.69   447.45   610.86
          (Kelvin)            613.18   895.77   896.74   902.23  1762.23
                             2005.90  2007.27  2031.69  2429.96  2430.64

 Zero-point correction=                           0.028839 (Hartree/Particle)
 Thermal correction to Energy=                    0.034504
 Thermal correction to Enthalpy=                  0.035448
 Thermal correction to Gibbs Free Energy=         0.000469
 Sum of electronic and zero-point Energies=           -265.299458
 Sum of electronic and thermal Energies=              -265.293793
 Sum of electronic and thermal Enthalpies=            -265.292849
 Sum of electronic and thermal Free Energies=         -265.327828

                     E (Thermal)             CV                S
                      KCal/Mol        Cal/Mol-Kelvin    Cal/Mol-Kelvin
 Total                   21.652             19.126             73.620
 Electronic               0.000              0.000              0.000
 Translational            0.889              2.981             39.198
 Rotational               0.889              2.981             25.178
 Vibrational             19.874             13.164              9.243
 Vibration     1          0.645              1.818              1.999
 Vibration     2          0.694              1.670              1.407
 Vibration     3          0.694              1.668              1.401
 Vibration     4          0.700              1.653              1.357
 Vibration     5          0.787              1.417              0.877
 Vibration     6          0.788              1.413              0.871

 Optimization completed.
    -- Stationary point found.
 Normal termination of Gaussian 09 at Tue Jul  5 22:51:18 2016.
