 Gaussian 09, Revision E.01,
 Gaussian 09:  EM64L-G09RevE.01 30-Nov-2015

 -----------------------------------------
 #p b3lyp/6-311+G(3df) freq symmetry=Loose
 -----------------------------------------

 ---------
 b3lyp opt
 ---------
 Symbolic Z-matrix:
 Charge =  1 Multiplicity = 4

                         Standard orientation:
 ---------------------------------------------------------------------
 Center     Atomic      Atomic             Coordinates (Angstroms)
 Number     Number       Type             X           Y           Z
 ---------------------------------------------------------------------
      1          6           0       -1.663240   -0.791181    0.000069
      2          6           0       -0.423088    0.000013   -0.000024
      3          6           0        0.875072    0.000033   -0.000058
      4          6           0       -1.663342    0.791214    0.000069
      5          6           0        2.147177   -0.000029   -0.000010
      6          6           0        3.479601    0.000005    0.000026
      7          6           0       -2.752180   -0.000055   -0.000073
 ---------------------------------------------------------------------

 SCF Done:  E(UB3LYP) =  -265.965287639     A.U. after   20 cycles

 The electronic state is 4-A.
 Alpha  occ. eigenvalues --  -10.56349 -10.56332 -10.54562 -10.54061 -10.46871
 Alpha  occ. eigenvalues --  -10.46173 -10.44515  -1.28770  -1.07982  -1.01766
 Alpha  occ. eigenvalues --   -0.93621  -0.85957  -0.84986  -0.72546  -0.72320
 Alpha  occ. eigenvalues --   -0.65527  -0.60645  -0.58080  -0.56912  -0.51625
 Alpha  occ. eigenvalues --   -0.50983  -0.44720
 Alpha virt. eigenvalues --   -0.35591  -0.33653  -0.30387  -0.21975  -0.15891
 Alpha virt. eigenvalues --   -0.14885  -0.11366  -0.11272  -0.09596  -0.08966
 Alpha virt. eigenvalues --   -0.07991  -0.07440  -0.07393  -0.05732  -0.05683

  Beta  occ. eigenvalues --  -10.55844 -10.55828 -10.53628 -10.51919 -10.46687
  Beta  occ. eigenvalues --  -10.45122 -10.44014  -1.27812  -1.05908  -0.98799
  Beta  occ. eigenvalues --   -0.90687  -0.84146  -0.82647  -0.70320  -0.69942
  Beta  occ. eigenvalues --   -0.58728  -0.57625  -0.54963  -0.48917
  Beta virt. eigenvalues --   -0.42324  -0.41527  -0.35040  -0.34824  -0.29624
  Beta virt. eigenvalues --   -0.25870  -0.17256  -0.14606  -0.13601  -0.10935
  Beta virt. eigenvalues --   -0.10883  -0.08414  -0.08122  -0.07171  -0.06444

 Mulliken charges and spin densities:
               1          2
     1  C    0.864469   0.264435
     2  C   -0.208888   0.118261
     3  C   -0.684617   0.412919
     4  C    0.864244   0.264434
     5  C    1.312900   0.452793
     6  C   -0.467648   0.518014
     7  C   -0.680459   0.969145
 Sum of Mulliken charges =   1.00000   3.00000

 Dipole moment (field-independent basis, Debye):
    X=             -4.1278    Y=             -0.0001    Z=              0.0000  Tot=              4.1278
 Quadrupole moment (field-independent basis, Debye-Ang):
   XX=            -20.7380   YY=            -35.2338   ZZ=            -34.0845
   XY=             -0.0000   XZ=              0.0001   YZ=              0.0000

  Exact polarizability: 172.660   0.000  47.985  -0.013  -0.000  29.718
 Approx polarizability: 375.459  -0.000  92.673  -0.002   0.000  57.396

                      1                      2                      3
                      A                      A                      A
 Frequencies --     97.6471               104.1913               250.9656
 Red. masses --     12.0000                12.0000                12.0000
 Frc consts  --      0.0674                 0.0768                 0.4453
 IR Inten    --      1.3095                 0.3365                 0.0860

                      4                      5                      6
                      A                      A                      A
 Frequencies --    334.8515               466.9706               494.5643
 Red. masses --     12.0000                12.0000                12.0000
 Frc consts  --      0.7927                 1.5417                 1.7293
 IR Inten    --      2.8790                 0.1813                 1.6869

                      7                      8                      9
                      A                      A                      A
 Frequencies --    530.3532               570.6792               775.9535
 Red. masses --     12.0000                12.0000                12.0000
 Frc consts  --      1.9887                 2.3026                 4.2570
 IR Inten    --      6.9882                15.4115                13.5128

                     10                     11                     12
                      A                      A                      A
 Frequencies --    831.7224              1146.4254              1179.6104
 Red. masses --     12.0000                12.0000                12.0000
 Frc consts  --      4.8909                 9.2923                 9.8380
 IR Inten    --     79.5508                 0.0281                 1.5860

                     13                     14                     15
                      A                      A                      A
 Frequencies --   1545.8425              1647.5816              1938.3007
 Red. masses --     12.0000                12.0000                12.0000
 Frc consts  --     16.8951                19.1922                26.5628
 IR Inten    --    354.4342               306.0101                 5.9383

 - Thermochemistry -
 -------------------
 Temperature   298.150 Kelvin.  Pressure   1.00000 Atm.
 Atom     1 has atomic number  6 and mass  12.00000

 Molecular mass:    84.00000 amu.
 Principal axes and moments of inertia in atomic units:
                           1         2         3
     Eigenvalues --    53.651131318.593521372.24465
           X            1.00000   0.00000  -0.00000
           Y           -0.00000   1.00000  -0.00000
           Z            0.00000   0.00000   1.00000
 This molecule is an asymmetric top.
 Rotational symmetry number  1.
 Rotational temperatures (Kelvin)      1.61439     0.06569     0.06312
 Rotational constants (GHZ):          33.63846     1.36869     1.31517
 Zero-point vibrational energy      71271.5 (Joules/Mol)
                                   17.03429 (Kcal/Mol)
 Warning -- explicit consideration of   8 degrees of freedom as
           vibrations may cause significant error
 Vibrational temperatures:    140.49   149.91   361.08   481.78   671.87
          (Kelvin)            711.57   763.06   821.08  1116.42  1196.66
                             1649.45  1697.19  2224.12  2370.50  2788.78

 Zero-point correction=                           0.027146 (Hartree/Particle)
 Thermal correction to Energy=                    0.033367
 Thermal correction to Enthalpy=                  0.034311
 Thermal correction to Gibbs Free Energy=        -0.004126
 Sum of electronic and zero-point Energies=           -265.938142
 Sum of electronic and thermal Energies=              -265.931921
 Sum of electronic and thermal Enthalpies=            -265.930977
 Sum of electronic and thermal Free Energies=         -265.969414

                     E (Thermal)             CV                S
                      KCal/Mol        Cal/Mol-Kelvin    Cal/Mol-Kelvin
 Total                   20.938             19.964             80.897
 Electronic               0.000              0.000              2.755
 Translational            0.889              2.981             39.198
 Rotational               0.889              2.981             26.076
 Vibrational             19.160             14.002             12.868
 Vibration     1          0.603              1.951              3.501
 Vibration     2          0.605              1.946              3.374
 Vibration     3          0.663              1.761              1.724
 Vibration     4          0.716              1.606              1.237
 Vibration     5          0.824              1.323              0.746
 Vibration     6          0.850              1.262              0.672
 Vibration     7          0.885              1.183              0.586
 Vibration     8          0.927              1.095              0.503

 Optimization completed.
    -- Stationary point found.
 Normal termination of Gaussian 09 at Tue Nov  1 20:42:26 2016.
