 Gaussian 09, Revision E.01,
 Gaussian 09:  EM64L-G09RevE.01 30-Nov-2015

 -----------------------------------------
 #p b3lyp/6-311+G(3df) freq symmetry=Loose
 -----------------------------------------

 ---------
 b3lyp opt
 ---------
 Symbolic Z-matrix:
 Charge =  2 Multiplicity = 1

                         Standard orientation:
 ---------------------------------------------------------------------
 Center     Atomic      Atomic             Coordinates (Angstroms)
 Number     Number       Type             X           Y           Z
 ---------------------------------------------------------------------
      1          6           0       -1.680098   -0.084945   -0.398776
      2          6           0        0.857144   -0.531476   -0.757388
      3          6           0        0.349339   -0.667232    1.119147
      4          6           0        0.406468    0.687974    0.474563
      5          6           0       -1.005942    0.880039    0.077484
      6          6           0        1.554395    0.498448   -0.380504
      7          6           0       -0.481306   -0.782808   -0.134527
 ---------------------------------------------------------------------

 SCF Done:  E(RB3LYP) =  -265.263444518     A.U. after   16 cycles

 The electronic state is 1-A.
 Alpha  occ. eigenvalues --  -10.86516 -10.86019 -10.81323 -10.80623 -10.80273
 Alpha  occ. eigenvalues --  -10.77897 -10.76653  -1.58207  -1.40586  -1.26544
 Alpha  occ. eigenvalues --   -1.22797  -1.10946  -1.05072  -1.01436  -0.95373
 Alpha  occ. eigenvalues --   -0.93845  -0.84337  -0.83720  -0.81802  -0.76243
 Alpha virt. eigenvalues --   -0.66606  -0.65896  -0.59126  -0.57895  -0.55435
 Alpha virt. eigenvalues --   -0.49801  -0.49318  -0.33736  -0.31043  -0.28947
 Alpha virt. eigenvalues --   -0.28694  -0.25685  -0.25095  -0.24767  -0.24191

 Mulliken charges:
               1
     1  C    0.215220
     2  C    0.338269
     3  C    0.024961
     4  C    0.334587
     5  C    0.412230
     6  C    0.257752
     7  C    0.416981
 Sum of Mulliken charges =   2.00000

 Dipole moment (field-independent basis, Debye):
    X=             -0.5037    Y=              0.4749    Z=             -0.3473  Tot=              0.7745
 Quadrupole moment (field-independent basis, Debye-Ang):
   XX=            -20.2093   YY=            -24.5450   ZZ=            -28.6569
   XY=             -0.6967   XZ=             -1.6389   YZ=              2.3229

  Exact polarizability:  72.863   1.886  44.855   0.206  -2.884  46.331
 Approx polarizability: 223.593  24.265 123.386  -3.545 -16.081 135.319

                      1                      2                      3
                      A                      A                      A
 Frequencies --    224.7746               368.4560               395.2358
 Red. masses --     12.0000                12.0000                12.0000
 Frc consts  --      0.3572                 0.9598                 1.1044
 IR Inten    --      9.9879                 0.4843                10.4504

                      4                      5                      6
                      A                      A                      A
 Frequencies --    407.3822               514.8433               586.5561
 Red. masses --     12.0000                12.0000                12.0000
 Frc consts  --      1.1734                 1.8741                 2.4325
 IR Inten    --     21.4434                 0.9597                15.2907

                      7                      8                      9
                      A                      A                      A
 Frequencies --    703.1691               710.1342               832.4785
 Red. masses --     12.0000                12.0000                12.0000
 Frc consts  --      3.4958                 3.5654                 4.8998
 IR Inten    --     11.5356                 4.5331                14.7657

                     10                     11                     12
                      A                      A                      A
 Frequencies --    865.8910              1000.4130              1078.1397
 Red. masses --     12.0000                12.0000                12.0000
 Frc consts  --      5.3010                 7.0760                 8.2183
 IR Inten    --      6.3888                10.8922                12.8387

                     13                     14                     15
                      A                      A                      A
 Frequencies --   1240.6250              1572.0714              1720.6350
 Red. masses --     12.0000                12.0000                12.0000
 Frc consts  --     10.8821                17.4733                20.9319
 IR Inten    --     93.1332                 1.7838                 4.3268

 - Thermochemistry -
 -------------------
 Temperature   298.150 Kelvin.  Pressure   1.00000 Atm.
 Atom     1 has atomic number  6 and mass  12.00000

 Molecular mass:    84.00000 amu.
 Principal axes and moments of inertia in atomic units:
                           1         2         3
     Eigenvalues --   223.82611 423.54152 443.45325
           X            1.00000  -0.00000   0.00000
           Y            0.00000   1.00000   0.00000
           Z            0.00000  -0.00000   1.00000
 This molecule is an asymmetric top.
 Rotational symmetry number  1.
 Rotational temperatures (Kelvin)      0.38697     0.20450     0.19532
 Rotational constants (GHZ):           8.06314     4.26107     4.06974
 Zero-point vibrational energy      73096.6 (Joules/Mol)
                                   17.47052 (Kcal/Mol)
 Warning -- explicit consideration of   6 degrees of freedom as
           vibrations may cause significant error
 Vibrational temperatures:    323.40   530.13   568.66   586.13   740.74
          (Kelvin)            843.92  1011.70  1021.72  1197.75  1245.82
                             1439.37  1551.20  1784.98  2261.86  2475.61

 Zero-point correction=                           0.027841 (Hartree/Particle)
 Thermal correction to Energy=                    0.032970
 Thermal correction to Enthalpy=                  0.033914
 Thermal correction to Gibbs Free Energy=        -0.000110
 Sum of electronic and zero-point Energies=           -265.235603
 Sum of electronic and thermal Energies=              -265.230475
 Sum of electronic and thermal Enthalpies=            -265.229531
 Sum of electronic and thermal Free Energies=         -265.263555

                     E (Thermal)             CV                S
                      KCal/Mol        Cal/Mol-Kelvin    Cal/Mol-Kelvin
 Total                   20.689             18.242             71.610
 Electronic               0.000              0.000              0.000
 Translational            0.889              2.981             39.198
 Rotational               0.889              2.981             25.245
 Vibrational             18.911             12.280              7.167
 Vibration     1          0.649              1.803              1.920
 Vibration     2          0.741              1.537              1.086
 Vibration     3          0.762              1.480              0.980
 Vibration     4          0.772              1.454              0.936
 Vibration     5          0.870              1.217              0.622
 Vibration     6          0.944              1.060              0.473

 Optimization completed.
    -- Stationary point found.

 1\1\GINC-BELVIS12\Freq\RB3LYP\6-311+G(3df)\C7(2+)\ROOT\19-Jun-2016\0\\
 #p b3lyp/6-311+G(3df) freq symmetry=Loose\\b3lyp opt\\2,1\C,-1.637716,
 -0.551945,-0.047012\C,0.92274,-0.71745,-0.473937\C,0.520132,0.120424,1
 .238825\C,0.269352,0.889084,-0.026721\C,-1.164836,0.607589,-0.257655\C
 ,1.401118,0.444553,-0.805368\C,-0.310789,-0.792254,0.371867\\Version=E
 M64L-G09RevE.01\State=1-A\HF=-265.2634445\RMSD=7.672e-09\RMSF=7.102e-0
 5\ZeroPoint=0.027841\Thermal=0.0329697\Dipole=-0.2375598,0.047484,-0.1
 848284\DipoleDeriv=-0.3417838,-0.1005407,-0.1875752,0.0025257,0.039922

 Normal termination of Gaussian 09 at Sun Jun 19 14:19:52 2016.
