 Gaussian 09, Revision E.01,
 Gaussian 09:  EM64L-G09RevE.01 30-Nov-2015

 -----------------------------------------
 #p b3lyp/6-311+G(3df) freq symmetry=Loose
 -----------------------------------------

 ---------
 b3lyp opt
 ---------
 Symbolic Z-matrix:
 Charge =  1 Multiplicity = 2

                         Standard orientation:
 ---------------------------------------------------------------------
 Center     Atomic      Atomic             Coordinates (Angstroms)
 Number     Number       Type             X           Y           Z
 ---------------------------------------------------------------------
      1          6           0        0.000103   -1.696726   -0.000000
      2          6           0        0.000031   -3.058196   -0.000000
      3          6           0       -0.798584   -0.542149   -0.000000
      4          6           0        0.798774   -0.542140   -0.000000
      5          6           0        0.000077    0.635140    0.000000
      6          6           0        0.000000    1.950152    0.000000
      7          6           0       -0.000401    3.253919    0.000000
 ---------------------------------------------------------------------

 SCF Done:  E(UB3LYP) =  -265.950364162     A.U. after   20 cycles

 The electronic state is 2-A".
 Alpha  occ. eigenvalues --  -10.57516 -10.57499 -10.55534 -10.54801 -10.52134
 Alpha  occ. eigenvalues --  -10.46677 -10.44239  -1.29513  -1.08208  -1.02931
 Alpha  occ. eigenvalues --   -0.94726  -0.85761  -0.85458  -0.73251  -0.73123
 Alpha  occ. eigenvalues --   -0.59992  -0.59757  -0.57104  -0.52452  -0.52099
 Alpha  occ. eigenvalues --   -0.50948
 Alpha virt. eigenvalues --   -0.40991  -0.36969  -0.35919  -0.29960  -0.21812
 Alpha virt. eigenvalues --   -0.20481  -0.15183  -0.12557  -0.11942  -0.09511
 Alpha virt. eigenvalues --   -0.09004  -0.08846  -0.07230  -0.06891  -0.06161

  Beta  occ. eigenvalues --  -10.57367 -10.57350 -10.55077 -10.54886 -10.52176
  Beta  occ. eigenvalues --  -10.46351 -10.43696  -1.29295  -1.07604  -1.01129
  Beta  occ. eigenvalues --   -0.93470  -0.85208  -0.85204  -0.73306  -0.72461
  Beta  occ. eigenvalues --   -0.59237  -0.57168  -0.56237  -0.51776  -0.50228
  Beta virt. eigenvalues --   -0.43320  -0.40346  -0.35831  -0.32838  -0.29822
  Beta virt. eigenvalues --   -0.20097  -0.19203  -0.15112  -0.12367  -0.11690
  Beta virt. eigenvalues --   -0.08990  -0.08765  -0.07847  -0.06975  -0.06860

 Mulliken charges and spin densities:
               1          2
     1  C    0.334246   0.015235
     2  C   -0.624220   0.322233
     3  C    0.883081   0.094906
     4  C    0.883495   0.094926
     5  C   -0.819668  -0.051306
     6  C    0.539882   0.377693
     7  C   -0.196816   0.146312
 Sum of Mulliken charges =   1.00000   1.00000

 Dipole moment (field-independent basis, Debye):
    X=              0.0005    Y=             -2.8661    Z=             -0.0000  Tot=              2.8661
 Quadrupole moment (field-independent basis, Debye-Ang):
   XX=            -35.1554   YY=            -28.4930   ZZ=            -34.6166
   XY=              0.0001   XZ=              0.0000   YZ=             -0.0000

  Exact polarizability:  51.825  -0.008 175.589  -0.000  -0.000  35.777
 Approx polarizability: 109.973  -0.022 482.519   0.000   0.000  61.051

                      1                      2                      3
                     A"                     A'                     A'
 Frequencies --    114.5689               117.6189               205.0125
 Red. masses --     12.0000                12.0000                12.0000
 Frc consts  --      0.0928                 0.0978                 0.2972
 IR Inten    --      4.5895                 5.9520                 4.4440

                      4                      5                      6
                     A"                     A"                     A'
 Frequencies --    272.9081               499.1097               499.4795
 Red. masses --     12.0000                12.0000                12.0000
 Frc consts  --      0.5266                 1.7613                 1.7639
 IR Inten    --      0.8436                 2.0894                 1.1744

                      7                      8                      9
                     A'                     A'                     A"
 Frequencies --    567.8267               635.3301               640.8193
 Red. masses --     12.0000                12.0000                12.0000
 Frc consts  --      2.2796                 2.8538                 2.9034
 IR Inten    --      0.1134                39.0539                 2.4137

                     10                     11                     12
                     A'                     A'                     A'
 Frequencies --    885.9212               955.7936              1016.3348
 Red. masses --     12.0000                12.0000                12.0000
 Frc consts  --      5.5491                 6.4589                 7.3031
 IR Inten    --     19.2865                 6.6042               148.5492

                     13                     14                     15
                     A'                     A'                     A'
 Frequencies --   1377.9769              1627.2155              1928.1478
 Red. masses --     12.0000                12.0000                12.0000
 Frc consts  --     13.4250                18.7207                26.2852
 IR Inten    --     39.3594               208.2891              1269.2491

 - Thermochemistry -
 -------------------
 Temperature   298.150 Kelvin.  Pressure   1.00000 Atm.
 Atom     1 has atomic number  6 and mass  12.00000

 Molecular mass:    84.00000 amu.
 Principal axes and moments of inertia in atomic units:
                           1         2         3
     Eigenvalues --    54.670551183.326721237.99727
           X           -0.00006   1.00000  -0.00000
           Y            1.00000   0.00006  -0.00000
           Z            0.00000   0.00000   1.00000
 This molecule is an asymmetric top.
 Rotational symmetry number  1.
 Rotational temperatures (Kelvin)      1.58429     0.07320     0.06996
 Rotational constants (GHZ):          33.01121     1.52514     1.45779
 Zero-point vibrational energy      67852.6 (Joules/Mol)
                                   16.21715 (Kcal/Mol)
 Warning -- explicit consideration of   7 degrees of freedom as
           vibrations may cause significant error
 Vibrational temperatures:    164.84   169.23   294.97   392.65   718.11
          (Kelvin)            718.64   816.98   914.10   921.99  1274.64
                             1375.17  1462.28  1982.60  2341.20  2774.17

 Zero-point correction=                           0.025844 (Hartree/Particle)
 Thermal correction to Energy=                    0.032148
 Thermal correction to Enthalpy=                  0.033092
 Thermal correction to Gibbs Free Energy=        -0.004651
 Sum of electronic and zero-point Energies=           -265.924520
 Sum of electronic and thermal Energies=              -265.918216
 Sum of electronic and thermal Enthalpies=            -265.917272
 Sum of electronic and thermal Free Energies=         -265.955015

                     E (Thermal)             CV                S
                      KCal/Mol        Cal/Mol-Kelvin    Cal/Mol-Kelvin
 Total                   20.173             20.383             79.436
 Electronic               0.000              0.000              1.377
 Translational            0.889              2.981             39.198
 Rotational               0.889              2.981             25.885
 Vibrational             18.396             14.421             12.975
 Vibration     1          0.608              1.937              3.190
 Vibration     2          0.608              1.935              3.139
 Vibration     3          0.640              1.833              2.088
 Vibration     4          0.676              1.723              1.578
 Vibration     5          0.855              1.252              0.660
 Vibration     6          0.855              1.251              0.659
 Vibration     7          0.924              1.101              0.508

 Optimization completed.
    -- Stationary point found.
 Normal termination of Gaussian 09 at Tue Nov  1 20:03:58 2016.
