 Gaussian 09, Revision E.01,
 Gaussian 09:  EM64L-G09RevE.01 30-Nov-2015

 -----------------------------------------
 #p b3lyp/6-311+G(3df) freq symmetry=Loose
 -----------------------------------------

 ---------
 b3lyp opt
 ---------
 Symbolic Z-matrix:
 Charge =  1 Multiplicity = 4

                         Standard orientation:
 ---------------------------------------------------------------------
 Center     Atomic      Atomic             Coordinates (Angstroms)
 Number     Number       Type             X           Y           Z
 ---------------------------------------------------------------------
      1          6           0       -0.947092    1.179012    0.000233
      2          6           0        0.316617   -1.328271   -0.000327
      3          6           0        0.307995    1.329956   -0.000889
      4          6           0        1.472784    0.716682    0.000689
      5          6           0       -0.939354   -1.183915    0.000002
      6          6           0       -1.689126   -0.004597    0.000267
      7          6           0        1.478176   -0.708867    0.000025
 ---------------------------------------------------------------------

 SCF Done:  E(UB3LYP) =  -266.027267412     A.U. after   21 cycles

 The electronic state is 4-A.
 Alpha  occ. eigenvalues --  -10.52900 -10.51664 -10.51623 -10.49080 -10.49065
 Alpha  occ. eigenvalues --  -10.47854 -10.47849  -1.16100  -1.07468  -1.05634
 Alpha  occ. eigenvalues --   -0.92710  -0.91843  -0.78985  -0.78817  -0.68801
 Alpha  occ. eigenvalues --   -0.66810  -0.60316  -0.57737  -0.57138  -0.56855
 Alpha  occ. eigenvalues --   -0.48965  -0.48840
 Alpha virt. eigenvalues --   -0.34560  -0.34364  -0.31597  -0.31178  -0.14758
 Alpha virt. eigenvalues --   -0.11819  -0.11631  -0.10203  -0.10161  -0.09808
 Alpha virt. eigenvalues --   -0.08193  -0.06103  -0.06042  -0.05955  -0.05855

  Beta  occ. eigenvalues --  -10.51195 -10.50120 -10.50081 -10.48131 -10.48124
  Beta  occ. eigenvalues --  -10.47988 -10.47983  -1.14416  -1.04830  -1.04388
  Beta  occ. eigenvalues --   -0.90277  -0.89848  -0.77119  -0.76829  -0.66018
  Beta  occ. eigenvalues --   -0.62934  -0.57531  -0.54847  -0.53910
  Beta virt. eigenvalues --   -0.44690  -0.32851  -0.32558  -0.32216  -0.31629
  Beta virt. eigenvalues --   -0.28613  -0.28558  -0.14527  -0.10276  -0.10003
  Beta virt. eigenvalues --   -0.09888  -0.09773  -0.08908  -0.07961  -0.05903

 Mulliken charges and spin densities:
               1          2
     1  C    0.146807   0.518925
     2  C    0.359385  -0.524197
     3  C    0.357324  -0.523939
     4  C   -0.010048   0.949031
     5  C    0.146389   0.521163
     6  C    0.011125   1.110216
     7  C   -0.010982   0.948801
 Sum of Mulliken charges =   1.00000   3.00000

 Dipole moment (field-independent basis, Debye):
    X=              0.1072    Y=              0.0004    Z=             -0.0012  Tot=              0.1072
 Quadrupole moment (field-independent basis, Debye-Ang):
   XX=            -26.8877   YY=            -28.3557   ZZ=            -35.3623
   XY=              0.0052   XZ=             -0.0006   YZ=             -0.0010

  Exact polarizability:  84.585   0.042  67.150   0.001   0.003  36.419
 Approx polarizability: 231.580   0.271 144.007  -0.007   0.005  53.550

                      1                      2                      3
                      A                      A                      A
 Frequencies --    118.2680               306.1596               349.1772
 Red. masses --     12.0000                12.0000                12.0000
 Frc consts  --      0.0989                 0.6627                 0.8620
 IR Inten    --      0.0046                 4.1767                 0.0000

                      4                      5                      6
                      A                      A                      A
 Frequencies --    454.4389               508.0627               508.6963
 Red. masses --     12.0000                12.0000                12.0000
 Frc consts  --      1.4601                 1.8250                 1.8296
 IR Inten    --     21.7613                 0.5787                 0.0043

                      7                      8                      9
                      A                      A                      A
 Frequencies --    529.9640               598.2017               754.2633
 Red. masses --     12.0000                12.0000                12.0000
 Frc consts  --      1.9857                 2.5300                 4.0223
 IR Inten    --      5.9406                 0.1805                 0.1562

                     10                     11                     12
                      A                      A                      A
 Frequencies --    992.8750              1133.7075              1156.4020
 Red. masses --     12.0000                12.0000                12.0000
 Frc consts  --      6.9698                 9.0873                 9.4547
 IR Inten    --      0.1220                13.2109                68.0486

                     13                     14                     15
                      A                      A                      A
 Frequencies --   1418.3616              1660.2696              1805.9602
 Red. masses --     12.0000                12.0000                12.0000
 Frc consts  --     14.2235                19.4890                23.0594
 IR Inten    --      5.7557                23.7277                 0.0242

 - Thermochemistry -
 -------------------
 Temperature   298.150 Kelvin.  Pressure   1.00000 Atm.
 Atom     1 has atomic number  6 and mass  12.00000

 Molecular mass:    84.00000 amu.
 Principal axes and moments of inertia in atomic units:
                           1         2         3
     Eigenvalues --   314.58047 393.46241 708.04275
           X            1.00000  -0.00000   0.00000
           Y            0.00000   1.00000   0.00000
           Z           -0.00000  -0.00000   1.00000
 This molecule is an asymmetric top.
 Rotational symmetry number  1.
 Rotational temperatures (Kelvin)      0.27533     0.22013     0.12233
 Rotational constants (GHZ):           5.73698     4.58682     2.54892
 Zero-point vibrational energy      73539.3 (Joules/Mol)
                                   17.57631 (Kcal/Mol)
 Warning -- explicit consideration of   8 degrees of freedom as
           vibrations may cause significant error
 Vibrational temperatures:    170.16   440.49   502.39   653.84   730.99
          (Kelvin)            731.90   762.50   860.68  1085.22  1428.52
                             1631.15  1663.80  2040.70  2388.75  2598.37

 Zero-point correction=                           0.028010 (Hartree/Particle)
 Thermal correction to Energy=                    0.033560
 Thermal correction to Enthalpy=                  0.034504
 Thermal correction to Gibbs Free Energy=        -0.002167
 Sum of electronic and zero-point Energies=           -265.999258
 Sum of electronic and thermal Energies=              -265.993707
 Sum of electronic and thermal Enthalpies=            -265.992763
 Sum of electronic and thermal Free Energies=         -266.029434

                     E (Thermal)             CV                S
                      KCal/Mol        Cal/Mol-Kelvin    Cal/Mol-Kelvin
 Total                   21.059             18.936             77.180
 Electronic               0.000              0.000              2.755
 Translational            0.889              2.981             39.198
 Rotational               0.889              2.981             25.975
 Vibrational             19.282             12.974              9.253
 Vibration     1          0.608              1.934              3.128
 Vibration     2          0.697              1.662              1.383
 Vibration     3          0.726              1.577              1.170
 Vibration     4          0.813              1.351              0.782
 Vibration     5          0.863              1.232              0.638
 Vibration     6          0.864              1.231              0.637
 Vibration     7          0.885              1.184              0.587
 Vibration     8          0.956              1.036              0.453

 Normal termination of Gaussian 09 at Tue Nov  1 20:42:40 2016.
