 Gaussian 09, Revision E.01,
 Gaussian 09:  EM64L-G09RevE.01 30-Nov-2015

 -----------------------------------------
 #p b3lyp/6-311+G(3df) freq symmetry=Loose
 -----------------------------------------

 ---------
 b3lyp opt
 ---------
 Symbolic Z-matrix:
 Charge =  1 Multiplicity = 4

                         Standard orientation:
 ---------------------------------------------------------------------
 Center     Atomic      Atomic             Coordinates (Angstroms)
 Number     Number       Type             X           Y           Z
 ---------------------------------------------------------------------
      1          6           0       -1.568239    0.031630   -0.000002
      2          6           0       -1.089135    1.286000    0.000066
      3          6           0        2.199767   -0.372044   -0.000013
      4          6           0        1.170282   -0.045990    0.785927
      5          6           0       -0.015100    0.421859   -0.000068
      6          6           0       -1.867824   -1.275566   -0.000016
      7          6           0        1.170250   -0.045888   -0.785893
 ---------------------------------------------------------------------

 SCF Done:  E(UB3LYP) =  -265.885739640     A.U. after   22 cycles

 The electronic state is 4-A.
 Alpha  occ. eigenvalues --  -10.57854 -10.56467 -10.56450 -10.54451 -10.50616
 Alpha  occ. eigenvalues --  -10.48430 -10.47407  -1.29310  -1.18276  -0.98896
 Alpha  occ. eigenvalues --   -0.96700  -0.85293  -0.75136  -0.73417  -0.73113
 Alpha  occ. eigenvalues --   -0.66305  -0.65237  -0.59056  -0.56825  -0.53991
 Alpha  occ. eigenvalues --   -0.53000  -0.46915
 Alpha virt. eigenvalues --   -0.35894  -0.35747  -0.30169  -0.25507  -0.18371
 Alpha virt. eigenvalues --   -0.14854  -0.12965  -0.11122  -0.10638  -0.09729
 Alpha virt. eigenvalues --   -0.08195  -0.07765  -0.07110  -0.05898  -0.05115

  Beta  occ. eigenvalues --  -10.57564 -10.55974 -10.55958 -10.52726 -10.48541
  Beta  occ. eigenvalues --  -10.47436 -10.47324  -1.28785  -1.16864  -0.96699
  Beta  occ. eigenvalues --   -0.93910  -0.83315  -0.73448  -0.71996  -0.70578
  Beta  occ. eigenvalues --   -0.61628  -0.59339  -0.55881  -0.51581
  Beta virt. eigenvalues --   -0.43105  -0.39815  -0.36333  -0.33865  -0.32357
  Beta virt. eigenvalues --   -0.26453  -0.22062  -0.14601  -0.13856  -0.12618
  Beta virt. eigenvalues --   -0.10307  -0.10174  -0.09057  -0.07742  -0.07126

 Mulliken charges and spin densities:
               1          2
     1  C    0.624543   0.029941
     2  C    0.060291   1.075675
     3  C   -0.205574   0.729956
     4  C    0.164627   0.277710
     5  C    0.566217  -0.075115
     6  C   -0.374763   0.684068
     7  C    0.164659   0.277765
 Sum of Mulliken charges =   1.00000   3.00000

 Dipole moment (field-independent basis, Debye):
    X=              2.0757    Y=              1.1989    Z=             -0.0002  Tot=              2.3970
 Quadrupole moment (field-independent basis, Debye-Ang):
   XX=            -22.4778   YY=            -35.4565   ZZ=            -35.2620
   XY=             -2.5536   XZ=             -0.0003   YZ=             -0.0000

  Exact polarizability:  95.766   4.161  63.239   0.000   0.000  46.487
 Approx polarizability: 182.000   7.213 127.477   0.002  -0.000  94.836

                      1                      2                      3
                      A                      A                      A
 Frequencies --    106.9401               192.7247               244.3257
 Red. masses --     12.0000                12.0000                12.0000
 Frc consts  --      0.0809                 0.2626                 0.4221
 IR Inten    --      3.1904                 0.1130                 4.2532

                      4                      5                      6
                      A                      A                      A
 Frequencies --    363.3770               444.5595               471.8629
 Red. masses --     12.0000                12.0000                12.0000
 Frc consts  --      0.9336                 1.3973                 1.5742
 IR Inten    --      5.2749                 0.0172                 7.7838

                      7                      8                      9
                      A                      A                      A
 Frequencies --    495.8120               561.7591               654.1765
 Red. masses --     12.0000                12.0000                12.0000
 Frc consts  --      1.7381                 2.2312                 3.0257
 IR Inten    --     16.6437                 8.0979                26.2900

                     10                     11                     12
                      A                      A                      A
 Frequencies --    888.8585              1058.5629              1232.7870
 Red. masses --     12.0000                12.0000                12.0000
 Frc consts  --      5.5859                 7.9225                10.7450
 IR Inten    --     20.8588                46.5035                 2.1036

                     13                     14                     15
                      A                      A                      A
 Frequencies --   1366.7715              1612.8980              1672.4473
 Red. masses --     12.0000                12.0000                12.0000
 Frc consts  --     13.2076                18.3927                19.7759
 IR Inten    --     57.8524               112.3667                16.0188

 - Thermochemistry -
 -------------------
 Temperature   298.150 Kelvin.  Pressure   1.00000 Atm.
 Atom     1 has atomic number  6 and mass  12.00000

 Molecular mass:    84.00000 amu.
 Principal axes and moments of inertia in atomic units:
                           1         2         3
     Eigenvalues --   207.31222 683.41238 784.85172
           X            1.00000   0.00000  -0.00000
           Y           -0.00000   1.00000  -0.00000
           Z            0.00000   0.00000   1.00000
 This molecule is an asymmetric top.
 Rotational symmetry number  1.
 Rotational temperatures (Kelvin)      0.41779     0.12674     0.11036
 Rotational constants (GHZ):           8.70543     2.64078     2.29947
 Zero-point vibrational energy      67994.9 (Joules/Mol)
                                   16.25118 (Kcal/Mol)
 Warning -- explicit consideration of   8 degrees of freedom as
           vibrations may cause significant error
 Vibrational temperatures:    153.86   277.29   351.53   522.82   639.62
          (Kelvin)            678.90   713.36   808.25   941.21  1278.87
                             1523.03  1773.70  1966.48  2320.60  2406.28

 Zero-point correction=                           0.025898 (Hartree/Particle)
 Thermal correction to Energy=                    0.032036
 Thermal correction to Enthalpy=                  0.032980
 Thermal correction to Gibbs Free Energy=        -0.005010
 Sum of electronic and zero-point Energies=           -265.859842
 Sum of electronic and thermal Energies=              -265.853704
 Sum of electronic and thermal Enthalpies=            -265.852760
 Sum of electronic and thermal Free Energies=         -265.890750

                     E (Thermal)             CV                S
                      KCal/Mol        Cal/Mol-Kelvin    Cal/Mol-Kelvin
 Total                   20.103             20.280             79.957
 Electronic               0.000              0.000              2.755
 Translational            0.889              2.981             39.198
 Rotational               0.889              2.981             26.211
 Vibrational             18.325             14.318             11.792
 Vibration     1          0.606              1.944              3.324
 Vibration     2          0.635              1.850              2.201
 Vibration     3          0.660              1.772              1.771
 Vibration     4          0.737              1.548              1.108
 Vibration     5          0.804              1.373              0.812
 Vibration     6          0.829              1.312              0.732
 Vibration     7          0.851              1.259              0.669
 Vibration     8          0.917              1.114              0.520

 Optimization completed.
    -- Stationary point found.
 Normal termination of Gaussian 09 at Tue Nov  1 20:00:17 2016.
