 Gaussian 09, Revision E.01,
 Gaussian 09:  EM64L-G09RevE.01 30-Nov-2015

 -----------------------------------------
 #p b3lyp/6-311+G(3df) freq symmetry=Loose
 -----------------------------------------

 ---------
 b3lyp opt
 ---------
 Symbolic Z-matrix:
 Charge =  2 Multiplicity = 1

                         Standard orientation:
 ---------------------------------------------------------------------
 Center     Atomic      Atomic             Coordinates (Angstroms)
 Number     Number       Type             X           Y           Z
 ---------------------------------------------------------------------
      1          6           0       -0.101952   -1.656820    0.000000
      2          6           0       -0.232234   -3.062751    0.000000
      3          6           0       -0.008475   -0.546261    0.843578
      4          6           0       -0.008475   -0.546261   -0.843578
      5          6           0        0.099913    0.634304   -0.000000
      6          6           0        0.259699    1.929095   -0.000000
      7          6           0       -0.008475    3.248695    0.000000
 ---------------------------------------------------------------------

 SCF Done:  E(RB3LYP) =  -265.357415307     A.U. after   16 cycles

 The electronic state is 1-A'.
 Alpha  occ. eigenvalues --  -10.82851 -10.79738 -10.79727 -10.75729 -10.74173
 Alpha  occ. eigenvalues --  -10.72582 -10.68164  -1.48922  -1.28975  -1.23793
 Alpha  occ. eigenvalues --   -1.15295  -1.07355  -1.05837  -0.94406  -0.92460
 Alpha  occ. eigenvalues --   -0.80795  -0.79002  -0.78138  -0.73390  -0.72672
 Alpha virt. eigenvalues --   -0.66459  -0.62634  -0.57748  -0.55762  -0.52857
 Alpha virt. eigenvalues --   -0.43071  -0.43025  -0.33666  -0.31963  -0.28161
 Alpha virt. eigenvalues --   -0.25857  -0.25671  -0.23927  -0.23297  -0.21187

 Mulliken charges:
               1
     1  C    0.038163
     2  C   -0.280368
     3  C    1.001257
     4  C    1.001257
     5  C   -0.325724
     6  C    0.540851
     7  C    0.024564
 Sum of Mulliken charges =   2.00000

 Dipole moment (field-independent basis, Debye):
    X=              0.2540    Y=             -2.5217    Z=             -0.0000  Tot=              2.5344
 Quadrupole moment (field-independent basis, Debye-Ang):
   XX=            -30.9834   YY=              8.9305   ZZ=            -31.4191
   XY=              4.0754   XZ=              0.0000   YZ=             -0.0000

  Exact polarizability:  35.530   9.134 178.353  -0.000  -0.000  47.807
 Approx polarizability:  60.970  41.768 673.725   0.000   0.000 110.901

                      1                      2                      3
                     A'                     A"                     A'
 Frequencies --     90.2894               123.3019               170.4308
 Red. masses --     12.0000                12.0000                12.0000
 Frc consts  --      0.0576                 0.1075                 0.2054
 IR Inten    --      4.5889                 0.1164                12.6914

                      4                      5                      6
                     A"                     A'                     A"
 Frequencies --    206.2134               324.8998               484.7263
 Red. masses --     12.0000                12.0000                12.0000
 Frc consts  --      0.3007                 0.7463                 1.6612
 IR Inten    --      2.6794                15.8817                 1.6403

                      7                      8                      9
                     A'                     A"                     A'
 Frequencies --    554.4918               590.6829               629.6183
 Red. masses --     12.0000                12.0000                12.0000
 Frc consts  --      2.1738                 2.4668                 2.8028
 IR Inten    --      1.5029                22.3015                 4.7108

                     10                     11                     12
                     A'                     A'                     A"
 Frequencies --    812.7892               960.5621               972.4302
 Red. masses --     12.0000                12.0000                12.0000
 Frc consts  --      4.6708                 6.5235                 6.6857
 IR Inten    --     17.1662               436.8150                 2.7059

                     13                     14                     15
                     A'                     A'                     A'
 Frequencies --   1293.2238              1611.7107              1752.1784
 Red. masses --     12.0000                12.0000                12.0000
 Frc consts  --     11.8244                18.3656                21.7064
 IR Inten    --    236.5026               870.2932               305.5867

 - Thermochemistry -
 -------------------
 Temperature   298.150 Kelvin.  Pressure   1.00000 Atm.
 Atom     1 has atomic number  6 and mass  12.00000

 Molecular mass:    84.00000 amu.
 Principal axes and moments of inertia in atomic units:
                           1         2         3
     Eigenvalues --    63.884501180.252511238.34830
           X            0.05211   0.00000   0.99864
           Y            0.99864   0.00000  -0.05211
           Z            0.00000   1.00000   0.00000
 This molecule is an asymmetric top.
 Rotational symmetry number  1.
 Rotational temperatures (Kelvin)      1.35579     0.07339     0.06994
 Rotational constants (GHZ):          28.25006     1.52911     1.45738
 Zero-point vibrational energy      63267.8 (Joules/Mol)
                                   15.12137 (Kcal/Mol)
 Warning -- explicit consideration of   8 degrees of freedom as
           vibrations may cause significant error
 Vibrational temperatures:    129.91   177.40   245.21   296.69   467.46
          (Kelvin)            697.41   797.79   849.86   905.88  1169.42
                             1382.03  1399.11  1860.66  2318.89  2520.99

 Zero-point correction=                           0.024097 (Hartree/Particle)
 Thermal correction to Energy=                    0.030831
 Thermal correction to Enthalpy=                  0.031775
 Thermal correction to Gibbs Free Energy=        -0.006369
 Sum of electronic and zero-point Energies=           -265.333318
 Sum of electronic and thermal Energies=              -265.326584
 Sum of electronic and thermal Enthalpies=            -265.325640
 Sum of electronic and thermal Free Energies=         -265.363784

                     E (Thermal)             CV                S
                      KCal/Mol        Cal/Mol-Kelvin    Cal/Mol-Kelvin
 Total                   19.347             21.311             80.281
 Electronic               0.000              0.000              0.000
 Translational            0.889              2.981             39.198
 Rotational               0.889              2.981             26.038
 Vibrational             17.569             15.349             15.045
 Vibration     1          0.602              1.956              3.654
 Vibration     2          0.610              1.930              3.048
 Vibration     3          0.626              1.879              2.431
 Vibration     4          0.641              1.831              2.077
 Vibration     5          0.709              1.626              1.285
 Vibration     6          0.841              1.284              0.697
 Vibration     7          0.910              1.130              0.535
 Vibration     8          0.948              1.052              0.466

 Optimization completed.
    -- Stationary point found.

 1\1\GINC-BELVIS17\Freq\RB3LYP\6-311+G(3df)\C7(2+)\ROOT\23-Oct-2016\0\\
 #p b3lyp/6-311+G(3df) freq symmetry=Loose\\b3lyp opt\\2,1\C,1.01007196
 96,0.9263003582,0.9365723543\C,1.874113666,1.680285835,1.760316266\C,-
 0.332549129,0.589083913,0.743295934\C,0.9906478714,0.0585409128,-0.159
 0180661\C,-0.3963294158,-0.3100510241,-0.3988923761\C,-1.1983629438,-0
 .9752888251,-1.1838864021\C,-1.9475930193,-1.9688711709,-1.6983867088\
 \Version=EM64L-G09RevE.01\State=1-A'\HF=-265.3574153\RMSD=8.742e-09\RM
 SF=1.903e-05\ZeroPoint=0.0240974\Thermal=0.0308308\Dipole=0.5793629,0.

 Normal termination of Gaussian 09 at Sun Oct 23 12:36:49 2016.
