 Gaussian 09, Revision E.01,
 Gaussian 09:  EM64L-G09RevE.01 30-Nov-2015

 -----------------------------------------
 #p b3lyp/6-311+G(3df) freq symmetry=Loose
 -----------------------------------------

 ---------
 b3lyp opt
 ---------
 Symbolic Z-matrix:
 Charge =  1 Multiplicity = 4

                         Standard orientation:
 ---------------------------------------------------------------------
 Center     Atomic      Atomic             Coordinates (Angstroms)
 Number     Number       Type             X           Y           Z
 ---------------------------------------------------------------------
      1          6           0       -1.702758   -0.000028    0.000219
      2          6           0       -3.022865   -0.000078    0.000670
      3          6           0       -0.540679   -0.808900   -0.000756
      4          6           0       -0.540766    0.808952   -0.000756
      5          6           0        0.618680    0.000085    0.000057
      6          6           0        1.944214    0.000105    0.000221
      7          6           0        3.244176   -0.000136    0.000344
 ---------------------------------------------------------------------

 SCF Done:  E(UB3LYP) =  -265.911232315     A.U. after   65 cycles

 The electronic state is 4-A.
 Alpha  occ. eigenvalues --  -10.55542 -10.55527 -10.55362 -10.53538 -10.53085
 Alpha  occ. eigenvalues --  -10.44729 -10.42840  -1.27730  -1.07951  -1.02470
 Alpha  occ. eigenvalues --   -0.93836  -0.84643  -0.84391  -0.72869  -0.71774
 Alpha  occ. eigenvalues --   -0.67932  -0.59698  -0.57574  -0.53929  -0.52309
 Alpha  occ. eigenvalues --   -0.49706  -0.49455
 Alpha virt. eigenvalues --   -0.35976  -0.35204  -0.30103  -0.21140  -0.19419
 Alpha virt. eigenvalues --   -0.14641  -0.12011  -0.11430  -0.08776  -0.08618
 Alpha virt. eigenvalues --   -0.08551  -0.07268  -0.06968  -0.06051  -0.04806

  Beta  occ. eigenvalues --  -10.55182 -10.55167 -10.53565 -10.53329 -10.51187
  Beta  occ. eigenvalues --  -10.44356 -10.42249  -1.27336  -1.05663  -0.98827
  Beta  occ. eigenvalues --   -0.91078  -0.83662  -0.82772  -0.71710  -0.71131
  Beta  occ. eigenvalues --   -0.56866  -0.56193  -0.50117  -0.48627
  Beta virt. eigenvalues --   -0.43063  -0.41828  -0.35762  -0.34383  -0.30718
  Beta virt. eigenvalues --   -0.26904  -0.18644  -0.17474  -0.14360  -0.11412
  Beta virt. eigenvalues --   -0.11138  -0.08242  -0.07800  -0.06782  -0.06525

 Mulliken charges and spin densities:
               1          2
     1  C    0.025592  -0.132842
     2  C   -0.128324   2.197613
     3  C    0.785272   0.208006
     4  C    0.785618   0.208007
     5  C   -0.798771  -0.051306
     6  C    0.562107   0.388352
     7  C   -0.231494   0.182170
 Sum of Mulliken charges =   1.00000   3.00000

 Dipole moment (field-independent basis, Debye):
    X=             -5.4547    Y=              0.0001    Z=             -0.0004  Tot=              5.4547
 Quadrupole moment (field-independent basis, Debye-Ang):
   XX=            -19.3673   YY=            -36.2539   ZZ=            -34.2254
   XY=              0.0009   XZ=             -0.0040   YZ=              0.0000

  Exact polarizability: 165.381  -0.000  49.260   0.012  -0.000  35.692
 Approx polarizability: 370.052  -0.003 105.201   0.004   0.000  58.441

                      1                      2                      3
                      A                      A                      A
 Frequencies --    118.8553               131.4013               302.5070
 Red. masses --     12.0000                12.0000                12.0000
 Frc consts  --      0.0999                 0.1221                 0.6470
 IR Inten    --      0.8648                 0.7532                 1.8593

                      4                      5                      6
                      A                      A                      A
 Frequencies --    350.0054               506.8660               541.5156
 Red. masses --     12.0000                12.0000                12.0000
 Frc consts  --      0.8661                 1.8164                 2.0733
 IR Inten    --      1.1150                 2.0278                 2.2435

                      7                      8                      9
                      A                      A                      A
 Frequencies --    580.1334               624.9939               744.2937
 Red. masses --     12.0000                12.0000                12.0000
 Frc consts  --      2.3795                 2.7617                 3.9167
 IR Inten    --      4.2732                 0.0032                26.0180

                     10                     11                     12
                      A                      A                      A
 Frequencies --    890.8635               922.4233              1076.6915
 Red. masses --     12.0000                12.0000                12.0000
 Frc consts  --      5.6112                 6.0158                 8.1962
 IR Inten    --      7.5910                 0.0550                43.1172

                     13                     14                     15
                      A                      A                      A
 Frequencies --   1294.6296              1606.0110              1937.1259
 Red. masses --     12.0000                12.0000                12.0000
 Frc consts  --     11.8501                18.2360                26.5306
 IR Inten    --      3.9915                13.3641               730.7625

 - Thermochemistry -
 -------------------
 Temperature   298.150 Kelvin.  Pressure   1.00000 Atm.
 Atom     1 has atomic number  6 and mass  12.00000

 Molecular mass:    84.00000 amu.
 Principal axes and moments of inertia in atomic units:
                           1         2         3
     Eigenvalues --    56.082441170.278131226.36042
           X            1.00000  -0.00000   0.00000
           Y            0.00000   1.00000   0.00000
           Z           -0.00000  -0.00000   1.00000
 This molecule is an asymmetric top.
 Rotational symmetry number  1.
 Rotational temperatures (Kelvin)      1.54440     0.07401     0.07063
 Rotational constants (GHZ):          32.18015     1.54215     1.47162
 Zero-point vibrational energy      69552.8 (Joules/Mol)
                                   16.62351 (Kcal/Mol)
 Warning -- explicit consideration of   7 degrees of freedom as
           vibrations may cause significant error
 Vibrational temperatures:    171.01   189.06   435.24   503.58   729.27
          (Kelvin)            779.12   834.68   899.23  1070.87  1281.75
                             1327.16  1549.12  1862.68  2310.69  2787.09

 Zero-point correction=                           0.026491 (Hartree/Particle)
 Thermal correction to Energy=                    0.032454
 Thermal correction to Enthalpy=                  0.033398
 Thermal correction to Gibbs Free Energy=        -0.004227
 Sum of electronic and zero-point Energies=           -265.884741
 Sum of electronic and thermal Energies=              -265.878778
 Sum of electronic and thermal Enthalpies=            -265.877834
 Sum of electronic and thermal Free Energies=         -265.915460

                     E (Thermal)             CV                S
                      KCal/Mol        Cal/Mol-Kelvin    Cal/Mol-Kelvin
 Total                   20.365             19.755             79.190
 Electronic               0.000              0.000              2.755
 Translational            0.889              2.981             39.198
 Rotational               0.889              2.981             25.890
 Vibrational             18.588             13.794             11.346
 Vibration     1          0.609              1.934              3.119
 Vibration     2          0.612              1.922              2.925
 Vibration     3          0.694              1.669              1.403
 Vibration     4          0.727              1.575              1.166
 Vibration     5          0.862              1.235              0.641
 Vibration     6          0.897              1.158              0.562
 Vibration     7          0.937              1.074              0.485

 Optimization completed.
    -- Stationary point found.
 Normal termination of Gaussian 09 at Tue Nov  1 20:05:14 2016.
