 Gaussian 09, Revision E.01,
 Gaussian 09:  EM64L-G09RevE.01 30-Nov-2015

 -----------------------------------------
 #p b3lyp/6-311+G(3df) freq symmetry=Loose
 -----------------------------------------

 ---------
 b3lyp opt
 ---------
 Symbolic Z-matrix:
 Charge =  1 Multiplicity = 4

                         Standard orientation:
 ---------------------------------------------------------------------
 Center     Atomic      Atomic             Coordinates (Angstroms)
 Number     Number       Type             X           Y           Z
 ---------------------------------------------------------------------
      1          6           0        0.000201    1.665842    0.000293
      2          6           0       -1.817679   -0.290817   -0.001041
      3          6           0       -0.719427    0.510149   -0.000311
      4          6           0        0.719106    0.509683    0.000158
      5          6           0        1.816862   -0.291964    0.000308
      6          6           0       -2.760188   -1.051989    0.000802
      7          6           0        2.761126   -1.050904   -0.000209
 ---------------------------------------------------------------------

 SCF Done:  E(UB3LYP) =  -265.972581684     A.U. after   19 cycles

 The electronic state is 4-A.
 Alpha  occ. eigenvalues --  -10.51944 -10.51903 -10.49708 -10.49708 -10.49624
 Alpha  occ. eigenvalues --  -10.43340 -10.43339  -1.20655  -1.03485  -1.02703
 Alpha  occ. eigenvalues --   -0.91779  -0.90130  -0.73108  -0.68005  -0.66922
 Alpha  occ. eigenvalues --   -0.63129  -0.62823  -0.57421  -0.56812  -0.54981
 Alpha  occ. eigenvalues --   -0.52976  -0.49701
 Alpha virt. eigenvalues --   -0.34001  -0.28841  -0.24625  -0.18564  -0.14271
 Alpha virt. eigenvalues --   -0.13621  -0.10926  -0.09852  -0.09447  -0.09391
 Alpha virt. eigenvalues --   -0.07405  -0.06871  -0.05337  -0.05037  -0.04316

  Beta  occ. eigenvalues --  -10.51716 -10.51678 -10.48523 -10.47121 -10.47121
  Beta  occ. eigenvalues --  -10.43349 -10.43348  -1.19861  -1.02220  -1.01073
  Beta  occ. eigenvalues --   -0.89738  -0.88233  -0.70290  -0.66985  -0.66762
  Beta  occ. eigenvalues --   -0.55935  -0.52612  -0.52423  -0.50912
  Beta virt. eigenvalues --   -0.40509  -0.40375  -0.38306  -0.31825  -0.26510
  Beta virt. eigenvalues --   -0.21071  -0.15582  -0.13828  -0.11806  -0.10519
  Beta virt. eigenvalues --   -0.09407  -0.09074  -0.08841  -0.06867  -0.05859

 Mulliken charges and spin densities:
               1          2
     1  C    0.024174   0.598124
     2  C    0.251772  -0.200274
     3  C   -0.109285   0.016331
     4  C   -0.108377   0.014359
     5  C    0.252701  -0.199879
     6  C    0.344115   1.385796
     7  C    0.344901   1.385543
 Sum of Mulliken charges =   1.00000   3.00000

 Dipole moment (field-independent basis, Debye):
    X=              0.0007    Y=             -1.1959    Z=              0.0003  Tot=              1.1959
 Quadrupole moment (field-independent basis, Debye-Ang):
   XX=            -10.4851   YY=            -29.9926   ZZ=            -35.1310
   XY=              0.0005   XZ=             -0.0031   YZ=             -0.0012

  Exact polarizability: 119.129   0.019  78.348  -0.031  -0.006  38.939
 Approx polarizability: 228.027   0.043 166.428  -0.075  -0.020  54.125

                      1                      2                      3
                      A                      A                      A
 Frequencies --    101.2979               194.0743               201.3020
 Red. masses --     12.0000                12.0000                12.0000
 Frc consts  --      0.0725                 0.2663                 0.2865
 IR Inten    --      0.7879                 0.2735                 0.0000

                      4                      5                      6
                      A                      A                      A
 Frequencies --    217.8995               370.8831               460.0190
 Red. masses --     12.0000                12.0000                12.0000
 Frc consts  --      0.3357                 0.9725                 1.4962
 IR Inten    --      0.5929                 0.1261                 1.2838

                      7                      8                      9
                      A                      A                      A
 Frequencies --    586.7334               603.6488               726.0654
 Red. masses --     12.0000                12.0000                12.0000
 Frc consts  --      2.4340                 2.5763                 3.7272
 IR Inten    --      3.1491                 0.0000                 1.7535

                     10                     11                     12
                      A                      A                      A
 Frequencies --    824.5436              1044.5467              1445.2404
 Red. masses --     12.0000                12.0000                12.0000
 Frc consts  --      4.8068                 7.7141                14.7677
 IR Inten    --      0.1853                37.4623               299.9128

                     13                     14                     15
                      A                      A                      A
 Frequencies --   1755.4872              2165.7441              2182.3583
 Red. masses --     12.0000                12.0000                12.0000
 Frc consts  --     21.7885                33.1624                33.6731
 IR Inten    --     58.7562               504.1921               225.4745

 - Thermochemistry -
 -------------------
 Temperature   298.150 Kelvin.  Pressure   1.00000 Atm.
 Atom     1 has atomic number  6 and mass  12.00000

 Molecular mass:    84.00000 amu.
 Principal axes and moments of inertia in atomic units:
                           1         2         3
     Eigenvalues --   243.23067 980.561031223.79153
           X            1.00000  -0.00000   0.00000
           Y           -0.00000   1.00000   0.00000
           Z           -0.00000  -0.00000   1.00000
 This molecule is an asymmetric top.
 Rotational symmetry number  1.
 Rotational temperatures (Kelvin)      0.35610     0.08833     0.07077
 Rotational constants (GHZ):           7.41988     1.84052     1.47471
 Zero-point vibrational energy      77038.6 (Joules/Mol)
                                   18.41266 (Kcal/Mol)
 Warning -- explicit consideration of   8 degrees of freedom as
           vibrations may cause significant error
 Vibrational temperatures:    145.74   279.23   289.63   313.51   533.62
          (Kelvin)            661.86   844.18   868.51  1044.64  1186.33
                             1502.87  2079.38  2525.75  3116.02  3139.92

 Zero-point correction=                           0.029342 (Hartree/Particle)
 Thermal correction to Energy=                    0.035702
 Thermal correction to Enthalpy=                  0.036646
 Thermal correction to Gibbs Free Energy=        -0.002391
 Sum of electronic and zero-point Energies=           -265.943239
 Sum of electronic and thermal Energies=              -265.936879
 Sum of electronic and thermal Enthalpies=            -265.935935
 Sum of electronic and thermal Free Energies=         -265.974972

                     E (Thermal)             CV                S
                      KCal/Mol        Cal/Mol-Kelvin    Cal/Mol-Kelvin
 Total                   22.404             20.219             82.160
 Electronic               0.000              0.000              2.755
 Translational            0.889              2.981             39.198
 Rotational               0.889              2.981             27.170
 Vibrational             20.626             14.258             13.037
 Vibration     1          0.604              1.948              3.429
 Vibration     2          0.635              1.848              2.189
 Vibration     3          0.638              1.838              2.121
 Vibration     4          0.646              1.814              1.976
 Vibration     5          0.743              1.532              1.076
 Vibration     6          0.818              1.339              0.766
 Vibration     7          0.944              1.060              0.473
 Vibration     8          0.962              1.024              0.443

 Normal termination of Gaussian 09 at Tue Nov  1 20:05:09 2016.
