 Gaussian 09, Revision E.01,
 Gaussian 09:  EM64L-G09RevE.01 30-Nov-2015

 -----------------------------------------
 #p b3lyp/6-311+G(3df) freq symmetry=Loose
 -----------------------------------------

 ---------
 b3lyp opt
 ---------
 Symbolic Z-matrix:
 Charge =  2 Multiplicity = 1

                         Standard orientation:
 ---------------------------------------------------------------------
 Center     Atomic      Atomic             Coordinates (Angstroms)
 Number     Number       Type             X           Y           Z
 ---------------------------------------------------------------------
      1          6           0        2.578544    1.252779    0.000000
      2          6           0        1.173014    1.319499   -0.000000
      3          6           0       -0.587965   -0.631909    0.000000
      4          6           0        0.000000    0.612508   -0.000000
      5          6           0       -1.185732   -1.711435    0.000000
      6          6           0       -1.883496   -2.896018    0.000000
      7          6           0       -0.094366    2.054577   -0.000000
 ---------------------------------------------------------------------

 SCF Done:  E(RB3LYP) =  -265.390882333     A.U. after   16 cycles

 The electronic state is 1-A'.
 Alpha  occ. eigenvalues --  -10.79831 -10.77425 -10.75723 -10.74549 -10.72557
 Alpha  occ. eigenvalues --  -10.71828 -10.68074  -1.41444  -1.29279  -1.21393
 Alpha  occ. eigenvalues --   -1.19529  -1.11602  -0.96318  -0.88478  -0.86276
 Alpha  occ. eigenvalues --   -0.80734  -0.80175  -0.76739  -0.75667  -0.71626
 Alpha virt. eigenvalues --   -0.65199  -0.60424  -0.59189  -0.56484  -0.47656
 Alpha virt. eigenvalues --   -0.41978  -0.38192  -0.32532  -0.30712  -0.28373
 Alpha virt. eigenvalues --   -0.26979  -0.25355  -0.25091  -0.23624  -0.20807

 Mulliken charges:
               1
     1  C   -0.106285
     2  C    0.474961
     3  C   -0.428661
     4  C    0.452622
     5  C    1.674493
     6  C   -0.041252
     7  C   -0.025878
 Sum of Mulliken charges =   2.00000

 Dipole moment (field-independent basis, Debye):
    X=              0.7610    Y=             -1.5633    Z=              0.0000  Tot=              1.7387
 Quadrupole moment (field-independent basis, Debye-Ang):
   XX=            -11.6885   YY=             -6.0941   ZZ=            -30.9349
   XY=             21.1014   XZ=             -0.0000   YZ=              0.0000

  Exact polarizability:  98.952  45.057 115.028   0.000  -0.000  36.641
 Approx polarizability: 269.782 127.425 290.526   0.000  -0.000  58.914

                      1                      2                      3
                     A'                     A"                     A'
 Frequencies --     86.3257               107.1075               156.4625
 Red. masses --     12.0000                12.0000                12.0000
 Frc consts  --      0.0527                 0.0811                 0.1731
 IR Inten    --      1.0017                 3.2224                 0.0962

                      4                      5                      6
                     A"                     ?A                     ?A
 Frequencies --    217.0701               293.0760               294.5444
 Red. masses --     12.0000                12.0000                12.0000
 Frc consts  --      0.3331                 0.6073                 0.6134
 IR Inten    --      6.0823                 5.1607                 2.7168

                      7                      8                      9
                     A'                     A'                     A"
 Frequencies --    559.7412               577.7034               611.3679
 Red. masses --     12.0000                12.0000                12.0000
 Frc consts  --      2.2152                 2.3596                 2.6426
 IR Inten    --      4.0049                 5.8486                 0.0060

                     10                     11                     12
                     A'                     A'                     A'
 Frequencies --    762.1737               916.8095              1106.0789
 Red. masses --     12.0000                12.0000                12.0000
 Frc consts  --      4.1071                 5.9428                 8.6498
 IR Inten    --      2.8331                28.9903               948.8800

                     13                     14                     15
                     A'                     A'                     A'
 Frequencies --   1341.7614              1665.1649              2172.6425
 Red. masses --     12.0000                12.0000                12.0000
 Frc consts  --     12.7286                19.6041                33.3740
 IR Inten    --     81.8794               603.6111               985.6223

 - Thermochemistry -
 -------------------
 Temperature   298.150 Kelvin.  Pressure   1.00000 Atm.
 Atom     1 has atomic number  6 and mass  12.00000

 Molecular mass:    84.00000 amu.
 Principal axes and moments of inertia in atomic units:
                           1         2         3
     Eigenvalues --   156.265051255.956841412.22189
           X            0.61438   0.78901   0.00000
           Y            0.78901  -0.61438   0.00000
           Z            0.00000   0.00000   1.00000
 This molecule is an asymmetric top.
 Rotational symmetry number  1.
 Rotational temperatures (Kelvin)      0.55428     0.06896     0.06133
 Rotational constants (GHZ):          11.54923     1.43695     1.27794
 Zero-point vibrational energy      65005.3 (Joules/Mol)
                                   15.53663 (Kcal/Mol)
 Warning -- explicit consideration of   9 degrees of freedom as
           vibrations may cause significant error
 Vibrational temperatures:    124.20   154.10   225.11   312.32   421.67
          (Kelvin)            423.78   805.34   831.19   879.62  1096.60
                             1319.08  1591.40  1930.49  2395.80  3125.94

 Zero-point correction=                           0.024759 (Hartree/Particle)
 Thermal correction to Energy=                    0.031784
 Thermal correction to Enthalpy=                  0.032728
 Thermal correction to Gibbs Free Energy=        -0.006596
 Sum of electronic and zero-point Energies=           -265.366123
 Sum of electronic and thermal Energies=              -265.359099
 Sum of electronic and thermal Enthalpies=            -265.358154
 Sum of electronic and thermal Free Energies=         -265.397478

                     E (Thermal)             CV                S
                      KCal/Mol        Cal/Mol-Kelvin    Cal/Mol-Kelvin
 Total                   19.945             21.795             82.764
 Electronic               0.000              0.000              0.000
 Translational            0.889              2.981             39.198
 Rotational               0.889              2.981             27.119
 Vibrational             18.167             15.833             16.447
 Vibration     1          0.601              1.959              3.742
 Vibration     2          0.606              1.944              3.321
 Vibration     3          0.620              1.895              2.592
 Vibration     4          0.646              1.815              1.983
 Vibration     5          0.688              1.687              1.456
 Vibration     6          0.689              1.684              1.448
 Vibration     7          0.915              1.118              0.524
 Vibration     8          0.934              1.079              0.490
 Vibration     9          0.971              1.008              0.431

 Optimization completed.
    -- Stationary point found.

 1\1\GINC-BELVIS17\Freq\RB3LYP\6-311+G(3df)\C7(2+)\ROOT\23-Oct-2016\0\\
 #p b3lyp/6-311+G(3df) freq symmetry=Loose\\b3lyp opt\\2,1\C,2.863034,0
 .086967,0.117545\C,1.597886,0.628972,0.4101139999\C,-0.789309,-0.29208
 73522,-0.1915405517\C,0.241421264,0.48161901,0.2914191199\C,-1.7640535
 55,-0.9327249429,-0.5942294882\C,-2.872087786,-1.621140687,-1.02834588
 \C,0.723109077,1.648393973,0.995037801\\Version=EM64L-G09RevE.01\State
 =1-A'\HF=-265.3908823\RMSD=9.419e-09\RMSF=3.519e-05\ZeroPoint=0.024759
 2\Thermal=0.0317837\Dipole=0.0326688,-0.5878895,-0.3481834\DipoleDeriv

 Normal termination of Gaussian 09 at Sun Oct 23 12:37:20 2016.
