 Gaussian 09, Revision E.01,
 Gaussian 09:  EM64L-G09RevE.01 30-Nov-2015

 -----------------------------------------
 #p b3lyp/6-311+G(3df) freq symmetry=Loose
 -----------------------------------------

 ---------
 b3lyp opt
 ---------
 Symbolic Z-matrix:
 Charge =  2 Multiplicity = 3

                         Standard orientation:
 ---------------------------------------------------------------------
 Center     Atomic      Atomic             Coordinates (Angstroms)
 Number     Number       Type             X           Y           Z
 ---------------------------------------------------------------------
      1          6           0        0.000000    0.000000   -1.668581
      2          6           0        0.000000    0.000000   -3.077093
      3          6           0        0.000000   -0.813278   -0.526653
      4          6           0       -0.000000    0.813278   -0.526653
      5          6           0       -0.000000   -0.000000    0.626760
      6          6           0       -0.000000   -0.000000    1.968539
      7          6           0       -0.000000   -0.000000    3.203680
 ---------------------------------------------------------------------

 SCF Done:  E(UB3LYP) =  -265.389121374     A.U. after   24 cycles

 The electronic state is 3-B1.
 Alpha  occ. eigenvalues --  -10.78575 -10.77580 -10.77565 -10.76041 -10.75453
 Alpha  occ. eigenvalues --  -10.73164 -10.67961  -1.49178  -1.28701  -1.24692
 Alpha  occ. eigenvalues --   -1.16748  -1.06102  -1.05399  -0.93426  -0.92515
 Alpha  occ. eigenvalues --   -0.85164  -0.81115  -0.78715  -0.76661  -0.76118
 Alpha  occ. eigenvalues --   -0.73681
 Alpha virt. eigenvalues --   -0.60482  -0.57726  -0.55793  -0.50538  -0.42977
 Alpha virt. eigenvalues --   -0.42295  -0.30892  -0.30786  -0.29349  -0.25230
 Alpha virt. eigenvalues --   -0.25089  -0.23313  -0.22803  -0.20345  -0.19953

  Beta  occ. eigenvalues --  -10.78023 -10.77573 -10.77558 -10.75995 -10.72980
  Beta  occ. eigenvalues --  -10.72366 -10.67736  -1.48915  -1.27660  -1.22032
  Beta  occ. eigenvalues --   -1.14523  -1.05348  -1.05315  -0.93444  -0.91532
  Beta  occ. eigenvalues --   -0.78399  -0.77274  -0.75515  -0.74599
  Beta virt. eigenvalues --   -0.64282  -0.60776  -0.59768  -0.55455  -0.52863
  Beta virt. eigenvalues --   -0.49786  -0.39812  -0.38795  -0.30598  -0.28960
  Beta virt. eigenvalues --   -0.28060  -0.24904  -0.24784  -0.23280  -0.22491

 Mulliken charges and spin densities:
               1          2
     1  C    0.196579   0.150762
     2  C   -0.255424   0.252093
     3  C    1.084172  -0.009545
     4  C    1.084172  -0.009545
     5  C   -0.898176   0.040183
     6  C   -0.030457   0.140482
     7  C    0.819133   1.435571
 Sum of Mulliken charges =   2.00000   2.00000

 Dipole moment (field-independent basis, Debye):
    X=             -0.0000    Y=             -0.0000    Z=              1.2485  Tot=              1.2485
 Quadrupole moment (field-independent basis, Debye-Ang):
   XX=            -31.8597   YY=            -31.1328   ZZ=             18.6419
   XY=              0.0000   XZ=             -0.0000   YZ=              0.0000

  Exact polarizability:  32.532  -0.000  45.839   0.000  -0.000 160.177
 Approx polarizability:  49.431  -0.000 105.682  -0.000  -0.000 375.838

                      1                      2                      3
                     B1                     B2                     B2
 Frequencies --    112.7579               135.4318               225.0976
 Red. masses --     12.0000                12.0000                12.0000
 Frc consts  --      0.0899                 0.1297                 0.3582
 IR Inten    --      0.2521                 0.2137                 7.4308

                      4                      5                      6
                     B1                     B1                     B2
 Frequencies --    238.9894               448.6882               501.5403
 Red. masses --     12.0000                12.0000                12.0000
 Frc consts  --      0.4038                 1.4234                 1.7785
 IR Inten    --      6.4134                 0.8424                 1.7022

                      7                      8                      9
                     A1                     B1                     B2
 Frequencies --    561.4263               631.2492               720.4315
 Red. masses --     12.0000                12.0000                12.0000
 Frc consts  --      2.2285                 2.8173                 3.6696
 IR Inten    --      7.0838                 0.4400                36.7263

                     10                     11                     12
                     A1                     A1                     B2
 Frequencies --    883.2435               958.5542               992.7426
 Red. masses --     12.0000                12.0000                12.0000
 Frc consts  --      5.5156                 6.4963                 6.9679
 IR Inten    --      4.9629               285.5122                 1.9516

                     13                     14                     15
                     A1                     A1                     A1
 Frequencies --   1544.2040              1628.1091              2128.9934
 Red. masses --     12.0000                12.0000                12.0000
 Frc consts  --     16.8593                18.7412                32.0465
 IR Inten    --     36.3653               385.4334               472.4335

 - Thermochemistry -
 -------------------
 Temperature   298.150 Kelvin.  Pressure   1.00000 Atm.
 Atom     1 has atomic number  6 and mass  12.00000

 Molecular mass:    84.00000 amu.
 Principal axes and moments of inertia in atomic units:
                           1         2         3
     Eigenvalues --    56.687441171.549151228.23659
           X           -0.00000   0.00000   1.00000
           Y           -0.00000   1.00000  -0.00000
           Z            1.00000   0.00000   0.00000
 This molecule is an asymmetric top.
 Rotational symmetry number  2.
 Rotational temperatures (Kelvin)      1.52792     0.07393     0.07052
 Rotational constants (GHZ):          31.83670     1.54047     1.46938
 Zero-point vibrational energy      70050.1 (Joules/Mol)
                                   16.74237 (Kcal/Mol)
 Warning -- explicit consideration of   7 degrees of freedom as
           vibrations may cause significant error
 Vibrational temperatures:    162.23   194.86   323.86   343.85   645.56
          (Kelvin)            721.60   807.77   908.23  1036.54  1270.79
                             1379.14  1428.33  2221.76  2342.48  3063.14

 Zero-point correction=                           0.026681 (Hartree/Particle)
 Thermal correction to Energy=                    0.032982
 Thermal correction to Enthalpy=                  0.033926
 Thermal correction to Gibbs Free Energy=        -0.003493
 Sum of electronic and zero-point Energies=           -265.362441
 Sum of electronic and thermal Energies=              -265.356140
 Sum of electronic and thermal Enthalpies=            -265.355195
 Sum of electronic and thermal Free Energies=         -265.392614

                     E (Thermal)             CV                S
                      KCal/Mol        Cal/Mol-Kelvin    Cal/Mol-Kelvin
 Total                   20.696             20.337             78.754
 Electronic               0.000              0.000              2.183
 Translational            0.889              2.981             39.198
 Rotational               0.889              2.981             24.526
 Vibrational             18.919             14.375             12.847
 Vibration     1          0.607              1.939              3.221
 Vibration     2          0.613              1.918              2.867
 Vibration     3          0.650              1.803              1.918
 Vibration     4          0.657              1.781              1.810
 Vibration     5          0.808              1.364              0.800
 Vibration     6          0.857              1.247              0.654
 Vibration     7          0.917              1.115              0.521

 Normal termination of Gaussian 09 at Sun Oct 23 12:38:55 2016.
