 Gaussian 09, Revision E.01,
 Gaussian 09:  EM64L-G09RevE.01 30-Nov-2015

 -----------------------------------------
 #p b3lyp/6-311+G(3df) freq symmetry=Loose
 -----------------------------------------

 ---------
 b3lyp opt
 ---------
 Symbolic Z-matrix:
 Charge =  1 Multiplicity = 2

                         Standard orientation:
 ---------------------------------------------------------------------
 Center     Atomic      Atomic             Coordinates (Angstroms)
 Number     Number       Type             X           Y           Z
 ---------------------------------------------------------------------
      1          6           0       -3.828549   -0.194929    0.001279
      2          6           0        3.828595   -0.194810   -0.001301
      3          6           0        2.551222    0.086364    0.000659
      4          6           0       -2.551248    0.086493   -0.000974
      5          6           0       -1.275106    0.074792   -0.002185
      6          6           0        1.275099    0.074703    0.002293
      7          6           0       -0.000013    0.067387    0.000229
 ---------------------------------------------------------------------

 SCF Done:  E(UB3LYP) =  -266.072860862     A.U. after   26 cycles

 The electronic state is 2-A.
 Alpha  occ. eigenvalues --  -10.51349 -10.51348 -10.49926 -10.49926 -10.48849
 Alpha  occ. eigenvalues --  -10.45253 -10.45250  -1.10625  -1.06863  -1.02555
 Alpha  occ. eigenvalues --   -0.96684  -0.90501  -0.86043  -0.65732  -0.65085
 Alpha  occ. eigenvalues --   -0.59996  -0.59059  -0.54523  -0.54089  -0.52209
 Alpha  occ. eigenvalues --   -0.51121
 Alpha virt. eigenvalues --   -0.38633  -0.38367  -0.27591  -0.26611  -0.16535
 Alpha virt. eigenvalues --   -0.15760  -0.14104  -0.11037  -0.09877  -0.09697
 Alpha virt. eigenvalues --   -0.08439  -0.06165  -0.06063  -0.04791  -0.04732

  Beta  occ. eigenvalues --  -10.51647 -10.51645 -10.49494 -10.49494 -10.48340
  Beta  occ. eigenvalues --  -10.44843 -10.44841  -1.10155  -1.06306  -1.00865
  Beta  occ. eigenvalues --   -0.95787  -0.89782  -0.85641  -0.65056  -0.64374
  Beta  occ. eigenvalues --   -0.58920  -0.58102  -0.52938  -0.52157  -0.50320
  Beta virt. eigenvalues --   -0.44102  -0.38308  -0.36550  -0.26080  -0.24931
  Beta virt. eigenvalues --   -0.15701  -0.14750  -0.13704  -0.10780  -0.09728
  Beta virt. eigenvalues --   -0.09682  -0.07901  -0.06049  -0.06039  -0.04581

 Mulliken charges and spin densities:
               1          2
     1  C   -0.373549   0.295021
     2  C   -0.373913   0.294772
     3  C    1.198070   0.192525
     4  C    1.197472   0.192459
     5  C   -0.180138  -0.032600
     6  C   -0.180502  -0.032547
     7  C   -0.287440   0.090370
 Sum of Mulliken charges =   1.00000   1.00000

 Dipole moment (field-independent basis, Debye):
    X=             -0.0005    Y=              0.7373    Z=             -0.0007  Tot=              0.7373
 Quadrupole moment (field-independent basis, Debye-Ang):
   XX=            -12.7876   YY=            -34.7440   ZZ=            -35.7626
   XY=             -0.0012   XZ=              0.0173   YZ=             -0.0015

  Exact polarizability: 326.899   0.007  39.809  -0.061   0.013  48.533
 Approx polarizability: 933.729   0.012  59.741  -0.093   0.001  57.802

                      1                      2                      3
                      A                      A                      A
 Frequencies --     72.1358               126.4456               144.9696
 Red. masses --     12.0000                12.0000                12.0000
 Frc consts  --      0.0368                 0.1130                 0.1486
 IR Inten    --      3.2761                40.4583                14.4899

                      4                      5                      6
                      A                      A                      A
 Frequencies --    165.9178               248.8808               433.9255
 Red. masses --     12.0000                12.0000                12.0000
 Frc consts  --      0.1946                 0.4379                 1.3313
 IR Inten    --      0.0001                 3.4517                77.8776

                      7                      8                      9
                      A                      A                      A
 Frequencies --    528.9566               584.8328               607.8219
 Red. masses --     12.0000                12.0000                12.0000
 Frc consts  --      1.9782                 2.4182                 2.6121
 IR Inten    --      0.0000                 0.0005                 0.1731

                     10                     11                     12
                      A                      A                      A
 Frequencies --    633.2473              1077.1648              1474.3595
 Red. masses --     12.0000                12.0000                12.0000
 Frc consts  --      2.8352                 8.2034                15.3687
 IR Inten    --      0.2730                46.4348                13.8560

                     13                     14                     15
                      A                      A                      A
 Frequencies --   1579.9389              1892.5722              2034.0844
 Red. masses --     12.0000                12.0000                12.0000
 Frc consts  --     17.6487                25.3242                29.2529
 IR Inten    --      6.3906                50.1294                22.3574

 - Thermochemistry -
 -------------------
 Temperature   298.150 Kelvin.  Pressure   1.00000 Atm.
 Atom     1 has atomic number  6 and mass  12.00000

 Molecular mass:    84.00000 amu.
 Principal axes and moments of inertia in atomic units:
                           1         2         3
     Eigenvalues --     4.568891953.457131958.02475
           X            1.00000  -0.00000   0.00000
           Y            0.00000   1.00000   0.00000
           Z            0.00000  -0.00000   1.00000
 This molecule is an asymmetric top.
 Rotational symmetry number  1.
 Rotational temperatures (Kelvin)     18.95730     0.04434     0.04424
 Rotational constants (GHZ):         395.00655     0.92387     0.92172
 Zero-point vibrational energy      69414.8 (Joules/Mol)
                                   16.59054 (Kcal/Mol)
 Warning -- explicit consideration of   9 degrees of freedom as
           vibrations may cause significant error
 Vibrational temperatures:    103.79   181.93   208.58   238.72   358.08
          (Kelvin)            624.32   761.05   841.44   874.52   911.10
                             1549.80  2121.27  2273.18  2722.99  2926.59

 Zero-point correction=                           0.026439 (Hartree/Particle)
 Thermal correction to Energy=                    0.033488
 Thermal correction to Enthalpy=                  0.034432
 Thermal correction to Gibbs Free Energy=        -0.004451
 Sum of electronic and zero-point Energies=           -266.046422
 Sum of electronic and thermal Energies=              -266.039373
 Sum of electronic and thermal Enthalpies=            -266.038429
 Sum of electronic and thermal Free Energies=         -266.077312

                     E (Thermal)             CV                S
                      KCal/Mol        Cal/Mol-Kelvin    Cal/Mol-Kelvin
 Total                   21.014             21.503             81.836
 Electronic               0.000              0.000              1.377
 Translational            0.889              2.981             39.198
 Rotational               0.889              2.981             24.373
 Vibrational             19.237             15.542             16.888
 Vibration     1          0.598              1.967              4.094
 Vibration     2          0.611              1.927              2.999
 Vibration     3          0.616              1.908              2.737
 Vibration     4          0.624              1.884              2.481
 Vibration     5          0.662              1.765              1.738
 Vibration     6          0.795              1.396              0.846
 Vibration     7          0.884              1.186              0.590
 Vibration     8          0.942              1.064              0.476
 Vibration     9          0.967              1.015              0.436

 Normal termination of Gaussian 09 at Tue Nov  1 20:42:45 2016.
