 Gaussian 09, Revision E.01,
 Gaussian 09:  EM64L-G09RevE.01 30-Nov-2015

 ---------------------------------------------
 #p b3lyp/6-311+G(3df) opt freq symmetry=Loose
 ---------------------------------------------

 ---------
 b3lyp opt
 ---------
 Symbolic Z-matrix:
 Charge =  1 Multiplicity = 4

 SCF Done:  E(UB3LYP) =  -266.027169001     A.U. after   16 cycles
 SCF Done:  E(UB3LYP) =  -266.027261736     A.U. after   14 cycles
 SCF Done:  E(UB3LYP) =  -266.027265171     A.U. after   12 cycles
 Optimization completed.
    -- Stationary point found.
 Normal termination of Gaussian 09 at Mon Nov 14 16:29:51 2016.

 ----------------------------------------------------------------------
 #P Geom=AllCheck Guess=TCheck SCRF=Check GenChk UB3LYP/6-311+G(3df) Fr
 eq
 ----------------------------------------------------------------------

 Structure from the checkpoint file:  "/scratch/sergio/C7.q1.m4-9.com-2301896/Gau-26952.chk"
 ---------
 b3lyp opt
 ---------
 Charge =  1 Multiplicity = 4

                         Standard orientation:
 ---------------------------------------------------------------------
 Center     Atomic      Atomic             Coordinates (Angstroms)
 Number     Number       Type             X           Y           Z
 ---------------------------------------------------------------------
      1          6           0        0.000000    0.000000    1.690444
      2          6           0        0.000000    1.179902    0.942573
      3          6           0       -0.000000   -1.179902    0.942573
      4          6           0        0.000000   -1.330220   -0.312131
      5          6           0        0.000000    1.330220   -0.312131
      6          6           0        0.000000    0.712869   -1.475664
      7          6           0       -0.000000   -0.712869   -1.475664
 ---------------------------------------------------------------------

 SCF Done:  E(UB3LYP) =  -266.027265171     A.U. after    1 cycles

 The electronic state is 4-B2.
 Alpha  occ. eigenvalues --  -10.52913 -10.51671 -10.51631 -10.49065 -10.49063
 Alpha  occ. eigenvalues --  -10.47842 -10.47840  -1.16093  -1.07460  -1.05629
 Alpha  occ. eigenvalues --   -0.92675  -0.91877  -0.78972  -0.78828  -0.68798
 Alpha  occ. eigenvalues --   -0.66804  -0.60328  -0.57731  -0.57124  -0.56855
 Alpha  occ. eigenvalues --   -0.48966  -0.48829
 Alpha virt. eigenvalues --   -0.34541  -0.34384  -0.31572  -0.31209  -0.14756
 Alpha virt. eigenvalues --   -0.11802  -0.11638  -0.10203  -0.10160  -0.09809
 Alpha virt. eigenvalues --   -0.08190  -0.06105  -0.06042  -0.05955  -0.05855

  Beta  occ. eigenvalues --  -10.51208 -10.50124 -10.50085 -10.48122 -10.48117
  Beta  occ. eigenvalues --  -10.47978 -10.47978  -1.14403  -1.04821  -1.04381
  Beta  occ. eigenvalues --   -0.90241  -0.89881  -0.77104  -0.76840  -0.66012
  Beta  occ. eigenvalues --   -0.62927  -0.57525  -0.54847  -0.53912
  Beta virt. eigenvalues --   -0.44688  -0.32866  -0.32544  -0.32193  -0.31663
  Beta virt. eigenvalues --   -0.28627  -0.28535  -0.14525  -0.10267  -0.10002
  Beta virt. eigenvalues --   -0.09893  -0.09772  -0.08908  -0.07958  -0.05904

 Mulliken charges and spin densities:
               1          2
     1  C    0.021041   1.109661
     2  C    0.145490   0.516596
     3  C    0.145490   0.516596
     4  C    0.355237  -0.522113
     5  C    0.355237  -0.522113
     6  C   -0.011248   0.950687
     7  C   -0.011248   0.950687
 Sum of Mulliken charges =   1.00000   3.00000

 Dipole moment (field-independent basis, Debye):
    X=              0.0000    Y=             -0.0000    Z=             -0.0990  Tot=              0.0990
 Quadrupole moment (field-independent basis, Debye-Ang):
   XX=            -35.3628   YY=            -28.3632   ZZ=            -26.8702
   XY=              0.0000   XZ=             -0.0000   YZ=             -0.0000

  Exact polarizability:  36.417   0.000  67.157   0.000  -0.000  84.580
 Approx polarizability:  53.545   0.000 144.120  -0.000   0.000 231.634

                      1                      2                      3
                     B2                     B1                     A2
 Frequencies --    113.6865               306.5243               349.2557
 Red. masses --     12.0000                12.0000                12.0000
 Frc consts  --      0.0914                 0.6643                 0.8624
 IR Inten    --      0.0123                 4.1728                 0.0000

                      4                      5                      6
                     A1                     B1                     A2
 Frequencies --    453.0849               507.8456               508.9339
 Red. masses --     12.0000                12.0000                12.0000
 Frc consts  --      1.4514                 1.8235                 1.8313
 IR Inten    --     22.5239                 0.5522                 0.0000

                      7                      8                      9
                     A1                     B2                     B2
 Frequencies --    528.5144               599.2160               749.4690
 Red. masses --     12.0000                12.0000                12.0000
 Frc consts  --      1.9749                 2.5386                 3.9714
 IR Inten    --      5.3189                 0.2133                 0.1199

                     10                     11                     12
                     A1                     B2                     A1
 Frequencies --    992.7695              1130.2934              1156.6454
 Red. masses --     12.0000                12.0000                12.0000
 Frc consts  --      6.9683                 9.0326                 9.4587
 IR Inten    --      0.0960                13.2649                68.5624

                     13                     14                     15
                     A1                     B2                     A1
 Frequencies --   1415.1765              1664.4509              1810.2722
 Red. masses --     12.0000                12.0000                12.0000
 Frc consts  --     14.1597                19.5872                23.1696
 IR Inten    --      5.5959                23.4382                 0.0438

 - Thermochemistry -
 -------------------
 Temperature   298.150 Kelvin.  Pressure   1.00000 Atm.
 Atom     1 has atomic number  6 and mass  12.00000

 Molecular mass:    84.00000 amu.
 Principal axes and moments of inertia in atomic units:
                           1         2         3
     Eigenvalues --   314.52529 393.58172 708.10702
           X            0.00000   0.00000   1.00000
           Y            0.00000   1.00000   0.00000
           Z            1.00000   0.00000   0.00000
 This molecule is an asymmetric top.
 Rotational symmetry number  2.
 Rotational temperatures (Kelvin)      0.27538     0.22007     0.12232
 Rotational constants (GHZ):           5.73798     4.58543     2.54868
 Zero-point vibrational energy      73487.4 (Joules/Mol)
                                   17.56392 (Kcal/Mol)
 Warning -- explicit consideration of   8 degrees of freedom as
           vibrations may cause significant error
 Vibrational temperatures:    163.57   441.02   502.50   651.89   730.68
          (Kelvin)            732.24   760.41   862.14  1078.32  1428.37
                             1626.24  1664.15  2036.12  2394.77  2604.57

 Zero-point correction=                           0.027990 (Hartree/Particle)
 Thermal correction to Energy=                    0.033552
 Thermal correction to Enthalpy=                  0.034496
 Thermal correction to Gibbs Free Energy=        -0.001561
 Sum of electronic and zero-point Energies=           -265.999275
 Sum of electronic and thermal Energies=              -265.993713
 Sum of electronic and thermal Enthalpies=            -265.992769
 Sum of electronic and thermal Free Energies=         -266.028826

                     E (Thermal)             CV                S
                      KCal/Mol        Cal/Mol-Kelvin    Cal/Mol-Kelvin
 Total                   21.054             18.954             75.888
 Electronic               0.000              0.000              2.755
 Translational            0.889              2.981             39.198
 Rotational               0.889              2.981             24.597
 Vibrational             19.277             12.993              9.338
 Vibration     1          0.607              1.938              3.205
 Vibration     2          0.697              1.661              1.381
 Vibration     3          0.727              1.577              1.170
 Vibration     4          0.812              1.354              0.787
 Vibration     5          0.863              1.233              0.639
 Vibration     6          0.864              1.230              0.636
 Vibration     7          0.883              1.187              0.591
 Vibration     8          0.957              1.033              0.451

 Normal termination of Gaussian 09 at Mon Nov 14 16:45:22 2016.
