 Gaussian 09, Revision E.01,
 Gaussian 09:  EM64L-G09RevE.01 30-Nov-2015

 -----------------------------------------
 #p b3lyp/6-311+G(3df) freq symmetry=Loose
 -----------------------------------------

 ---------
 b3lyp opt
 ---------
 Symbolic Z-matrix:
 Charge =  2 Multiplicity = 3

                         Standard orientation:
 ---------------------------------------------------------------------
 Center     Atomic      Atomic             Coordinates (Angstroms)
 Number     Number       Type             X           Y           Z
 ---------------------------------------------------------------------
      1          6           0        1.546799   -0.319248    0.000000
      2          6           0       -0.000000    1.618525    0.000000
      3          6           0       -1.292965   -0.388932   -0.000000
      4          6           0       -1.262824    0.947171   -0.000000
      5          6           0       -0.677864   -1.510895   -0.000000
      6          6           0        0.593403   -1.225101   -0.000000
      7          6           0        1.093452    0.878478    0.000000
 ---------------------------------------------------------------------

 SCF Done:  E(UB3LYP) =  -265.489442124     A.U. after   22 cycles

 The electronic state is 3-A'.
 Alpha  occ. eigenvalues --  -10.79815 -10.77575 -10.76815 -10.76604 -10.75332
 Alpha  occ. eigenvalues --  -10.75032 -10.74783  -1.43117  -1.33228  -1.32333
 Alpha  occ. eigenvalues --   -1.19410  -1.14056  -1.04927  -1.03243  -0.93195
 Alpha  occ. eigenvalues --   -0.92111  -0.83049  -0.82243  -0.82139  -0.81362
 Alpha  occ. eigenvalues --   -0.73140
 Alpha virt. eigenvalues --   -0.58705  -0.58024  -0.57232  -0.56550  -0.52387
 Alpha virt. eigenvalues --   -0.35937  -0.34581  -0.33200  -0.26097  -0.25570
 Alpha virt. eigenvalues --   -0.25416  -0.23816  -0.21733  -0.20935  -0.20781

  Beta  occ. eigenvalues --  -10.79697 -10.76893 -10.75825 -10.75418 -10.74927
  Beta  occ. eigenvalues --  -10.74563 -10.74409  -1.42072  -1.32665  -1.29822
  Beta  occ. eigenvalues --   -1.17416  -1.13581  -1.04332  -1.01481  -0.91775
  Beta  occ. eigenvalues --   -0.89330  -0.82174  -0.79932  -0.79016
  Beta virt. eigenvalues --   -0.69062  -0.57987  -0.56865  -0.56203  -0.54915
  Beta virt. eigenvalues --   -0.53767  -0.49981  -0.34201  -0.33463  -0.33079
  Beta virt. eigenvalues --   -0.26044  -0.25434  -0.24934  -0.23526  -0.20910

 Mulliken charges and spin densities:
               1          2
     1  C    0.460360   0.507935
     2  C    0.101717   0.872545
     3  C    0.306598  -0.193496
     4  C    0.191515   0.954237
     5  C    0.343010   0.254487
     6  C    0.389838   0.084426
     7  C    0.206963  -0.480136
 Sum of Mulliken charges =   2.00000   2.00000

 Dipole moment (field-independent basis, Debye):
    X=              0.0336    Y=             -0.2256    Z=             -0.0000  Tot=              0.2281
 Quadrupole moment (field-independent basis, Debye-Ang):
   XX=            -16.2060   YY=            -15.8099   ZZ=            -32.4410
   XY=             -0.2696   XZ=             -0.0000   YZ=              0.0000

  Exact polarizability:  62.278  -2.914  70.549   0.000  -0.000  29.873
 Approx polarizability: 154.681 -19.379 192.282   0.000   0.000  43.562

                      1                      2                      3
                     A'                     A"                     A"
 Frequencies --    128.2291               363.9614               389.8277
 Red. masses --     12.0000                12.0000                12.0000
 Frc consts  --      0.1163                 0.9366                 1.0744
 IR Inten    --      2.4675                 0.1540                 2.5665

                      4                      5                      6
                     A"                     A'                     A'
 Frequencies --    468.2861               493.9833               511.9406
 Red. masses --     12.0000                12.0000                12.0000
 Frc consts  --      1.5504                 1.7253                 1.8530
 IR Inten    --      0.3477                12.7215                 0.6642

                      7                      8                      9
                     A'                     A"                     A'
 Frequencies --    555.3457               556.9012               996.4300
 Red. masses --     12.0000                12.0000                12.0000
 Frc consts  --      2.1805                 2.1927                 7.0198
 IR Inten    --     19.6013                 0.0478                14.9168

                     10                     11                     12
                     A'                     A'                     A'
 Frequencies --   1115.0397              1163.4027              1422.3394
 Red. masses --     12.0000                12.0000                12.0000
 Frc consts  --      8.7905                 9.5696                14.3034
 IR Inten    --     57.9086                23.3554                 0.9061

                     13                     14                     15
                     A'                     A'                     A'
 Frequencies --   1477.3920              1725.9885              1745.3551
 Red. masses --     12.0000                12.0000                12.0000
 Frc consts  --     15.4320                21.0624                21.5377
 IR Inten    --     39.1600                57.8932                14.5758

 - Thermochemistry -
 -------------------
 Temperature   298.150 Kelvin.  Pressure   1.00000 Atm.
 Atom     1 has atomic number  6 and mass  12.00000

 Molecular mass:    84.00000 amu.
 Principal axes and moments of inertia in atomic units:
                           1         2         3
     Eigenvalues --   328.20209 357.08571 685.28780
           X            0.10553   0.99442   0.00000
           Y            0.99442  -0.10553   0.00000
           Z           -0.00000  -0.00000   1.00000
 This molecule is an asymmetric top.
 Rotational symmetry number  1.
 Rotational temperatures (Kelvin)      0.26390     0.24256     0.12639
 Rotational constants (GHZ):           5.49887     5.05408     2.63355
 Zero-point vibrational energy      78441.7 (Joules/Mol)
                                   18.74801 (Kcal/Mol)
 Warning -- explicit consideration of   8 degrees of freedom as
           vibrations may cause significant error
 Vibrational temperatures:    184.49   523.66   560.87   673.76   710.73
          (Kelvin)            736.57   799.02   801.26  1433.64  1604.29
                             1673.87  2046.43  2125.63  2483.31  2511.17

 Zero-point correction=                           0.029877 (Hartree/Particle)
 Thermal correction to Energy=                    0.035217
 Thermal correction to Enthalpy=                  0.036161
 Thermal correction to Gibbs Free Energy=         0.000196
 Sum of electronic and zero-point Energies=           -265.459565
 Sum of electronic and thermal Energies=              -265.454225
 Sum of electronic and thermal Enthalpies=            -265.453281
 Sum of electronic and thermal Free Energies=         -265.489246

                     E (Thermal)             CV                S
                      KCal/Mol        Cal/Mol-Kelvin    Cal/Mol-Kelvin
 Total                   22.099             18.107             75.695
 Electronic               0.000              0.000              2.183
 Translational            0.889              2.981             39.198
 Rotational               0.889              2.981             25.888
 Vibrational             20.322             12.145              8.426
 Vibration     1          0.611              1.925              2.972
 Vibration     2          0.737              1.546              1.105
 Vibration     3          0.758              1.492              1.001
 Vibration     4          0.825              1.320              0.742
 Vibration     5          0.850              1.263              0.673
 Vibration     6          0.867              1.224              0.629
 Vibration     7          0.911              1.128              0.533
 Vibration     8          0.912              1.125              0.530

 Normal termination of Gaussian 09 at Tue Jul  5 23:22:53 2016.
