 Gaussian 09, Revision E.01,
 Gaussian 09:  EM64L-G09RevE.01 30-Nov-2015

 -----------------------------------------
 #p b3lyp/6-311+G(3df) freq symmetry=Loose
 -----------------------------------------

 ---------
 b3lyp opt
 ---------
 Symbolic Z-matrix:
 Charge =  1 Multiplicity = 4

                         Standard orientation:
 ---------------------------------------------------------------------
 Center     Atomic      Atomic             Coordinates (Angstroms)
 Number     Number       Type             X           Y           Z
 ---------------------------------------------------------------------
      1          6           0       -0.882815   -0.717183   -0.692108
      2          6           0       -0.882815   -0.717183    0.692108
      3          6           0       -0.000000    0.701232   -0.000000
      4          6           0        0.116054    0.101169    1.299558
      5          6           0        0.766718    0.265346    2.468857
      6          6           0        0.766718    0.265346   -2.468857
      7          6           0        0.116054    0.101169   -1.299558
 ---------------------------------------------------------------------

 SCF Done:  E(UB3LYP) =  -265.860524439     A.U. after   22 cycles

 The electronic state is 4-A".
 Alpha  occ. eigenvalues --  -10.57095 -10.54768 -10.54711 -10.52924 -10.52924
 Alpha  occ. eigenvalues --  -10.49625 -10.49624  -1.25888  -1.09387  -1.02540
 Alpha  occ. eigenvalues --   -0.93238  -0.93150  -0.77803  -0.75898  -0.72862
 Alpha  occ. eigenvalues --   -0.63436  -0.59340  -0.55982  -0.55244  -0.54261
 Alpha  occ. eigenvalues --   -0.50534  -0.50493
 Alpha virt. eigenvalues --   -0.39362  -0.37163  -0.33612  -0.29225  -0.22385
 Alpha virt. eigenvalues --   -0.19522  -0.14141  -0.10935  -0.10615  -0.09113
 Alpha virt. eigenvalues --   -0.08886  -0.06694  -0.06477  -0.06067  -0.05809

  Beta  occ. eigenvalues --  -10.56085 -10.53297 -10.53243 -10.52215 -10.52215
  Beta  occ. eigenvalues --  -10.49452 -10.49450  -1.24322  -1.07969  -0.99976
  Beta  occ. eigenvalues --   -0.91007  -0.89899  -0.76063  -0.73716  -0.68502
  Beta  occ. eigenvalues --   -0.59022  -0.56225  -0.54448  -0.53330
  Beta virt. eigenvalues --   -0.42573  -0.38705  -0.38607  -0.35833  -0.31545
  Beta virt. eigenvalues --   -0.30058  -0.27323  -0.19193  -0.15944  -0.13343
  Beta virt. eigenvalues --   -0.10330  -0.10132  -0.08758  -0.08286  -0.06399

 Mulliken charges and spin densities:
               1          2
     1  C   -0.123218   0.729944
     2  C   -0.123218   0.729944
     3  C   -0.275849   0.572999
     4  C    1.017473   0.095674
     5  C   -0.256330   0.387883
     6  C   -0.256330   0.387883
     7  C    1.017473   0.095674
 Sum of Mulliken charges =   1.00000   3.00000

 Dipole moment (field-independent basis, Debye):
    X=             -0.5868    Y=             -0.1213    Z=             -0.0000  Tot=              0.5992
 Quadrupole moment (field-independent basis, Debye-Ang):
   XX=            -34.7295   YY=            -34.0667   ZZ=            -30.0167
   XY=              1.6852   XZ=             -0.0000   YZ=             -0.0000

  Exact polarizability:  56.919  11.624  51.563  -0.000  -0.000 129.883
 Approx polarizability: 112.447  37.255 102.195   0.000   0.000 327.231

                      1                      2                      3
                     A'                     A'                     A"
 Frequencies --    117.2952               198.9237               235.1535
 Red. masses --     12.0000                12.0000                12.0000
 Frc consts  --      0.0973                 0.2798                 0.3910
 IR Inten    --      6.9706                15.8502                 0.9366

                      4                      5                      6
                     A"                     A'                     A"
 Frequencies --    238.9537               347.9908               424.6337
 Red. masses --     12.0000                12.0000                12.0000
 Frc consts  --      0.4037                 0.8562                 1.2749
 IR Inten    --      2.2706                 0.6234                 3.5394

                      7                      8                      9
                     A'                     A"                     A'
 Frequencies --    466.2961               580.4477               718.5938
 Red. masses --     12.0000                12.0000                12.0000
 Frc consts  --      1.5373                 2.3821                 3.6509
 IR Inten    --      2.4474                 8.6483                 5.6124

                     10                     11                     12
                     A'                     A"                     A"
 Frequencies --    903.6212               918.6376              1052.5714
 Red. masses --     12.0000                12.0000                12.0000
 Frc consts  --      5.7730                 5.9665                 7.8331
 IR Inten    --      4.0123                14.0285                55.1009

                     13                     14                     15
                     A'                     A"                     A'
 Frequencies --   1344.7263              1570.1861              1599.6475
 Red. masses --     12.0000                12.0000                12.0000
 Frc consts  --     12.7850                17.4315                18.0917
 IR Inten    --      7.1814               860.5899               109.4703

 - Thermochemistry -
 -------------------
 Temperature   298.150 Kelvin.  Pressure   1.00000 Atm.
 Atom     1 has atomic number  6 and mass  12.00000

 Molecular mass:    84.00000 amu.
 Principal axes and moments of inertia in atomic units:
                           1         2         3
     Eigenvalues --   190.39884 727.09677 879.69233
           X            0.00000   0.80722  -0.59026
           Y            0.00000   0.59026   0.80722
           Z            1.00000  -0.00000   0.00000
 This molecule is an asymmetric top.
 Rotational symmetry number  1.
 Rotational temperatures (Kelvin)      0.45491     0.11912     0.09846
 Rotational constants (GHZ):           9.47874     2.48212     2.05156
 Zero-point vibrational energy      64106.0 (Joules/Mol)
                                   15.32169 (Kcal/Mol)
 Warning -- explicit consideration of   8 degrees of freedom as
           vibrations may cause significant error
 Vibrational temperatures:    168.76   286.21   338.33   343.80   500.68
          (Kelvin)            610.95   670.90   835.13  1033.89  1300.11
                             1321.71  1514.41  1934.76  2259.14  2301.53

 Zero-point correction=                           0.024417 (Hartree/Particle)
 Thermal correction to Energy=                    0.030850
 Thermal correction to Enthalpy=                  0.031794
 Thermal correction to Gibbs Free Energy=        -0.006760
 Sum of electronic and zero-point Energies=           -265.836108
 Sum of electronic and thermal Energies=              -265.829675
 Sum of electronic and thermal Enthalpies=            -265.828730
 Sum of electronic and thermal Free Energies=         -265.867284

                     E (Thermal)             CV                S
                      KCal/Mol        Cal/Mol-Kelvin    Cal/Mol-Kelvin
 Total                   19.359             21.026             81.143
 Electronic               0.000              0.000              2.755
 Translational            0.889              2.981             39.198
 Rotational               0.889              2.981             26.302
 Vibrational             17.581             15.065             12.888
 Vibration     1          0.608              1.935              3.144
 Vibration     2          0.637              1.841              2.143
 Vibration     3          0.655              1.787              1.839
 Vibration     4          0.657              1.781              1.811
 Vibration     5          0.726              1.579              1.175
 Vibration     6          0.787              1.417              0.876
 Vibration     7          0.824              1.325              0.748
 Vibration     8          0.937              1.074              0.485

 Optimization completed.
    -- Stationary point found.
 Normal termination of Gaussian 09 at Tue Nov  1 20:25:22 2016.
