 Gaussian 09, Revision E.01,
 Gaussian 09:  EM64L-G09RevE.01 30-Nov-2015

 -----------------------------------------
 #p b3lyp/6-311+G(3df) freq symmetry=Loose
 -----------------------------------------

 ---------
 b3lyp opt
 ---------
 Symbolic Z-matrix:
 Charge =  2 Multiplicity = 3

                         Standard orientation:
 ---------------------------------------------------------------------
 Center     Atomic      Atomic             Coordinates (Angstroms)
 Number     Number       Type             X           Y           Z
 ---------------------------------------------------------------------
      1          6           0       -1.547482   -0.537179   -0.176102
      2          6           0        1.109262   -0.763257   -0.522715
      3          6           0        0.591193   -0.085011    1.087047
      4          6           0        0.051826    0.944763    0.186430
      5          6           0       -1.304858    0.729216   -0.226185
      6          6           0        1.289093    0.618115   -0.477642
      7          6           0       -0.189034   -0.906647    0.129167
 ---------------------------------------------------------------------

 SCF Done:  E(UB3LYP) =  -265.280660346     A.U. after   31 cycles

 The electronic state is 3-A.
 Alpha  occ. eigenvalues --  -10.84083 -10.83520 -10.80428 -10.80084 -10.79750
 Alpha  occ. eigenvalues --  -10.77592 -10.75436  -1.56737  -1.37357  -1.26323
 Alpha  occ. eigenvalues --   -1.20173  -1.10650  -1.07083  -1.00312  -0.96160
 Alpha  occ. eigenvalues --   -0.93369  -0.86375  -0.83144  -0.81852  -0.78576
 Alpha  occ. eigenvalues --   -0.77525
 Alpha virt. eigenvalues --   -0.63875  -0.61124  -0.59513  -0.51658  -0.49813
 Alpha virt. eigenvalues --   -0.49127  -0.34884  -0.30346  -0.29194  -0.28813
 Alpha virt. eigenvalues --   -0.24892  -0.24588  -0.24042  -0.23452  -0.22031

  Beta  occ. eigenvalues --  -10.83787 -10.83497 -10.79125 -10.78443 -10.78144
  Beta  occ. eigenvalues --  -10.77098 -10.76252  -1.55608  -1.36833  -1.25131
  Beta  occ. eigenvalues --   -1.18194  -1.09825  -1.05748  -0.98948  -0.93057
  Beta  occ. eigenvalues --   -0.91472  -0.84008  -0.80749  -0.79628
  Beta virt. eigenvalues --   -0.64662  -0.64058  -0.61939  -0.59953  -0.56977
  Beta virt. eigenvalues --   -0.49256  -0.48065  -0.46829  -0.33692  -0.29283
  Beta virt. eigenvalues --   -0.28688  -0.28103  -0.24624  -0.24125  -0.23656

 Mulliken charges and spin densities:
               1          2
     1  C    0.287093  -0.953151
     2  C    0.360418   0.804921
     3  C   -0.073605   0.610879
     4  C    0.465661  -0.238930
     5  C    0.240108   0.849383
     6  C    0.353063   0.801348
     7  C    0.367263   0.125550
 Sum of Mulliken charges =   2.00000   2.00000

 Dipole moment (field-independent basis, Debye):
    X=             -0.4834    Y=              0.2775    Z=             -0.1619  Tot=              0.5804
 Quadrupole moment (field-independent basis, Debye-Ang):
   XX=            -18.8551   YY=            -22.6128   ZZ=            -29.6118
   XY=             -0.3210   XZ=             -0.2526   YZ=              0.2598

  Exact polarizability:  64.317   0.650  49.096   0.021  -0.577  42.178
 Approx polarizability: 146.184   5.179 128.855  -2.691  -2.463  92.377

                      1                      2                      3
                      A                      A                      A
 Frequencies --    359.6270               366.6447               418.1150
 Red. masses --     12.0000                12.0000                12.0000
 Frc consts  --      0.9144                 0.9504                 1.2360
 IR Inten    --     11.5476                 0.9215                 0.4218

                      4                      5                      6
                      A                      A                      A
 Frequencies --    453.9285               489.8752               602.9310
 Red. masses --     12.0000                12.0000                12.0000
 Frc consts  --      1.4568                 1.6967                 2.5702
 IR Inten    --      2.9834                 3.9033                 0.6860

                      7                      8                      9
                      A                      A                      A
 Frequencies --    659.6186               834.2821               879.0299
 Red. masses --     12.0000                12.0000                12.0000
 Frc consts  --      3.0762                 4.9210                 5.4631
 IR Inten    --      0.6463                 5.7311                10.9035

                     10                     11                     12
                      A                      A                      A
 Frequencies --    887.8672              1044.7750              1133.7057
 Red. masses --     12.0000                12.0000                12.0000
 Frc consts  --      5.5735                 7.7175                 9.0872
 IR Inten    --     12.0253                 0.6976                 5.4451

                     13                     14                     15
                      A                      A                      A
 Frequencies --   1314.3452              1354.5032              1478.9030
 Red. masses --     12.0000                12.0000                12.0000
 Frc consts  --     12.2138                12.9715                15.4636
 IR Inten    --     35.9174                12.4076                22.7050

 - Thermochemistry -
 -------------------
 Temperature   298.150 Kelvin.  Pressure   1.00000 Atm.
 Atom     1 has atomic number  6 and mass  12.00000

 Molecular mass:    84.00000 amu.
 Principal axes and moments of inertia in atomic units:
                           1         2         3
     Eigenvalues --   228.12300 393.99532 466.42092
           X            1.00000  -0.00000   0.00000
           Y           -0.00000   1.00000   0.00000
           Z            0.00000  -0.00000   1.00000
 This molecule is an asymmetric top.
 Rotational symmetry number  1.
 Rotational temperatures (Kelvin)      0.37968     0.21983     0.18570
 Rotational constants (GHZ):           7.91126     4.58062     3.86934
 Zero-point vibrational energy      73439.7 (Joules/Mol)
                                   17.55250 (Kcal/Mol)
 Warning -- explicit consideration of   6 degrees of freedom as
           vibrations may cause significant error
 Vibrational temperatures:    517.42   527.52   601.57   653.10   704.82
          (Kelvin)            867.48   949.04  1200.34  1264.73  1277.44
                             1503.20  1631.15  1891.05  1948.83  2127.81

 Zero-point correction=                           0.027972 (Hartree/Particle)
 Thermal correction to Energy=                    0.032833
 Thermal correction to Enthalpy=                  0.033777
 Thermal correction to Gibbs Free Energy=        -0.000757
 Sum of electronic and zero-point Energies=           -265.252689
 Sum of electronic and thermal Energies=              -265.247828
 Sum of electronic and thermal Enthalpies=            -265.246884
 Sum of electronic and thermal Free Energies=         -265.281417

                     E (Thermal)             CV                S
                      KCal/Mol        Cal/Mol-Kelvin    Cal/Mol-Kelvin
 Total                   20.603             17.618             72.682
 Electronic               0.000              0.000              2.183
 Translational            0.889              2.981             39.198
 Rotational               0.889              2.981             25.242
 Vibrational             18.825             11.656              6.058
 Vibration     1          0.734              1.555              1.124
 Vibration     2          0.740              1.541              1.094
 Vibration     3          0.781              1.431              0.898
 Vibration     4          0.812              1.352              0.784
 Vibration     5          0.846              1.272              0.684
 Vibration     6          0.961              1.026              0.445

 Normal termination of Gaussian 09 at Wed Jul  6 00:07:13 2016.
