 Gaussian 09, Revision E.01,
 Gaussian 09:  EM64L-G09RevE.01 30-Nov-2015

 -------------------------------------------------
 #p b3lyp/6-311++G(3df,2p) opt freq symmetry=Loose
 -------------------------------------------------

 ---------
 b3lyp opt
 ---------
 Symbolic Z-matrix:
 Charge =  0 Multiplicity = 3

 SCF Done:  E(UB3LYP) =  -115.284677347     A.U. after   15 cycles
 Optimization completed.
    -- Stationary point found.
 Normal termination of Gaussian 09 at Tue Nov 22 17:43:23 2016.

 ----------------------------------------------------------------------
 #P Geom=AllCheck Guess=TCheck SCRF=Check GenChk UB3LYP/6-311++G(3df,2p
 ) Freq
 ----------------------------------------------------------------------

 Structure from the checkpoint file:  "/scratch/sergio/H2C3.q0.m3-3.com-2310361/Gau-18528.chk"
 ---------
 b3lyp opt
 ---------
 Charge =  0 Multiplicity = 3

                         Standard orientation:
 ---------------------------------------------------------------------
 Center     Atomic      Atomic             Coordinates (Angstroms)
 Number     Number       Type             X           Y           Z
 ---------------------------------------------------------------------
      1          6           0        1.250460   -0.040323    0.000000
      2          6           0        0.000000    0.467595    0.000000
      3          6           0       -1.029962   -0.434960    0.000000
      4          1           0       -1.169593   -1.501827    0.000000
      5          1           0       -0.153395    1.547957    0.000000
 ---------------------------------------------------------------------

 SCF Done:  E(UB3LYP) =  -115.284677347     A.U. after    1 cycles

 The electronic state is 3-A".
 Alpha  occ. eigenvalues --  -10.25433 -10.24273 -10.21197  -0.84629  -0.67859
 Alpha  occ. eigenvalues --   -0.56882  -0.48793  -0.37035  -0.33679  -0.27858
 Alpha  occ. eigenvalues --   -0.22558
 Alpha virt. eigenvalues --   -0.11624   0.00018   0.00187   0.00706   0.05123
 Alpha virt. eigenvalues --    0.05804   0.07869   0.08258   0.09559   0.09656
 Alpha virt. eigenvalues --    0.11154   0.12070   0.12082   0.13079   0.13807

  Beta  occ. eigenvalues --  -10.24413 -10.21948 -10.21528  -0.82628  -0.62913
  Beta  occ. eigenvalues --   -0.55026  -0.47376  -0.33537  -0.31003
  Beta virt. eigenvalues --   -0.13800  -0.09138  -0.07808   0.00196   0.01006
  Beta virt. eigenvalues --    0.02047   0.05656   0.06611   0.08343   0.08916
  Beta virt. eigenvalues --    0.09711   0.10652   0.11656   0.12390   0.13138

 Mulliken charges and spin densities:
               1          2
     1  C   -0.479894   0.674551
     2  C    0.432800  -0.323688
     3  C   -0.327564   1.569942
     4  H    0.227082   0.007498
     5  H    0.147576   0.071697
 Sum of Mulliken charges =  -0.00000   2.00000

 Dipole moment (field-independent basis, Debye):
    X=             -1.7009    Y=              0.5788    Z=             -0.0000  Tot=              1.7967
 Quadrupole moment (field-independent basis, Debye-Ang):
   XX=            -22.4152   YY=            -14.4991   ZZ=            -20.2713
   XY=              1.9133   XZ=              0.0000   YZ=              0.0000

  Exact polarizability:  51.757   3.924  34.295   0.000  -0.000  27.745
 Approx polarizability:  89.385   8.913  49.088  -0.000   0.000  35.868

                      1                      2                      3
                     A'                     A"                     A"
 Frequencies --    231.9245               353.6591               697.3490
 Red. masses --      6.3725                 1.4950                 1.2891
 Frc consts  --      0.2020                 0.1102                 0.3693
 IR Inten    --     10.8901                41.7038                29.7800

                      4                      5                      6
                     A'                     A'                     A'
 Frequencies --    745.0188              1054.6004              1221.4260
 Red. masses --      1.1333                 1.2934                 6.7345
 Frc consts  --      0.3706                 0.8476                 5.9196
 IR Inten    --     70.2038                 1.0486                11.9471

                      7                      8                      9
                     A'                     A'                     A'
 Frequencies --   1320.8983              3068.6457              3263.4074
 Red. masses --      5.1849                 1.0844                 1.0939
 Frc consts  --      5.3301                 6.0161                 6.8639
 IR Inten    --     26.7057                12.3319                 6.0908

 - Thermochemistry -
 -------------------
 Temperature   298.150 Kelvin.  Pressure   1.00000 Atm.
 Atom     1 has atomic number  6 and mass  12.00000

 Molecular mass:    38.01565 amu.
 Principal axes and moments of inertia in atomic units:
                           1         2         3
     Eigenvalues --    28.57753 123.02216 151.59969
           X            0.96930  -0.24589   0.00000
           Y            0.24589   0.96930   0.00000
           Z            0.00000  -0.00000   1.00000
 This molecule is an asymmetric top.
 Rotational symmetry number  1.
 Rotational temperatures (Kelvin)      3.03084     0.70405     0.57133
 Rotational constants (GHZ):          63.15247    14.67005    11.90465
 Zero-point vibrational energy      71518.3 (Joules/Mol)
                                   17.09329 (Kcal/Mol)
 Warning -- explicit consideration of   2 degrees of freedom as
           vibrations may cause significant error
 Vibrational temperatures:    333.69   508.84  1003.33  1071.91  1517.33
          (Kelvin)           1757.36  1900.48  4415.09  4695.31

 Zero-point correction=                           0.027240 (Hartree/Particle)
 Thermal correction to Energy=                    0.031207
 Thermal correction to Enthalpy=                  0.032151
 Thermal correction to Gibbs Free Energy=         0.001913
 Sum of electronic and zero-point Energies=           -115.257437
 Sum of electronic and thermal Energies=              -115.253470
 Sum of electronic and thermal Enthalpies=            -115.252526
 Sum of electronic and thermal Free Energies=         -115.282764

                     E (Thermal)             CV                S
                      KCal/Mol        Cal/Mol-Kelvin    Cal/Mol-Kelvin
 Total                   19.583             11.552             63.641
 Electronic               0.000              0.000              2.183
 Translational            0.889              2.981             36.835
 Rotational               0.889              2.981             20.905
 Vibrational             17.805              5.591              3.718
 Vibration     1          0.653              1.792              1.864
 Vibration     2          0.730              1.568              1.150

 Optimization completed.
    -- Stationary point found.
 Normal termination of Gaussian 09 at Tue Nov 22 17:45:24 2016.
