 Gaussian 09, Revision E.01,
 Gaussian 09:  EM64L-G09RevE.01 30-Nov-2015

 -------------------------------------------------
 #p b3lyp/6-311++G(3df,2p) opt freq symmetry=Loose
 -------------------------------------------------

 ---------
 b3lyp opt
 ---------
 Symbolic Z-matrix:
 Charge =  0 Multiplicity = 1

 SCF Done:  E(RB3LYP) =  -115.375415286     A.U. after   11 cycles
 Optimization completed.
    -- Stationary point found.
 Normal termination of Gaussian 09 at Tue Nov 22 14:23:01 2016.

 ----------------------------------------------------------------------
 #P Geom=AllCheck Guess=TCheck SCRF=Check GenChk RB3LYP/6-311++G(3df,2p
 ) Freq
 ----------------------------------------------------------------------

 Structure from the checkpoint file:  "/scratch/sergio/H2C3.q0.m1-2.com-2309702/Gau-9112.chk"
 ---------
 b3lyp opt
 ---------
 Charge =  0 Multiplicity = 1

                         Standard orientation:
 ---------------------------------------------------------------------
 Center     Atomic      Atomic             Coordinates (Angstroms)
 Number     Number       Type             X           Y           Z
 ---------------------------------------------------------------------
      1          6           0        0.000000   -0.000000   -1.119000
      2          6           0       -0.000000    0.000000    0.201000
      3          6           0       -0.000000    0.000000    1.481000
      4          1           0        0.000000    0.924000   -1.689000
      5          1           0       -0.000000   -0.924000   -1.689000
 ---------------------------------------------------------------------

 SCF Done:  E(RB3LYP) =  -115.375415286     A.U. after    1 cycles

 The electronic state is 1-A1.
 Alpha  occ. eigenvalues --  -10.26628 -10.22013 -10.19323  -0.82802  -0.71889
 Alpha  occ. eigenvalues --   -0.54521  -0.50227  -0.35704  -0.29587  -0.28541
 Alpha virt. eigenvalues --   -0.15570  -0.01638  -0.00093   0.03262   0.03571
 Alpha virt. eigenvalues --    0.03806   0.07366   0.08790   0.09063   0.09197
 Alpha virt. eigenvalues --    0.10038   0.11536   0.12485   0.13135   0.16006

 Mulliken charges:
               1
     1  C   -0.599968
     2  C    0.826511
     3  C   -0.606826
     4  H    0.190142
     5  H    0.190142
 Sum of Mulliken charges =  -0.00000

 Dipole moment (field-independent basis, Debye):
    X=             -0.0000    Y=             -0.0000    Z=             -4.3952  Tot=              4.3952
 Quadrupole moment (field-independent basis, Debye-Ang):
   XX=            -18.1166   YY=            -18.1073   ZZ=            -20.7098
   XY=              0.0000   XZ=              0.0000   YZ=             -0.0000

  Exact polarizability:  26.127   0.000  27.806   0.000  -0.000  58.938
 Approx polarizability:  37.402   0.000  37.416   0.000   0.000 111.653

                      1                      2                      3
                     B1                     B2                     B1
 Frequencies --    234.7726               290.1022              1049.3500
 Red. masses --      6.0716                 3.7172                 1.3508
 Frc consts  --      0.1972                 0.1843                 0.8763
 IR Inten    --      3.2496                 1.3528                19.2123

                      4                      5                      6
                     B2                     A1                     A1
 Frequencies --   1053.6120              1149.3268              1490.2349
 Red. masses --      1.4186                 3.8332                 1.2447
 Frc consts  --      0.9278                 2.9833                 1.6286
 IR Inten    --      3.1250                 0.5219                 8.8326

                      7                      8                      9
                     A1                     A1                     B2
 Frequencies --   2040.5854              3098.5887              3174.7138
 Red. masses --     10.7941                 1.0571                 1.1165
 Frc consts  --     26.4818                 5.9799                 6.6300
 IR Inten    --    298.3569                 8.5797                 0.0884

 - Thermochemistry -
 -------------------
 Temperature   298.150 Kelvin.  Pressure   1.00000 Atm.
 Atom     1 has atomic number  6 and mass  12.00000

 Molecular mass:    38.01565 amu.
 Principal axes and moments of inertia in atomic units:
                           1         2         3
     Eigenvalues --     6.14549 168.86023 175.00572
           X            0.00000   0.00000   1.00000
           Y            0.00000   1.00000   0.00000
           Z            1.00000   0.00000   0.00000
 This molecule is an asymmetric top.
 Rotational symmetry number  2.
 Rotational temperatures (Kelvin)     14.09387     0.51293     0.49492
 Rotational constants (GHZ):         293.66901    10.68778    10.31247
 Zero-point vibrational energy      81234.1 (Joules/Mol)
                                   19.41542 (Kcal/Mol)
 Warning -- explicit consideration of   2 degrees of freedom as
           vibrations may cause significant error
 Vibrational temperatures:    337.78   417.39  1509.78  1515.91  1653.62
          (Kelvin)           2144.11  2935.94  4458.17  4567.70

 Zero-point correction=                           0.030940 (Hartree/Particle)
 Thermal correction to Energy=                    0.034800
 Thermal correction to Enthalpy=                  0.035745
 Thermal correction to Gibbs Free Energy=         0.007795
 Sum of electronic and zero-point Energies=           -115.344475
 Sum of electronic and thermal Energies=              -115.340615
 Sum of electronic and thermal Enthalpies=            -115.339671
 Sum of electronic and thermal Free Energies=         -115.367620

                     E (Thermal)             CV                S
                      KCal/Mol        Cal/Mol-Kelvin    Cal/Mol-Kelvin
 Total                   21.838             10.418             58.825
 Electronic               0.000              0.000              0.000
 Translational            0.889              2.981             36.835
 Rotational               0.889              2.981             18.458
 Vibrational             20.060              4.456              3.532
 Vibration     1          0.655              1.788              1.842
 Vibration     2          0.686              1.692              1.473

 Optimization completed.
    -- Stationary point found.
 Normal termination of Gaussian 09 at Tue Nov 22 14:24:18 2016.
