 Gaussian 09, Revision E.01,
 Gaussian 09:  EM64L-G09RevE.01 30-Nov-2015

 -------------------------------------------------
 #p b3lyp/6-311++G(3df,2p) opt freq symmetry=Loose
 -------------------------------------------------

 -------------------
 Title Card Required
 -------------------
 Symbolic Z-matrix:
 Charge =  0 Multiplicity = 1

 SCF Done:  E(RB3LYP) =  -115.360893330     A.U. after   10 cycles
 SCF Done:  E(RB3LYP) =  -115.360900961     A.U. after    8 cycles
 SCF Done:  E(RB3LYP) =  -115.360902009     A.U. after    7 cycles
 Optimization completed.
    -- Stationary point found.
 Normal termination of Gaussian 09 at Tue Nov 22 17:35:00 2016.

 ----------------------------------------------------------------------
 #P Geom=AllCheck Guess=TCheck SCRF=Check GenChk RB3LYP/6-311++G(3df,2p
 ) Freq
 ----------------------------------------------------------------------

 Structure from the checkpoint file:  "/scratch/sergio/H2C3.q0.m1-3.com-2310216/Gau-17476.chk"
 -------------------
 Title Card Required
 -------------------
 Charge =  0 Multiplicity = 1

                         Standard orientation:
 ---------------------------------------------------------------------
 Center     Atomic      Atomic             Coordinates (Angstroms)
 Number     Number       Type             X           Y           Z
 ---------------------------------------------------------------------
      1          6           0        0.000000    0.000000    0.000000
      2          6           0        0.000000    1.283862    0.000000
      3          6           0       -0.000000   -1.283862   -0.000000
      4          1           0        0.835465    1.968544    0.000000
      5          1           0       -0.835465   -1.968544   -0.000000
 ---------------------------------------------------------------------

 SCF Done:  E(RB3LYP) =  -115.360902009     A.U. after    1 cycles

 The electronic state is 1-AG.
 Alpha  occ. eigenvalues --  -10.22672 -10.22670 -10.21488  -0.81938  -0.71710
 Alpha  occ. eigenvalues --   -0.53507  -0.49972  -0.35604  -0.34743  -0.23777
 Alpha virt. eigenvalues --   -0.14863  -0.01817  -0.00234   0.01695   0.03550
 Alpha virt. eigenvalues --    0.05880   0.06091   0.08235   0.09363   0.09613
 Alpha virt. eigenvalues --    0.11575   0.11611   0.13092   0.14878   0.15711

 Mulliken charges:
               1
     1  C    0.783858
     2  C   -0.609540
     3  C   -0.609540
     4  H    0.217611
     5  H    0.217611
 Sum of Mulliken charges =  -0.00000

 Dipole moment (field-independent basis, Debye):
    X=              0.0000    Y=             -0.0000    Z=             -0.0000  Tot=              0.0000
 Quadrupole moment (field-independent basis, Debye-Ang):
   XX=            -19.1103   YY=            -16.9578   ZZ=            -17.9312
   XY=              5.5045   XZ=              0.0000   YZ=              0.0000

  Exact polarizability:  28.903  -1.281  68.283  -0.000  -0.000  24.232
 Approx polarizability:  37.755  -6.474 145.191   0.000  -0.000  33.842

                      1                      2                      3
                     BU                     AU                     BU
 Frequencies --    219.1358               287.1256               510.5696
 Red. masses --      1.1279                 3.6956                11.1797
 Frc consts  --      0.0319                 0.1795                 1.7171
 IR Inten    --    552.9793                 1.4409                36.5501

                      4                      5                      6
                     AG                     AU                     AG
 Frequencies --    737.5043               956.5296              1227.1307
 Red. masses --      1.1792                 1.3214                 7.2837
 Frc consts  --      0.3779                 0.7123                 6.4623
 IR Inten    --      0.0000                10.2961                 0.0000

                      7                      8                      9
                     BU                     AG                     BU
 Frequencies --   1843.8683              3224.5284              3229.0657
 Red. masses --      5.8021                 1.0981                 1.1033
 Frc consts  --     11.6225                 6.7269                 6.7781
 IR Inten    --     19.3888                 0.0000                 6.9495

 - Thermochemistry -
 -------------------
 Temperature   298.150 Kelvin.  Pressure   1.00000 Atm.
 Atom     1 has atomic number  6 and mass  12.00000

 Molecular mass:    38.01565 amu.
 Principal axes and moments of inertia in atomic units:
                           1         2         3
     Eigenvalues --     4.17481 170.01152 174.18634
           X            0.07157   0.99744   0.00000
           Y            0.99744  -0.07157   0.00000
           Z            0.00000   0.00000   1.00000
 This molecule is an asymmetric top.
 Rotational symmetry number  2.
 Rotational temperatures (Kelvin)     20.74676     0.50946     0.49725
 Rotational constants (GHZ):         432.29277    10.61541    10.36098
 Zero-point vibrational energy      73184.3 (Joules/Mol)
                                   17.49147 (Kcal/Mol)
 Warning -- explicit consideration of   3 degrees of freedom as
           vibrations may cause significant error
 Vibrational temperatures:    315.29   413.11   734.59  1061.10  1376.23
          (Kelvin)           1765.57  2652.91  4639.37  4645.90

 Zero-point correction=                           0.027874 (Hartree/Particle)
 Thermal correction to Energy=                    0.032049
 Thermal correction to Enthalpy=                  0.032994
 Thermal correction to Gibbs Free Energy=         0.004763
 Sum of electronic and zero-point Energies=           -115.333028
 Sum of electronic and thermal Energies=              -115.328853
 Sum of electronic and thermal Enthalpies=            -115.327908
 Sum of electronic and thermal Free Energies=         -115.356139

                     E (Thermal)             CV                S
                      KCal/Mol        Cal/Mol-Kelvin    Cal/Mol-Kelvin
 Total                   20.111             12.094             59.416
 Electronic               0.000              0.000              0.000
 Translational            0.889              2.981             36.835
 Rotational               0.889              2.981             18.076
 Vibrational             18.334              6.132              4.505
 Vibration     1          0.647              1.812              1.966
 Vibration     2          0.684              1.698              1.491
 Vibration     3          0.866              1.227              0.632

 Optimization completed.
    -- Stationary point found.
 Normal termination of Gaussian 09 at Tue Nov 22 17:35:56 2016.
