 Gaussian 09, Revision D.01,
 Gaussian 09:  ES64L-G09RevD.01 24-Apr-2013

 ---------------------------
 #p b3lyp/6-311++g(d,p) freq
 ---------------------------

 ---
 min
 ---
 Symbolic Z-matrix:
 Charge =  0 Multiplicity = 3

                         Standard orientation:
 ---------------------------------------------------------------------
 Center     Atomic      Atomic             Coordinates (Angstroms)
 Number     Number       Type             X           Y           Z
 ---------------------------------------------------------------------
      1          6           0        0.000000    0.000000    0.000000
 ---------------------------------------------------------------------

 SCF Done:  E(UB3LYP) =  -37.8572670751     A.U. after    7 cycles

 Unable to determine electronic state:  an orbital has unidentified symmetry.
 Alpha  occ. eigenvalues --  -10.30497  -0.59061  -0.26963  -0.26963
 Alpha virt. eigenvalues --   -0.15820   0.03387   0.07002   0.07002   0.07753
 Alpha virt. eigenvalues --    0.51306   0.51306   0.53155   0.62137   1.25985
 Alpha virt. eigenvalues --    1.25985   1.26793   1.26793   1.28285   2.60654

  Beta  occ. eigenvalues --  -10.27573  -0.48148
  Beta virt. eigenvalues --   -0.12887  -0.08532  -0.08532   0.04310   0.08072
  Beta virt. eigenvalues --    0.09002   0.09002   0.54643   0.57648   0.57648
  Beta virt. eigenvalues --    0.66980   1.32783   1.34110   1.34110   1.38089

 Mulliken charges and spin densities:
               1          2
     1  C    0.000000   2.000000
 Sum of Mulliken charges =   0.00000   2.00000

 Dipole moment (field-independent basis, Debye):
    X=              0.0000    Y=              0.0000    Z=              0.0000  Tot=              0.0000
 Quadrupole moment (field-independent basis, Debye-Ang):
   XX=             -6.9936   YY=             -6.9936   ZZ=             -4.9517
   XY=             -0.0000   XZ=              0.0000   YZ=             -0.0000

  Exact polarizability:   9.444  -0.000   9.444  -0.000  -0.000   7.591
 Approx polarizability:   8.842  -0.000   8.842  -0.000  -0.000  11.011

 - Thermochemistry -
 -------------------
 Temperature   298.150 Kelvin.  Pressure   1.00000 Atm.
 Atom     1 has atomic number  6 and mass  12.00000
 Molecular mass:    12.00000 amu.
 Zero-point vibrational energy          0.0 (Joules/Mol)
                                    0.00000 (Kcal/Mol)
 Vibrational temperatures:
          (Kelvin)

 Zero-point correction=                           0.000000 (Hartree/Particle)
 Thermal correction to Energy=                    0.001416
 Thermal correction to Enthalpy=                  0.002360
 Thermal correction to Gibbs Free Energy=        -0.014545
 Sum of electronic and zero-point Energies=            -37.857267
 Sum of electronic and thermal Energies=               -37.855851
 Sum of electronic and thermal Enthalpies=             -37.854907
 Sum of electronic and thermal Free Energies=          -37.871812

                     E (Thermal)             CV                S
                      KCal/Mol        Cal/Mol-Kelvin    Cal/Mol-Kelvin
 Total                    0.889              2.981             35.581
 Electronic               0.000              0.000              2.183
 Translational            0.889              2.981             33.398
 Rotational               0.000              0.000              0.000
 Vibrational              0.000              0.000              0.000

 Optimization completed.
    -- Stationary point found.
 Normal termination of Gaussian 09 at Sun Mar  4 20:53:32 2018.
