 Gaussian 09, Revision D.01,
 Gaussian 09:  ES64L-G09RevD.01 24-Apr-2013

 ---------------------------
 #p b3lyp/6-311++g(d,p) freq
 ---------------------------

 ---
 min
 ---
 Symbolic Z-matrix:
 Charge =  1 Multiplicity = 4

                         Standard orientation:
 ---------------------------------------------------------------------
 Center     Atomic      Atomic             Coordinates (Angstroms)
 Number     Number       Type             X           Y           Z
 ---------------------------------------------------------------------
      1          6           0        0.000000    0.000000    0.703133
      2          6           0        0.000000    0.000000   -0.703133
 ---------------------------------------------------------------------

 SCF Done:  E(UB3LYP) =  -75.5003626548     A.U. after    8 cycles

 The electronic state is 4-SGG.
 Alpha  occ. eigenvalues --  -10.71220 -10.71158  -1.20271  -0.82705  -0.71691
 Alpha  occ. eigenvalues --   -0.71691  -0.70928
 Alpha virt. eigenvalues --   -0.42602  -0.42602  -0.16612  -0.12656  -0.12010
 Alpha virt. eigenvalues --   -0.12010  -0.08066  -0.05160  -0.05160  -0.03882
 Alpha virt. eigenvalues --    0.01821   0.21424   0.23089   0.23089   0.29470

  Beta  occ. eigenvalues --  -10.68678 -10.68646  -1.10076  -0.70668
  Beta virt. eigenvalues --   -0.55237  -0.55237  -0.54048  -0.32804  -0.32804
  Beta virt. eigenvalues --   -0.15227  -0.11591  -0.11070  -0.11070  -0.07520
  Beta virt. eigenvalues --   -0.04606  -0.04606   0.00658   0.04090   0.24147

 Mulliken charges and spin densities:
               1          2
     1  C    0.500000   1.500000
     2  C    0.500000   1.500000
 Sum of Mulliken charges =   1.00000   3.00000

 Dipole moment (field-independent basis, Debye):
    X=              0.0000    Y=              0.0000    Z=              0.0000  Tot=              0.0000
 Quadrupole moment (field-independent basis, Debye-Ang):
   XX=             -8.6081   YY=             -8.6081   ZZ=             -7.1959
   XY=              0.0000   XZ=             -0.0000   YZ=             -0.0000

  Exact polarizability:   9.846   0.000   9.846   0.000   0.000  34.386
 Approx polarizability:  13.698  -0.000  13.698  -0.000  -0.000  72.898

                      1
                     SGG
 Frequencies --   1340.0611
 Red. masses --     12.0000
 Frc consts  --     12.6964
 IR Inten    --      0.0000

 - Thermochemistry -
 -------------------
 Temperature   298.150 Kelvin.  Pressure   1.00000 Atm.
 Atom     1 has atomic number  6 and mass  12.00000

 Molecular mass:    24.00000 amu.
 Principal axes and moments of inertia in atomic units:
                           1         2         3
     Eigenvalues --     0.00000  42.37249  42.37249
           X           -0.00000   1.00000  -0.00000
           Y            0.00000   0.00000   1.00000
           Z            1.00000   0.00000  -0.00000
 This molecule is a prolate symmetric top.
 Rotational symmetry number  2.
 Rotational temperature (Kelvin)      2.04411
 Rotational constant (GHZ):          42.592290
 Zero-point vibrational energy       8015.3 (Joules/Mol)
                                    1.91571 (Kcal/Mol)
 Vibrational temperatures:   1928.05
          (Kelvin)

 Zero-point correction=                           0.003053 (Hartree/Particle)
 Thermal correction to Energy=                    0.005423
 Thermal correction to Enthalpy=                  0.006367
 Thermal correction to Gibbs Free Energy=        -0.016797
 Sum of electronic and zero-point Energies=            -75.497310
 Sum of electronic and thermal Energies=               -75.494940
 Sum of electronic and thermal Enthalpies=             -75.493996
 Sum of electronic and thermal Free Energies=          -75.517160

                     E (Thermal)             CV                S
                      KCal/Mol        Cal/Mol-Kelvin    Cal/Mol-Kelvin
 Total                    3.403              5.098             48.753
 Electronic               0.000              0.000              2.755
 Translational            0.889              2.981             35.464
 Rotational               0.592              1.987             10.511
 Vibrational              1.922              0.130              0.023

 Optimization completed.
    -- Stationary point found.
 Normal termination of Gaussian 09 at Thu Jan 24 15:29:28 2019.
