 Gaussian 09, Revision D.01,
 Gaussian 09:  ES64L-G09RevD.01 24-Apr-2013

 ---------------------------
 #p b3lyp/6-311++g(d,p) freq
 ---------------------------

 ---
 min
 ---
 Symbolic Z-matrix:
 Charge =  0 Multiplicity = 3

                         Standard orientation:
 ---------------------------------------------------------------------
 Center     Atomic      Atomic             Coordinates (Angstroms)
 Number     Number       Type             X           Y           Z
 ---------------------------------------------------------------------
      1          6           0        0.000000    0.000000    0.652985
      2          6           0        0.000000    0.000000   -0.652985
 ---------------------------------------------------------------------

 SCF Done:  E(UB3LYP) =  -75.9381105604     A.U. after    8 cycles

 Unable to determine electronic state:  partially filled degenerate orbitals.
 Alpha  occ. eigenvalues --  -10.29094 -10.28980  -0.83398  -0.45785  -0.37598
 Alpha  occ. eigenvalues --   -0.36204  -0.34131
 Alpha virt. eigenvalues --   -0.05672  -0.03094   0.03473   0.04806   0.05817
 Alpha virt. eigenvalues --    0.06211   0.09195   0.11361   0.11847   0.17282
 Alpha virt. eigenvalues --    0.33921   0.45910   0.49031   0.50879   0.56403

  Beta  occ. eigenvalues --  -10.27453 -10.27367  -0.76679  -0.36882  -0.32141
  Beta virt. eigenvalues --   -0.22756  -0.21435  -0.00968   0.01120   0.04608
  Beta virt. eigenvalues --    0.05213   0.06311   0.06651   0.09586   0.12240
  Beta virt. eigenvalues --    0.12863   0.17650   0.36795   0.48610   0.51684

 Mulliken charges and spin densities:
               1          2
     1  C   -0.000000   1.000000
     2  C   -0.000000   1.000000
 Sum of Mulliken charges =  -0.00000   2.00000

 Dipole moment (field-independent basis, Debye):
    X=             -0.0000    Y=              0.0000    Z=              0.0000  Tot=              0.0000
 Quadrupole moment (field-independent basis, Debye-Ang):
   XX=            -10.6807   YY=            -12.7353   ZZ=            -12.5084
   XY=              0.0000   XZ=             -0.0000   YZ=              0.0000

  Exact polarizability:  12.490  -0.000  35.613   0.000  -0.000  43.368
 Approx polarizability:  16.860  -0.000  21.596  -0.000  -0.000  86.740

                      1
                     SGG
 Frequencies --   1688.7231
 Red. masses --     12.0000
 Frc consts  --     20.1627
 IR Inten    --      0.0000

 - Thermochemistry -
 -------------------
 Temperature   298.150 Kelvin.  Pressure   1.00000 Atm.
 Atom     1 has atomic number  6 and mass  12.00000

 Molecular mass:    24.00000 amu.
 Principal axes and moments of inertia in atomic units:
                           1         2         3
     Eigenvalues --    -0.00000  36.54394  36.54394
           X           -0.00000   1.00000  -0.00000
           Y            0.00000   0.00000   1.00000
           Z            1.00000   0.00000  -0.00000
 This molecule is a prolate symmetric top.
 Rotational symmetry number  2.
 Rotational temperature (Kelvin)      2.37013
 Rotational constant (GHZ):          49.385510
 Zero-point vibrational energy      10100.8 (Joules/Mol)
                                    2.41415 (Kcal/Mol)
 Vibrational temperatures:   2429.69
          (Kelvin)

 Zero-point correction=                           0.003847 (Hartree/Particle)
 Thermal correction to Energy=                    0.006210
 Thermal correction to Enthalpy=                  0.007154
 Thermal correction to Gibbs Free Energy=        -0.015590
 Sum of electronic and zero-point Energies=            -75.934263
 Sum of electronic and thermal Energies=               -75.931901
 Sum of electronic and thermal Enthalpies=             -75.930956
 Sum of electronic and thermal Free Energies=          -75.953701

                     E (Thermal)             CV                S
                      KCal/Mol        Cal/Mol-Kelvin    Cal/Mol-Kelvin
 Total                    3.897              5.006             47.870
 Electronic               0.000              0.000              2.183
 Translational            0.889              2.981             35.464
 Rotational               0.592              1.987             10.217
 Vibrational              2.416              0.038              0.005

 Optimization completed.
    -- Stationary point found.
 Normal termination of Gaussian 09 at Sun Mar  4 20:54:59 2018.
