 Gaussian 09, Revision D.01,
 Gaussian 09:  ES64L-G09RevD.01 24-Apr-2013

 ---------------------------
 #p b3lyp/6-311++g(d,p) freq
 ---------------------------

 ---
 min
 ---
 Symbolic Z-matrix:
 Charge =  0 Multiplicity = 1

                         Standard orientation:
 ---------------------------------------------------------------------
 Center     Atomic      Atomic             Coordinates (Angstroms)
 Number     Number       Type             X           Y           Z
 ---------------------------------------------------------------------
      1          6           0        0.000000    0.000000    0.625973
      2          6           0        0.000000    0.000000   -0.625973
 ---------------------------------------------------------------------

 SCF Done:  E(RB3LYP) =  -75.9015852566     A.U. after    8 cycles

 The electronic state is 1-SGG.
 Alpha  occ. eigenvalues --  -10.28764 -10.28619  -0.79595  -0.41459  -0.33320
 Alpha  occ. eigenvalues --   -0.33320
 Alpha virt. eigenvalues --   -0.26889  -0.01104  -0.01104   0.03939   0.04636
 Alpha virt. eigenvalues --    0.06421   0.06421   0.09573   0.12242   0.12242
 Alpha virt. eigenvalues --    0.17475   0.36380   0.46544   0.51386   0.51386

 Mulliken charges:
               1
     1  C   -0.000000
     2  C   -0.000000
 Sum of Mulliken charges =  -0.00000

 Dipole moment (field-independent basis, Debye):
    X=             -0.0000    Y=              0.0000    Z=             -0.0000  Tot=              0.0000
 Quadrupole moment (field-independent basis, Debye-Ang):
   XX=            -12.3706   YY=            -12.3706   ZZ=             -9.0896
   XY=              0.0000   XZ=             -0.0000   YZ=              0.0000

  Exact polarizability:  58.256  -0.000  58.256   0.000  -0.000  33.877
 Approx polarizability:  26.985  -0.000  26.985  -0.000  -0.000 139.814

                      1
                     SGG
 Frequencies --   1867.5165
 Red. masses --     12.0000
 Frc consts  --     24.6581
 IR Inten    --      0.0000

 - Thermochemistry -
 -------------------
 Temperature   298.150 Kelvin.  Pressure   1.00000 Atm.
 Atom     1 has atomic number  6 and mass  12.00000

 Molecular mass:    24.00000 amu.
 Principal axes and moments of inertia in atomic units:
                           1         2         3
     Eigenvalues --     0.00000  33.58305  33.58305
           X           -0.00000   1.00000  -0.00000
           Y            0.00000   0.00000   1.00000
           Z            1.00000   0.00000  -0.00000
 This molecule is a prolate symmetric top.
 Rotational symmetry number  2.
 Rotational temperature (Kelvin)      2.57909
 Rotational constant (GHZ):          53.739640
 Zero-point vibrational energy      11170.2 (Joules/Mol)
                                    2.66975 (Kcal/Mol)
 Vibrational temperatures:   2686.94
          (Kelvin)

 Zero-point correction=                           0.004255 (Hartree/Particle)
 Thermal correction to Energy=                    0.006616
 Thermal correction to Enthalpy=                  0.007560
 Thermal correction to Gibbs Free Energy=        -0.014066
 Sum of electronic and zero-point Energies=            -75.897331
 Sum of electronic and thermal Energies=               -75.894969
 Sum of electronic and thermal Enthalpies=             -75.894025
 Sum of electronic and thermal Free Energies=          -75.915651

                     E (Thermal)             CV                S
                      KCal/Mol        Cal/Mol-Kelvin    Cal/Mol-Kelvin
 Total                    4.152              4.988             45.516
 Electronic               0.000              0.000              0.000
 Translational            0.889              2.981             35.464
 Rotational               0.592              1.987             10.049
 Vibrational              2.670              0.020              0.002

 Optimization completed.
    -- Stationary point found.
 Normal termination of Gaussian 09 at Sun Mar  4 20:54:57 2018.
