 Gaussian 09, Revision D.01,
 Gaussian 09:  ES64L-G09RevD.01 24-Apr-2013

 ---------------------------
 #p b3lyp/6-311++g(d,p) freq
 ---------------------------

 ---
 min
 ---
 Symbolic Z-matrix:
 Charge =  1 Multiplicity = 2

                         Standard orientation:
 ---------------------------------------------------------------------
 Center     Atomic      Atomic             Coordinates (Angstroms)
 Number     Number       Type             X           Y           Z
 ---------------------------------------------------------------------
      1          6           0        0.000000    0.000000    0.660731
      2          6           0        0.000000    0.000000   -0.660731
 ---------------------------------------------------------------------

 SCF Done:  E(UB3LYP) =  -75.4480796226     A.U. after    9 cycles

 Unable to determine electronic state:  partially filled degenerate orbitals.
 Alpha  occ. eigenvalues --  -10.71599 -10.71515  -1.18526  -0.78247  -0.72378
 Alpha  occ. eigenvalues --   -0.68694
 Alpha virt. eigenvalues --   -0.61948  -0.40176  -0.37050  -0.15854  -0.12245
 Alpha virt. eigenvalues --   -0.11844  -0.11449  -0.08163  -0.04996  -0.04749
 Alpha virt. eigenvalues --    0.00710   0.05391   0.21365   0.23170   0.24745

  Beta  occ. eigenvalues --  -10.70777 -10.70703  -1.14408  -0.75760  -0.67544
  Beta virt. eigenvalues --   -0.60885  -0.57327  -0.36124  -0.32846  -0.15627
  Beta virt. eigenvalues --   -0.12032  -0.11479  -0.11198  -0.08066  -0.04750
  Beta virt. eigenvalues --   -0.04527   0.00796   0.06864   0.21925   0.25010

 Mulliken charges and spin densities:
               1          2
     1  C    0.500000   0.500000
     2  C    0.500000   0.500000
 Sum of Mulliken charges =   1.00000   1.00000

 Dipole moment (field-independent basis, Debye):
    X=              0.0000    Y=              0.0000    Z=             -0.0000  Tot=              0.0000
 Quadrupole moment (field-independent basis, Debye-Ang):
   XX=             -8.3548   YY=            -10.0190   ZZ=             -4.4013
   XY=             -0.0000   XZ=             -0.0000   YZ=              0.0000

  Exact polarizability: 297.191   0.000  41.343   0.000   0.000  26.835
 Approx polarizability:  15.234  -0.000  20.808  -0.000  -0.000 119.442

                      1
                     SGG
 Frequencies --   1596.9243
 Red. masses --     12.0000
 Frc consts  --     18.0302
 IR Inten    --      0.0000

 - Thermochemistry -
 -------------------
 Temperature   298.150 Kelvin.  Pressure   1.00000 Atm.
 Atom     1 has atomic number  6 and mass  12.00000

 Molecular mass:    24.00000 amu.
 Principal axes and moments of inertia in atomic units:
                           1         2         3
     Eigenvalues --     0.00000  37.41609  37.41609
           X           -0.00000   1.00000  -0.00000
           Y            0.00000   0.00000   1.00000
           Z            1.00000   0.00000  -0.00000
 This molecule is a prolate symmetric top.
 Rotational symmetry number  2.
 Rotational temperature (Kelvin)      2.31488
 Rotational constant (GHZ):          48.234367
 Zero-point vibrational energy       9551.7 (Joules/Mol)
                                    2.28292 (Kcal/Mol)
 Vibrational temperatures:   2297.62
          (Kelvin)

 Zero-point correction=                           0.003638 (Hartree/Particle)
 Thermal correction to Energy=                    0.006002
 Thermal correction to Enthalpy=                  0.006946
 Thermal correction to Gibbs Free Energy=        -0.015439
 Sum of electronic and zero-point Energies=            -75.444442
 Sum of electronic and thermal Energies=               -75.442078
 Sum of electronic and thermal Enthalpies=             -75.441134
 Sum of electronic and thermal Free Energies=          -75.463519

                     E (Thermal)             CV                S
                      KCal/Mol        Cal/Mol-Kelvin    Cal/Mol-Kelvin
 Total                    3.766              5.021             47.113
 Electronic               0.000              0.000              1.377
 Translational            0.889              2.981             35.464
 Rotational               0.592              1.987             10.264
 Vibrational              2.285              0.053              0.008

 Optimization completed.
    -- Stationary point found.
 Normal termination of Gaussian 09 at Thu Jan 24 15:29:28 2019.
