 Gaussian 09, Revision D.01,
 Gaussian 09:  ES64L-G09RevD.01 24-Apr-2013

 ---------------------------
 #p b3lyp/6-311++g(d,p) freq
 ---------------------------

 ---
 min
 ---
 Symbolic Z-matrix:
 Charge =  0 Multiplicity = 1

                         Standard orientation:
 ---------------------------------------------------------------------
 Center     Atomic      Atomic             Coordinates (Angstroms)
 Number     Number       Type             X           Y           Z
 ---------------------------------------------------------------------
      1          6           0        0.000000    0.000000    0.056701
      2          6           0        0.000000    0.000000    1.433635
      3          8           0       -0.000000   -0.000000   -1.117752
 ---------------------------------------------------------------------

 SCF Done:  E(RB3LYP) =  -151.265050623     A.U. after   10 cycles

 Unable to determine electronic state:  partially filled degenerate orbitals.
 Alpha  occ. eigenvalues --  -19.25454 -10.33089 -10.28332  -1.16940  -0.78899
 Alpha  occ. eigenvalues --   -0.57253  -0.49884  -0.49616  -0.35137  -0.27679
 Alpha virt. eigenvalues --   -0.22075  -0.00774   0.01010   0.01133   0.05329
 Alpha virt. eigenvalues --    0.05449   0.05768   0.09087   0.10542   0.10757
 Alpha virt. eigenvalues --    0.14676   0.17829   0.24736   0.25011   0.27670

 Mulliken charges:
               1
     1  C    0.194179
     2  C   -0.062747
     3  O   -0.131432
 Sum of Mulliken charges =   0.00000

 Dipole moment (field-independent basis, Debye):
    X=             -0.0000    Y=             -0.0000    Z=             -1.0348  Tot=              1.0348
 Quadrupole moment (field-independent basis, Debye-Ang):
   XX=            -14.4035   YY=            -17.9976   ZZ=            -22.5751
   XY=              0.0000   XZ=             -0.0000   YZ=              0.0000

  Exact polarizability:  15.660   0.000  16.515  -0.000  -0.000  39.708
 Approx polarizability:  22.744   0.000  19.694   0.000   0.000  74.882

                      1                      2                      3
                     PI                     PI                     SG
 Frequencies --    363.3168               495.4430              1052.5922
 Red. masses --     12.4760                12.4760                12.9267
 Frc consts  --      0.9703                 1.8043                 8.4383
 IR Inten    --     61.4257                 1.4261                32.9748

                      4
                     SG
 Frequencies --   1973.2322
 Red. masses --     13.0179
 Frc consts  --     29.8639
 IR Inten    --    128.9183

 - Thermochemistry -
 -------------------
 Temperature   298.150 Kelvin.  Pressure   1.00000 Atm.
 Atom     1 has atomic number  6 and mass  12.00000

 Molecular mass:    39.99491 amu.
 Principal axes and moments of inertia in atomic units:
                           1         2         3
     Eigenvalues --     0.00000 159.57615 159.57615
           X            0.00000   0.12404   0.99228
           Y            0.00000   0.99228  -0.12404
           Z            1.00000  -0.00000   0.00000
 This molecule is a prolate symmetric top.
 Rotational symmetry number  1.
 Rotational temperature (Kelvin)      0.54277
 Rotational constant (GHZ):          11.309593
 Zero-point vibrational energy      23235.0 (Joules/Mol)
                                    5.55329 (Kcal/Mol)
 Warning -- explicit consideration of   2 degrees of freedom as
           vibrations may cause significant error
 Vibrational temperatures:    522.73   712.83  1514.44  2839.04
          (Kelvin)

 Zero-point correction=                           0.008850 (Hartree/Particle)
 Thermal correction to Energy=                    0.011815
 Thermal correction to Enthalpy=                  0.012759
 Thermal correction to Gibbs Free Energy=        -0.012596
 Sum of electronic and zero-point Energies=           -151.256201
 Sum of electronic and thermal Energies=              -151.253235
 Sum of electronic and thermal Enthalpies=            -151.252291
 Sum of electronic and thermal Free Energies=         -151.277647

                     E (Thermal)             CV                S
                      KCal/Mol        Cal/Mol-Kelvin    Cal/Mol-Kelvin
 Total                    7.414              8.112             53.365
 Electronic               0.000              0.000              0.000
 Translational            0.889              2.981             36.986
 Rotational               0.592              1.987             14.524
 Vibrational              5.933              3.144              1.855
 Vibration     1          0.737              1.548              1.108
 Vibration     2          0.851              1.260              0.670

 1\1\ CITASK-GV0114\Freq\RB3LYP\6-311++G(d,p)\C2O1\EERD\04-Mar-2018\0\\
 #p b3lyp/6-311++g(d,p) freq\\min\\0,1\C,-0.1562773394,-0.0788736378,0.
 \C,-1.5181533992,0.124209739,0.\O,1.0053313039,-0.2520930759,0.\\Versi
 on=ES64L-G09RevD.01\HF=-151.2650506\RMSD=1.737e-09\RMSF=7.105e-03\Zero
 Point=0.0088497\Thermal=0.0118152\Dipole=0.4026676,-0.0600459,0.\Dipol
 eDeriv=0.8777189,-0.1128549,0.013259,-0.1128549,0.1377433,0.0889151,0.
 013259,0.0889151,0.7103657,0.3033894,-0.0661346,-0.0061033,-0.0661346,
 -0.130247,-0.0409287,-0.0061033,-0.0409287,-0.4114406,-1.1811084,0.178

 Normal termination of Gaussian 09 at Sun Mar  4 20:55:26 2018.
