 Gaussian 09, Revision D.01,
 Gaussian 09:  ES64L-G09RevD.01 24-Apr-2013

 ---------------------------
 #p b3lyp/6-311++g(d,p) freq
 ---------------------------

 ---
 min
 ---
 Symbolic Z-matrix:
 Charge =  0 Multiplicity = 3

                         Standard orientation:
 ---------------------------------------------------------------------
 Center     Atomic      Atomic             Coordinates (Angstroms)
 Number     Number       Type             X           Y           Z
 ---------------------------------------------------------------------
      1          6           0        0.000000   -0.000000    0.056229
      2          6           0       -0.000000   -0.000000    1.425254
      3          8           0        0.000000    0.000000   -1.111112
 ---------------------------------------------------------------------

 SCF Done:  E(UB3LYP) =  -151.304953344     A.U. after   12 cycles

 The electronic state is 3-SG.
 Alpha  occ. eigenvalues --  -19.26373 -10.33474 -10.27373  -1.18837  -0.81789
 Alpha  occ. eigenvalues --   -0.58612  -0.52398  -0.52398  -0.36016  -0.31226
 Alpha  occ. eigenvalues --   -0.31226
 Alpha virt. eigenvalues --   -0.00979  -0.00823  -0.00823   0.05288   0.05347
 Alpha virt. eigenvalues --    0.05347   0.09033   0.10437   0.10437   0.14681
 Alpha virt. eigenvalues --    0.17616   0.24572   0.24572   0.27423   0.30043

  Beta  occ. eigenvalues --  -19.24964 -10.33194 -10.25579  -1.16442  -0.75560
  Beta  occ. eigenvalues --   -0.56514  -0.48156  -0.48156  -0.32391
  Beta virt. eigenvalues --   -0.17923  -0.17923  -0.00468   0.03601   0.03601
  Beta virt. eigenvalues --    0.05598   0.06288   0.06288   0.09285   0.11461
  Beta virt. eigenvalues --    0.11461   0.15293   0.18704   0.25103   0.25103

 Mulliken charges and spin densities:
               1          2
     1  C    0.229502   0.306697
     2  C   -0.102283   1.208718
     3  O   -0.127219   0.484585
 Sum of Mulliken charges =  -0.00000   2.00000

 Dipole moment (field-independent basis, Debye):
    X=              0.0000    Y=              0.0000    Z=             -1.2734  Tot=              1.2734
 Quadrupole moment (field-independent basis, Debye-Ang):
   XX=            -16.0414   YY=            -16.0414   ZZ=            -22.7890
   XY=             -0.0000   XZ=              0.0000   YZ=              0.0000

  Exact polarizability:  17.434  -0.000  17.434  -0.000  -0.000  39.974
 Approx polarizability:  20.518   0.000  20.518  -0.000  -0.000  68.223

                      1                      2                      3
                     PI                     PI                     SG
 Frequencies --    397.8544               397.8544              1063.8826
 Red. masses --     12.4762                12.4762                12.8958
 Frc consts  --      1.1635                 1.1635                 8.5998
 IR Inten    --     37.3874                37.3874                19.8493

                      4
                     SG
 Frequencies --   1990.3083
 Red. masses --     13.0493
 Frc consts  --     30.4563
 IR Inten    --    166.2070

 - Thermochemistry -
 -------------------
 Temperature   298.150 Kelvin.  Pressure   1.00000 Atm.
 Atom     1 has atomic number  6 and mass  12.00000

 Molecular mass:    39.99491 amu.
 Principal axes and moments of inertia in atomic units:
                           1         2         3
     Eigenvalues --     0.00000 157.70156 157.70156
           X           -0.00000   0.02081   0.99978
           Y           -0.00000   0.99978  -0.02081
           Z            1.00000   0.00000   0.00000
 This molecule is a prolate symmetric top.
 Rotational symmetry number  1.
 Rotational temperature (Kelvin)      0.54923
 Rotational constant (GHZ):          11.444029
 Zero-point vibrational energy      23027.5 (Joules/Mol)
                                    5.50371 (Kcal/Mol)
 Warning -- explicit consideration of   2 degrees of freedom as
           vibrations may cause significant error
 Vibrational temperatures:    572.42   572.42  1530.69  2863.61
          (Kelvin)

 Zero-point correction=                           0.008771 (Hartree/Particle)
 Thermal correction to Energy=                    0.011783
 Thermal correction to Enthalpy=                  0.012728
 Thermal correction to Gibbs Free Energy=        -0.013730
 Sum of electronic and zero-point Energies=           -151.296183
 Sum of electronic and thermal Energies=              -151.293170
 Sum of electronic and thermal Enthalpies=            -151.292226
 Sum of electronic and thermal Free Energies=         -151.318683

                     E (Thermal)             CV                S
                      KCal/Mol        Cal/Mol-Kelvin    Cal/Mol-Kelvin
 Total                    7.394              8.242             55.685
 Electronic               0.000              0.000              2.183
 Translational            0.889              2.981             36.986
 Rotational               0.592              1.987             14.500
 Vibrational              5.913              3.274              2.015
 Vibration     1          0.764              1.475              0.971
 Vibration     2          0.764              1.475              0.971

 Normal termination of Gaussian 09 at Sun Mar  4 20:55:30 2018.
