 Gaussian 09, Revision D.01,
 Gaussian 09:  ES64L-G09RevD.01 24-Apr-2013

 ---------------------------
 #p b3lyp/6-311++g(d,p) freq
 ---------------------------

 ---
 min
 ---
 Symbolic Z-matrix:
 Charge =  1 Multiplicity = 4

                         Standard orientation:
 ---------------------------------------------------------------------
 Center     Atomic      Atomic             Coordinates (Angstroms)
 Number     Number       Type             X           Y           Z
 ---------------------------------------------------------------------
      1          6           0       -0.000000   -0.000000    1.398884
      2          6           0        0.000000    0.000000    0.052544
      3          8           0       -0.000000   -0.000000   -1.088571
 ---------------------------------------------------------------------

 SCF Done:  E(UB3LYP) =  -150.880300517     A.U. after   12 cycles

 The electronic state is 4-SG.
 Alpha  occ. eigenvalues --  -19.57008 -10.67160 -10.66348  -1.49350  -1.15761
 Alpha  occ. eigenvalues --   -0.86623  -0.81728  -0.81728  -0.77854  -0.64830
 Alpha  occ. eigenvalues --   -0.64830
 Alpha virt. eigenvalues --   -0.30618  -0.30618  -0.21398  -0.11942  -0.11942
 Alpha virt. eigenvalues --   -0.11756  -0.09570  -0.07017  -0.05735  -0.05735
 Alpha virt. eigenvalues --    0.00889   0.08195   0.08195   0.09604   0.12264

  Beta  occ. eigenvalues --  -19.55567 -10.66232 -10.62468  -1.46919  -1.07728
  Beta  occ. eigenvalues --   -0.84140  -0.77614  -0.77614
  Beta virt. eigenvalues --   -0.51287  -0.47247  -0.47247  -0.23145  -0.23145
  Beta virt. eigenvalues --   -0.20316  -0.11115  -0.11115  -0.09724  -0.06862
  Beta virt. eigenvalues --   -0.05366  -0.04590  -0.04590   0.01436   0.08701

 Mulliken charges and spin densities:
               1          2
     1  C    0.635677   2.383741
     2  C    0.244314   0.109790
     3  O    0.120008   0.506469
 Sum of Mulliken charges =   1.00000   3.00000

 Dipole moment (field-independent basis, Debye):
    X=              0.0000    Y=              0.0000    Z=              3.1697  Tot=              3.1697
 Quadrupole moment (field-independent basis, Debye-Ang):
   XX=            -13.2321   YY=            -13.2321   ZZ=             -7.4487
   XY=             -0.0000   XZ=             -0.0000   YZ=             -0.0000

  Exact polarizability:   8.840  -0.000   8.840   0.000   0.000  28.540
 Approx polarizability:  11.011   0.000  11.011   0.000   0.000  55.424

                      1                      2                      3
                     PI                     PI                     SG
 Frequencies --    530.1220               530.1220              1161.1761
 Red. masses --     12.4790                12.4790                12.8733
 Frc consts  --      2.0662                 2.0662                10.2267
 IR Inten    --      4.4147                 4.4147                 2.9321

                      4
                     SG
 Frequencies --   2097.5783
 Red. masses --     13.0724
 Frc consts  --     33.8877
 IR Inten    --     69.0440

 - Thermochemistry -
 -------------------
 Temperature   298.150 Kelvin.  Pressure   1.00000 Atm.
 Atom     1 has atomic number  6 and mass  12.00000

 Molecular mass:    39.99491 amu.
 Principal axes and moments of inertia in atomic units:
                           1         2         3
     Eigenvalues --     0.00000 151.66098 151.66098
           X            0.00000   0.46693   0.88430
           Y            0.00000   0.88430  -0.46693
           Z            1.00000  -0.00000   0.00000
 This molecule is a prolate symmetric top.
 Rotational symmetry number  1.
 Rotational temperature (Kelvin)      0.57110
 Rotational constant (GHZ):          11.899839
 Zero-point vibrational energy      25833.3 (Joules/Mol)
                                    6.17432 (Kcal/Mol)
 Warning -- explicit consideration of   2 degrees of freedom as
           vibrations may cause significant error
 Vibrational temperatures:    762.73   762.73  1670.67  3017.94
          (Kelvin)

 Zero-point correction=                           0.009839 (Hartree/Particle)
 Thermal correction to Energy=                    0.012625
 Thermal correction to Enthalpy=                  0.013570
 Thermal correction to Gibbs Free Energy=        -0.012747
 Sum of electronic and zero-point Energies=           -150.870461
 Sum of electronic and thermal Energies=              -150.867675
 Sum of electronic and thermal Enthalpies=            -150.866731
 Sum of electronic and thermal Free Energies=         -150.893047

                     E (Thermal)             CV                S
                      KCal/Mol        Cal/Mol-Kelvin    Cal/Mol-Kelvin
 Total                    7.923              7.575             55.387
 Electronic               0.000              0.000              2.755
 Translational            0.889              2.981             36.986
 Rotational               0.592              1.987             14.423
 Vibrational              6.441              2.607              1.223
 Vibration     1          0.885              1.183              0.587
 Vibration     2          0.885              1.183              0.587

 Normal termination of Gaussian 09 at Thu Jan 24 15:31:39 2019.
