 Gaussian 09, Revision D.01,
 Gaussian 09:  ES64L-G09RevD.01 24-Apr-2013

 ---------------------------
 #p b3lyp/6-311++g(d,p) freq
 ---------------------------

 ---
 min
 ---
 Symbolic Z-matrix:
 Charge =  0 Multiplicity = 1

                         Standard orientation:
 ---------------------------------------------------------------------
 Center     Atomic      Atomic             Coordinates (Angstroms)
 Number     Number       Type             X           Y           Z
 ---------------------------------------------------------------------
      1          6           0        0.000000    0.747836   -0.447539
      2          6           0       -0.000000   -0.747836   -0.447539
      3          8           0       -0.000000   -0.000000    0.671309
 ---------------------------------------------------------------------

 SCF Done:  E(RB3LYP) =  -151.234673377     A.U. after   10 cycles

 The electronic state is 1-A1.
 Alpha  occ. eigenvalues --  -19.30386 -10.30940 -10.30911  -1.25321  -0.70779
 Alpha  occ. eigenvalues --   -0.65718  -0.53895  -0.45502  -0.33992  -0.30328
 Alpha virt. eigenvalues --   -0.15397  -0.07912   0.02292   0.03925   0.04100
 Alpha virt. eigenvalues --    0.05337   0.07484   0.09212   0.10791   0.12201
 Alpha virt. eigenvalues --    0.16451   0.16735   0.18302   0.19153   0.24284

 Mulliken charges:
               1
     1  C   -0.090807
     2  C   -0.090807
     3  O    0.181615
 Sum of Mulliken charges =   0.00000

 Dipole moment (field-independent basis, Debye):
    X=              0.0000    Y=             -0.0000    Z=              0.5657  Tot=              0.5657
 Quadrupole moment (field-independent basis, Debye-Ang):
   XX=            -14.9191   YY=            -21.1170   ZZ=            -17.7911
   XY=             -0.0000   XZ=             -0.0000   YZ=             -0.0000

  Exact polarizability:  18.813  -0.000  27.401  -0.000  -0.000  20.643
 Approx polarizability:  28.661   0.000  38.231   0.000   0.000  34.747

                      1                      2                      3
                     B2                     A1                     A1
 Frequencies --    929.2816               952.5420              1415.2468
 Red. masses --     13.0305                12.8463                13.1004
 Frc consts  --      6.6299                 6.8675                15.4596
 IR Inten    --     35.9067                 6.9351                68.6959

 - Thermochemistry -
 -------------------
 Temperature   298.150 Kelvin.  Pressure   1.00000 Atm.
 Atom     1 has atomic number  6 and mass  12.00000

 Molecular mass:    39.99491 amu.
 Principal axes and moments of inertia in atomic units:
                           1         2         3
     Eigenvalues --    42.90706  47.93162  90.83868
           X           -0.00000   0.00000   1.00000
           Y            1.00000   0.00000   0.00000
           Z           -0.00000   1.00000   0.00000
 This molecule is an asymmetric top.
 Rotational symmetry number  2.
 Rotational temperatures (Kelvin)      2.01864     1.80703     0.95349
 Rotational constants (GHZ):          42.06164    37.65241    19.86754
 Zero-point vibrational energy      19720.9 (Joules/Mol)
                                    4.71340 (Kcal/Mol)
 Vibrational temperatures:   1337.03  1370.49  2036.22
          (Kelvin)

 Zero-point correction=                           0.007511 (Hartree/Particle)
 Thermal correction to Energy=                    0.010443
 Thermal correction to Enthalpy=                  0.011388
 Thermal correction to Gibbs Free Energy=        -0.015090
 Sum of electronic and zero-point Energies=           -151.227162
 Sum of electronic and thermal Energies=              -151.224230
 Sum of electronic and thermal Enthalpies=            -151.223286
 Sum of electronic and thermal Free Energies=         -151.249763

                     E (Thermal)             CV                S
                      KCal/Mol        Cal/Mol-Kelvin    Cal/Mol-Kelvin
 Total                    6.553              6.955             55.726
 Electronic               0.000              0.000              0.000
 Translational            0.889              2.981             36.986
 Rotational               0.889              2.981             18.486
 Vibrational              4.776              0.994              0.254

 Optimization completed.
    -- Stationary point found.

 1\1\ CITASK-GV0205\Freq\RB3LYP\6-311++G(d,p)\C2O1\EERD\04-Mar-2018\0\\
 #p b3lyp/6-311++g(d,p) freq\\min\\0,1\C,0.24039317,0.873125428,0.\C,0.
 8221228271,-0.5047814324,0.\O,-0.4994950009,-0.250994998,0.\\Version=E
 S64L-G09RevD.01\State=1-A1\HF=-151.2346734\RMSD=1.386e-09\RMSF=1.684e-
 05\ZeroPoint=0.0075113\Thermal=0.0104434\Dipole=-0.2050572,-0.0865718,
 0.\DipoleDeriv=0.1339773,0.3405314,0.,0.2523325,0.4515613,0.,0.,0.,-0.
 0526542,0.5934004,-0.1947905,0.,-0.1065916,-0.0078617,0.,0.,0.,-0.0526
 542,-0.7273776,-0.1457409,0.,-0.1457409,-0.4436996,0.,0.,0.,0.1053084\

 Normal termination of Gaussian 09 at Sun Mar  4 20:55:26 2018.
