 Gaussian 09, Revision D.01,
 Gaussian 09:  ES64L-G09RevD.01 24-Apr-2013

 ---------------------------
 #p b3lyp/6-311++g(d,p) freq
 ---------------------------

 ---
 min
 ---
 Symbolic Z-matrix:
 Charge =  1 Multiplicity = 2

                         Standard orientation:
 ---------------------------------------------------------------------
 Center     Atomic      Atomic             Coordinates (Angstroms)
 Number     Number       Type             X           Y           Z
 ---------------------------------------------------------------------
      1          6           0       -0.000000   -0.000000    1.291370
      2          6           0        0.000000    0.000000   -1.452820
      3          8           0       -0.000000   -0.000000    0.121087
 ---------------------------------------------------------------------

 SCF Done:  E(UB3LYP) =  -150.832315783     A.U. after   13 cycles

 Unable to determine electronic state:  an orbital has unidentified symmetry.
 Alpha  occ. eigenvalues --  -19.58964 -10.69922 -10.65172  -1.51059  -1.10948
 Alpha  occ. eigenvalues --   -0.82217  -0.81994  -0.78761  -0.67394  -0.58720
 Alpha virt. eigenvalues --   -0.47256  -0.34588  -0.33631  -0.31891  -0.16976
 Alpha virt. eigenvalues --   -0.11165  -0.10954  -0.10030  -0.07537  -0.05787
 Alpha virt. eigenvalues --   -0.05651  -0.02493   0.03620   0.03890   0.05811

  Beta  occ. eigenvalues --  -19.59048 -10.68258 -10.65013  -1.50956  -1.09165
  Beta  occ. eigenvalues --   -0.82040  -0.81601  -0.74728  -0.66834
  Beta virt. eigenvalues --   -0.45573  -0.41263  -0.33343  -0.32045  -0.29919
  Beta virt. eigenvalues --   -0.16810  -0.10856  -0.10271  -0.09869  -0.07476
  Beta virt. eigenvalues --   -0.05591  -0.05244  -0.02313   0.03563   0.03988

 Mulliken charges and spin densities:
               1          2
     1  C    0.189359   0.091514
     2  C    0.453954   0.958285
     3  O    0.356687  -0.049799
 Sum of Mulliken charges =   1.00000   1.00000

 Dipole moment (field-independent basis, Debye):
    X=              0.0000    Y=              0.0000    Z=             -1.2003  Tot=              1.2003
 Quadrupole moment (field-independent basis, Debye-Ang):
   XX=            -12.8874   YY=            -14.4272   ZZ=             -8.2975
   XY=             -0.0000   XZ=             -0.0000   YZ=             -0.0000

  Exact polarizability:  14.456   0.000  14.326   0.000   0.000  33.200
 Approx polarizability:  21.718   0.000  17.863  -0.000  -0.000  51.975

                      1                      2                      3
                     PI                     PI                     SG
 Frequencies --    108.9154               140.1184               296.3478
 Red. masses --     14.0943                14.0943                12.6630
 Frc consts  --      0.0985                 0.1630                 0.6552
 IR Inten    --      3.5577                 5.2463               278.4556

                      4
                     SG
 Frequencies --   1826.4490
 Red. masses --     13.2967
 Frc consts  --     26.1342
 IR Inten    --    481.7982

 - Thermochemistry -
 -------------------
 Temperature   298.150 Kelvin.  Pressure   1.00000 Atm.
 Atom     1 has atomic number  6 and mass  12.00000

 Molecular mass:    39.99491 amu.
 Principal axes and moments of inertia in atomic units:
                           1         2         3
     Eigenvalues --     0.00000 162.74909 162.74909
           X           -0.00000   0.62469   0.78087
           Y           -0.00000   0.78087  -0.62469
           Z            1.00000   0.00000   0.00000
 This molecule is a prolate symmetric top.
 Rotational symmetry number  1.
 Rotational temperature (Kelvin)      0.53219
 Rotational constant (GHZ):          11.089102
 Zero-point vibrational energy      14186.7 (Joules/Mol)
                                    3.39070 (Kcal/Mol)
 Warning -- explicit consideration of   3 degrees of freedom as
           vibrations may cause significant error
 Vibrational temperatures:    156.70   201.60   426.38  2627.85
          (Kelvin)

 Zero-point correction=                           0.005403 (Hartree/Particle)
 Thermal correction to Energy=                    0.009568
 Thermal correction to Enthalpy=                  0.010512
 Thermal correction to Gibbs Free Energy=        -0.018213
 Sum of electronic and zero-point Energies=           -150.826912
 Sum of electronic and thermal Energies=              -150.822748
 Sum of electronic and thermal Enthalpies=            -150.821803
 Sum of electronic and thermal Free Energies=         -150.850529

                     E (Thermal)             CV                S
                      KCal/Mol        Cal/Mol-Kelvin    Cal/Mol-Kelvin
 Total                    6.004             10.527             60.458
 Electronic               0.000              0.000              1.377
 Translational            0.889              2.981             36.986
 Rotational               0.592              1.987             14.563
 Vibrational              4.523              5.559              7.531
 Vibration     1          0.606              1.942              3.288
 Vibration     2          0.615              1.913              2.802
 Vibration     3          0.690              1.681              1.437

 Optimization completed.
    -- Stationary point found.
 Normal termination of Gaussian 09 at Thu Jan 24 15:31:40 2019.
