 Gaussian 09, Revision D.01,
 Gaussian 09:  ES64L-G09RevD.01 24-Apr-2013

 ---------------------------
 #p b3lyp/6-311++g(d,p) freq
 ---------------------------

 ---
 min
 ---
 Symbolic Z-matrix:
 Charge =  1 Multiplicity = 4

                         Standard orientation:
 ---------------------------------------------------------------------
 Center     Atomic      Atomic             Coordinates (Angstroms)
 Number     Number       Type             X           Y           Z
 ---------------------------------------------------------------------
      1          6           0        0.000000    0.804550   -0.000000
      2          6           0       -0.696761   -0.402275   -0.000000
      3          6           0        0.696761   -0.402275   -0.000000
 ---------------------------------------------------------------------

 SCF Done:  E(UB3LYP) =  -113.615630939     A.U. after    9 cycles

 The electronic state is 4-A1'.
 Alpha  occ. eigenvalues --  -10.63510 -10.63425 -10.63425  -1.30800  -0.87218
 Alpha  occ. eigenvalues --   -0.87218  -0.73207  -0.73084  -0.63250  -0.63250
 Alpha virt. eigenvalues --   -0.36817  -0.36817  -0.16451  -0.14580  -0.13188
 Alpha virt. eigenvalues --   -0.13188  -0.11898  -0.07926  -0.06506  -0.06506
 Alpha virt. eigenvalues --   -0.04717  -0.04717   0.01666   0.01951   0.01951

  Beta  occ. eigenvalues --  -10.61373 -10.61303 -10.61303  -1.27364  -0.79183
  Beta  occ. eigenvalues --   -0.79183  -0.70891
  Beta virt. eigenvalues --   -0.53165  -0.44697  -0.44697  -0.32817  -0.32817
  Beta virt. eigenvalues --   -0.12863  -0.12376  -0.12376  -0.11647  -0.08691
  Beta virt. eigenvalues --   -0.07421  -0.05615  -0.05615  -0.04241  -0.04241

 Mulliken charges and spin densities:
               1          2
     1  C    0.333333   1.000000
     2  C    0.333333   1.000000
     3  C    0.333333   1.000000
 Sum of Mulliken charges =   1.00000   3.00000

 Dipole moment (field-independent basis, Debye):
    X=              0.0000    Y=             -0.0000    Z=             -0.0000  Tot=              0.0000
 Quadrupole moment (field-independent basis, Debye-Ang):
   XX=            -11.5427   YY=            -11.5427   ZZ=            -13.4710
   XY=             -0.0000   XZ=             -0.0000   YZ=             -0.0000

  Exact polarizability:  23.129   0.000  23.130  -0.000  -0.000  15.501
 Approx polarizability:  43.409  -0.000  43.409  -0.000   0.000  21.842

                      1                      2                      3
                     E'                     E'                     A1'
 Frequencies --   1177.2439              1177.2439              1557.7601
 Red. masses --     12.0000                12.0000                12.0000
 Frc consts  --      9.7986                 9.7986                17.1567
 IR Inten    --     27.9637                27.9632                 0.0000

 - Thermochemistry -
 -------------------
 Temperature   298.150 Kelvin.  Pressure   1.00000 Atm.
 Atom     1 has atomic number  6 and mass  12.00000

 Molecular mass:    36.00000 amu.
 Principal axes and moments of inertia in atomic units:
                           1         2         3
     Eigenvalues --    41.60796  41.60796  83.21592
           X           -0.61541   0.78821   0.00000
           Y            0.78821   0.61541   0.00000
           Z           -0.00000   0.00000   1.00000
 This molecule is an oblate symmetric top.
 Rotational symmetry number  6.
 Rotational temperatures (Kelvin)      2.08166     2.08166     1.04083
 Rotational constants (GHZ):          43.37490    43.37490    21.68745
 Zero-point vibrational energy      23400.4 (Joules/Mol)
                                    5.59284 (Kcal/Mol)
 Vibrational temperatures:   1693.79  1693.79  2241.27
          (Kelvin)

 Zero-point correction=                           0.008913 (Hartree/Particle)
 Thermal correction to Energy=                    0.011786
 Thermal correction to Enthalpy=                  0.012730
 Thermal correction to Gibbs Free Energy=        -0.013674
 Sum of electronic and zero-point Energies=           -113.606718
 Sum of electronic and thermal Energies=              -113.603845
 Sum of electronic and thermal Enthalpies=            -113.602901
 Sum of electronic and thermal Free Energies=         -113.629305

                     E (Thermal)             CV                S
                      KCal/Mol        Cal/Mol-Kelvin    Cal/Mol-Kelvin
 Total                    7.396              6.463             55.572
 Electronic               0.000              0.000              2.755
 Translational            0.889              2.981             36.673
 Rotational               0.889              2.981             16.044
 Vibrational              5.618              0.502              0.100

 Optimization completed.
    -- Stationary point found.
 Normal termination of Gaussian 09 at Thu Jan 24 15:32:08 2019.
