 Gaussian 09, Revision D.01,
 Gaussian 09:  ES64L-G09RevD.01 24-Apr-2013

 ---------------------------
 #p b3lyp/6-311++g(d,p) freq
 ---------------------------

 ---
 min
 ---
 Symbolic Z-matrix:
 Charge =  0 Multiplicity = 3

                         Standard orientation:
 ---------------------------------------------------------------------
 Center     Atomic      Atomic             Coordinates (Angstroms)
 Number     Number       Type             X           Y           Z
 ---------------------------------------------------------------------
      1          6           0       -0.000000    0.790752    0.000000
      2          6           0        0.684811   -0.395376    0.000000
      3          6           0       -0.684811   -0.395376    0.000000
 ---------------------------------------------------------------------

 SCF Done:  E(UB3LYP) =  -114.046213913     A.U. after    9 cycles

 The electronic state is 3-A1'.
 Alpha  occ. eigenvalues --  -10.28740 -10.28639 -10.28639  -0.99705  -0.55621
 Alpha  occ. eigenvalues --   -0.55621  -0.43202  -0.40678  -0.30666  -0.30666
 Alpha virt. eigenvalues --   -0.06420  -0.06420   0.03260   0.03748   0.03748
 Alpha virt. eigenvalues --    0.05003   0.09245   0.09245   0.09820   0.11057
 Alpha virt. eigenvalues --    0.11057   0.11767   0.17655   0.17655   0.19458

  Beta  occ. eigenvalues --  -10.27355 -10.27259 -10.27259  -0.97845  -0.49700
  Beta  occ. eigenvalues --   -0.49700  -0.41876  -0.32982
  Beta virt. eigenvalues --   -0.17392  -0.17392  -0.04159  -0.04159   0.04059
  Beta virt. eigenvalues --    0.04096   0.04096   0.05064   0.09676   0.09676
  Beta virt. eigenvalues --    0.10150   0.11405   0.11405   0.13305   0.18047

 Mulliken charges and spin densities:
               1          2
     1  C   -0.000000   0.666667
     2  C    0.000000   0.666667
     3  C    0.000000   0.666667
 Sum of Mulliken charges =   0.00000   2.00000

 Dipole moment (field-independent basis, Debye):
    X=             -0.0000    Y=             -0.0000    Z=             -0.0000  Tot=              0.0000
 Quadrupole moment (field-independent basis, Debye-Ang):
   XX=            -18.3909   YY=            -18.3909   ZZ=            -16.2812
   XY=              0.0000   XZ=              0.0000   YZ=             -0.0000

  Exact polarizability:  34.064  -0.000  34.063  -0.000  -0.000  18.757
 Approx polarizability:  59.182   0.000  59.182   0.000   0.000  26.172

                      1                      2                      3
                     E'                     E'                     A1'
 Frequencies --   1157.0326              1157.0326              1615.7428
 Red. masses --     12.0000                12.0000                12.0000
 Frc consts  --      9.4650                 9.4650                18.4576
 IR Inten    --      0.9876                 0.9877                 0.0000

 - Thermochemistry -
 -------------------
 Temperature   298.150 Kelvin.  Pressure   1.00000 Atm.
 Atom     1 has atomic number  6 and mass  12.00000

 Molecular mass:    36.00000 amu.
 Principal axes and moments of inertia in atomic units:
                           1         2         3
     Eigenvalues --    40.19300  40.19300  80.38601
           X           -0.55615   0.83108   0.00000
           Y            0.83108   0.55615   0.00000
           Z           -0.00000  -0.00000   1.00000
 This molecule is an oblate symmetric top.
 Rotational symmetry number  6.
 Rotational temperatures (Kelvin)      2.15495     2.15495     1.07747
 Rotational constants (GHZ):          44.90187    44.90187    22.45094
 Zero-point vibrational energy      23505.5 (Joules/Mol)
                                    5.61794 (Kcal/Mol)
 Vibrational temperatures:   1664.71  1664.71  2324.69
          (Kelvin)

 Zero-point correction=                           0.008953 (Hartree/Particle)
 Thermal correction to Energy=                    0.011828
 Thermal correction to Enthalpy=                  0.012772
 Thermal correction to Gibbs Free Energy=        -0.013314
 Sum of electronic and zero-point Energies=           -114.037261
 Sum of electronic and thermal Energies=              -114.034386
 Sum of electronic and thermal Enthalpies=            -114.033442
 Sum of electronic and thermal Free Energies=         -114.059528

                     E (Thermal)             CV                S
                      KCal/Mol        Cal/Mol-Kelvin    Cal/Mol-Kelvin
 Total                    7.422              6.481             54.903
 Electronic               0.000              0.000              2.183
 Translational            0.889              2.981             36.673
 Rotational               0.889              2.981             15.941
 Vibrational              5.645              0.519              0.106

 Optimization completed.
    -- Stationary point found.
 Normal termination of Gaussian 09 at Sun Mar  4 20:55:28 2018.
