 Gaussian 09, Revision D.01,
 Gaussian 09:  ES64L-G09RevD.01 24-Apr-2013

 ---------------------------
 #p b3lyp/6-311++g(d,p) freq
 ---------------------------

 ---
 min
 ---
 Symbolic Z-matrix:
 Charge =  0 Multiplicity = 1

                         Standard orientation:
 ---------------------------------------------------------------------
 Center     Atomic      Atomic             Coordinates (Angstroms)
 Number     Number       Type             X           Y           Z
 ---------------------------------------------------------------------
      1          6           0        0.000000    0.000000    1.290898
      2          6           0        0.000000    0.000000    0.000000
      3          6           0        0.000000    0.000000   -1.290898
 ---------------------------------------------------------------------

 SCF Done:  E(RB3LYP) =  -114.076913540     A.U. after    9 cycles

 The electronic state is 1-SGG.
 Alpha  occ. eigenvalues --  -10.30671 -10.30670 -10.21428  -0.85530  -0.73733
 Alpha  occ. eigenvalues --   -0.38581  -0.38581  -0.37625  -0.34468
 Alpha virt. eigenvalues --   -0.17517  -0.17517   0.01535   0.03530   0.03530
 Alpha virt. eigenvalues --    0.05005   0.06925   0.07907   0.07907   0.09664
 Alpha virt. eigenvalues --    0.09664   0.13016   0.15493   0.15493   0.20781

 Mulliken charges:
               1
     1  C   -0.247480
     2  C    0.494960
     3  C   -0.247480
 Sum of Mulliken charges =   0.00000

 Dipole moment (field-independent basis, Debye):
    X=             -0.0000    Y=             -0.0000    Z=              0.0000  Tot=              0.0000
 Quadrupole moment (field-independent basis, Debye-Ang):
   XX=            -16.7005   YY=            -16.7005   ZZ=            -22.8945
   XY=             -0.0000   XZ=              0.0000   YZ=             -0.0000

  Exact polarizability:  21.698   0.000  21.698   0.000   0.000  50.399
 Approx polarizability:  29.699  -0.000  29.699  -0.000  -0.000 125.438

                      1                      2                      3
                     PIU                    PIU                    SGG
 Frequencies --    153.8939               153.8939              1235.7067
 Red. masses --     12.0000                12.0000                12.0000
 Frc consts  --      0.1674                 0.1674                10.7960
 IR Inten    --     13.3356                13.3356                 0.0000

                      4
                     SGU
 Frequencies --   2144.2513
 Red. masses --     12.0000
 Frc consts  --     32.5074
 IR Inten    --    876.1252

 - Thermochemistry -
 -------------------
 Temperature   298.150 Kelvin.  Pressure   1.00000 Atm.
 Atom     1 has atomic number  6 and mass  12.00000

 Molecular mass:    36.00000 amu.
 Principal axes and moments of inertia in atomic units:
                           1         2         3
     Eigenvalues --     0.00000 142.82125 142.82125
           X           -0.00000   1.00000  -0.00000
           Y            0.00000   0.00000   1.00000
           Z            1.00000   0.00000  -0.00000
 This molecule is a prolate symmetric top.
 Rotational symmetry number  2.
 Rotational temperature (Kelvin)      0.60645
 Rotational constant (GHZ):          12.636363
 Zero-point vibrational energy      22057.6 (Joules/Mol)
                                    5.27190 (Kcal/Mol)
 Warning -- explicit consideration of   2 degrees of freedom as
           vibrations may cause significant error
 Vibrational temperatures:    221.42   221.42  1777.90  3085.10
          (Kelvin)

 Zero-point correction=                           0.008401 (Hartree/Particle)
 Thermal correction to Energy=                    0.012050
 Thermal correction to Enthalpy=                  0.012994
 Thermal correction to Gibbs Free Energy=        -0.013082
 Sum of electronic and zero-point Energies=           -114.068512
 Sum of electronic and thermal Energies=              -114.064864
 Sum of electronic and thermal Enthalpies=            -114.063920
 Sum of electronic and thermal Free Energies=         -114.089996

                     E (Thermal)             CV                S
                      KCal/Mol        Cal/Mol-Kelvin    Cal/Mol-Kelvin
 Total                    7.561              8.954             54.882
 Electronic               0.000              0.000              0.000
 Translational            0.889              2.981             36.673
 Rotational               0.592              1.987             12.926
 Vibrational              6.080              3.986              5.283
 Vibration     1          0.619              1.898              2.624
 Vibration     2          0.619              1.898              2.624

 Optimization completed.
    -- Stationary point found.
 Normal termination of Gaussian 09 at Sun Mar  4 20:55:25 2018.
