 Gaussian 09, Revision D.01,
 Gaussian 09:  ES64L-G09RevD.01 24-Apr-2013

 ---------------------------
 #p b3lyp/6-311++g(d,p) freq
 ---------------------------

 ---
 min
 ---
 Symbolic Z-matrix:
 Charge =  1 Multiplicity = 4

                         Standard orientation:
 ---------------------------------------------------------------------
 Center     Atomic      Atomic             Coordinates (Angstroms)
 Number     Number       Type             X           Y           Z
 ---------------------------------------------------------------------
      1          6           0        0.000000   -0.000000    1.265768
      2          6           0        0.000000    0.000000    0.000000
      3          6           0        0.000000   -0.000000   -1.265768
 ---------------------------------------------------------------------

 SCF Done:  E(UB3LYP) =  -113.577089194     A.U. after   11 cycles

 Unable to determine electronic state:  an orbital has unidentified symmetry.
 Alpha  occ. eigenvalues --  -10.63494 -10.63491 -10.53214  -1.14715  -1.04550
 Alpha  occ. eigenvalues --   -0.75370  -0.72321  -0.69320  -0.67203  -0.56511
 Alpha virt. eigenvalues --   -0.47959  -0.23034  -0.21938  -0.16603  -0.10902
 Alpha virt. eigenvalues --   -0.10753  -0.10714  -0.08334  -0.05711  -0.05571
 Alpha virt. eigenvalues --   -0.02527   0.00703   0.00889   0.02584   0.06669

  Beta  occ. eigenvalues --  -10.60223 -10.60222 -10.53076  -1.11825  -0.99006
  Beta  occ. eigenvalues --   -0.65525  -0.63956
  Beta virt. eigenvalues --   -0.50983  -0.48038  -0.42272  -0.39189  -0.18254
  Beta virt. eigenvalues --   -0.16813  -0.15970  -0.10127  -0.09335  -0.09190
  Beta virt. eigenvalues --   -0.07431  -0.05248  -0.04891  -0.01361   0.00728

 Mulliken charges and spin densities:
               1          2
     1  C    0.105582   1.356753
     2  C    0.788836   0.286495
     3  C    0.105582   1.356753
 Sum of Mulliken charges =   1.00000   3.00000

 Dipole moment (field-independent basis, Debye):
    X=              0.0000    Y=             -0.0000    Z=             -0.0000  Tot=              0.0000
 Quadrupole moment (field-independent basis, Debye-Ang):
   XX=            -13.3878   YY=            -14.9343   ZZ=             -3.3525
   XY=             -0.0000   XZ=             -0.0000   YZ=             -0.0000

  Exact polarizability:  12.553  -0.000  12.368  -0.000   0.000  38.245
 Approx polarizability:  15.770   0.000  13.664  -0.000  -0.000  99.670

                      1                      2                      3
                     PIU                    PIU                    SGG
 Frequencies --    287.4848               398.4563              1340.9445
 Red. masses --     12.0000                12.0000                12.0000
 Frc consts  --      0.5843                 1.1225                12.7131
 IR Inten    --      8.3271                 7.7436                 0.0000

                      4
                     SGU
 Frequencies --   1920.3040
 Red. masses --     12.0000
 Frc consts  --     26.0718
 IR Inten    --    288.6705

 - Thermochemistry -
 -------------------
 Temperature   298.150 Kelvin.  Pressure   1.00000 Atm.
 Atom     1 has atomic number  6 and mass  12.00000

 Molecular mass:    36.00000 amu.
 Principal axes and moments of inertia in atomic units:
                           1         2         3
     Eigenvalues --     0.00000 137.31476 137.31476
           X           -0.00000   0.96399  -0.26593
           Y           -0.00000   0.26593   0.96399
           Z            1.00000   0.00000  -0.00000
 This molecule is a prolate symmetric top.
 Rotational symmetry number  2.
 Rotational temperature (Kelvin)      0.63077
 Rotational constant (GHZ):          13.143097
 Zero-point vibrational energy      23609.4 (Joules/Mol)
                                    5.64279 (Kcal/Mol)
 Warning -- explicit consideration of   2 degrees of freedom as
           vibrations may cause significant error
 Vibrational temperatures:    413.63   573.29  1929.32  2762.89
          (Kelvin)

 Zero-point correction=                           0.008992 (Hartree/Particle)
 Thermal correction to Energy=                    0.012110
 Thermal correction to Enthalpy=                  0.013054
 Thermal correction to Gibbs Free Energy=        -0.012963
 Sum of electronic and zero-point Energies=           -113.568097
 Sum of electronic and thermal Energies=              -113.564979
 Sum of electronic and thermal Enthalpies=            -113.564035
 Sum of electronic and thermal Free Energies=         -113.590052

                     E (Thermal)             CV                S
                      KCal/Mol        Cal/Mol-Kelvin    Cal/Mol-Kelvin
 Total                    7.599              8.284             54.757
 Electronic               0.000              0.000              2.755
 Translational            0.889              2.981             36.673
 Rotational               0.592              1.987             12.848
 Vibrational              6.118              3.316              2.482
 Vibration     1          0.685              1.697              1.489
 Vibration     2          0.765              1.473              0.968

 Optimization completed.
    -- Stationary point found.
 Normal termination of Gaussian 09 at Thu Jan 24 15:31:40 2019.
