 Gaussian 09, Revision D.01,
 Gaussian 09:  ES64L-G09RevD.01 24-Apr-2013

 ---------------------------
 #p b3lyp/6-311++g(d,p) freq
 ---------------------------

 ---
 min
 ---
 Symbolic Z-matrix:
 Charge =  1 Multiplicity = 2

                         Standard orientation:
 ---------------------------------------------------------------------
 Center     Atomic      Atomic             Coordinates (Angstroms)
 Number     Number       Type             X           Y           Z
 ---------------------------------------------------------------------
      1          6           0       -0.000000    0.723176   -0.366457
      2          6           0       -0.000000   -0.723176   -0.366457
      3          6           0       -0.000000    0.000000    0.732915
 ---------------------------------------------------------------------

 SCF Done:  E(UB3LYP) =  -113.639155899     A.U. after   15 cycles

 The electronic state is 2-B2.
 Alpha  occ. eigenvalues --  -10.65355 -10.65319 -10.61604  -1.32903  -0.90027
 Alpha  occ. eigenvalues --   -0.82899  -0.74813  -0.71081  -0.63808
 Alpha virt. eigenvalues --   -0.49818  -0.38956  -0.32760  -0.15969  -0.14471
 Alpha virt. eigenvalues --   -0.12554  -0.12303  -0.12116  -0.08063  -0.06723
 Alpha virt. eigenvalues --   -0.06176  -0.05064  -0.04505   0.01010   0.02040

  Beta  occ. eigenvalues --  -10.63895 -10.63858 -10.62212  -1.32105  -0.85772
  Beta  occ. eigenvalues --   -0.82097  -0.74208  -0.65873
  Beta virt. eigenvalues --   -0.49927  -0.49257  -0.35759  -0.33030  -0.14173
  Beta virt. eigenvalues --   -0.14048  -0.12368  -0.12334  -0.10144  -0.07982
  Beta virt. eigenvalues --   -0.06254  -0.06131  -0.04845  -0.04589   0.01479

 Mulliken charges and spin densities:
               1          2
     1  C    0.309081   0.607622
     2  C    0.309081   0.607622
     3  C    0.381839  -0.215243
 Sum of Mulliken charges =   1.00000   1.00000

 Dipole moment (field-independent basis, Debye):
    X=             -0.0000    Y=              0.0000    Z=              0.6120  Tot=              0.6120
 Quadrupole moment (field-independent basis, Debye-Ang):
   XX=            -13.5366   YY=            -11.4091   ZZ=            -12.3426
   XY=              0.0000   XZ=              0.0000   YZ=             -0.0000

  Exact polarizability:  13.269  -0.000  28.789   0.000  -0.000  22.800
 Approx polarizability:  18.772   0.000  53.785   0.000  -0.000  50.109

                      1                      2                      3
                     A1                     B2                     A1
 Frequencies --    720.7704              1230.2466              1662.0788
 Red. masses --     12.0000                12.0000                12.0000
 Frc consts  --      3.6730                10.7008                19.5315
 IR Inten    --      3.4341                 5.9878                12.7022

 - Thermochemistry -
 -------------------
 Temperature   298.150 Kelvin.  Pressure   1.00000 Atm.
 Atom     1 has atomic number  6 and mass  12.00000

 Molecular mass:    36.00000 amu.
 Principal axes and moments of inertia in atomic units:
                           1         2         3
     Eigenvalues --    34.52847  44.82254  79.35101
           X            0.00000   0.00000   1.00000
           Y            1.00000  -0.00000  -0.00000
           Z            0.00000   1.00000  -0.00000
 This molecule is an asymmetric top.
 Rotational symmetry number  2.
 Rotational temperatures (Kelvin)      2.50848     1.93237     1.09153
 Rotational constants (GHZ):          52.26821    40.26415    22.74377
 Zero-point vibrational energy      21611.1 (Joules/Mol)
                                    5.16518 (Kcal/Mol)
 Vibrational temperatures:   1037.03  1770.05  2391.36
          (Kelvin)

 Zero-point correction=                           0.008231 (Hartree/Particle)
 Thermal correction to Energy=                    0.011186
 Thermal correction to Enthalpy=                  0.012130
 Thermal correction to Gibbs Free Energy=        -0.014688
 Sum of electronic and zero-point Energies=           -113.630925
 Sum of electronic and thermal Energies=              -113.627970
 Sum of electronic and thermal Enthalpies=            -113.627026
 Sum of electronic and thermal Free Energies=         -113.653844

                     E (Thermal)             CV                S
                      KCal/Mol        Cal/Mol-Kelvin    Cal/Mol-Kelvin
 Total                    7.019              6.980             56.444
 Electronic               0.000              0.000              1.377
 Translational            0.889              2.981             36.673
 Rotational               0.889              2.981             18.069
 Vibrational              5.242              1.018              0.325

 Optimization completed.
    -- Stationary point found.
 Normal termination of Gaussian 09 at Thu Jan 24 15:31:42 2019.
