 Gaussian 09, Revision D.01,
 Gaussian 09:  ES64L-G09RevD.01 24-Apr-2013

 ---------------------------
 #p b3lyp/6-311++g(d,p) freq
 ---------------------------

 ---
 min
 ---
 Symbolic Z-matrix:
 Charge =  0 Multiplicity = 3

                         Standard orientation:
 ---------------------------------------------------------------------
 Center     Atomic      Atomic             Coordinates (Angstroms)
 Number     Number       Type             X           Y           Z
 ---------------------------------------------------------------------
      1          6           0        0.000000    0.000000    1.293841
      2          6           0        0.000000    0.000000   -1.293841
      3          6           0        0.000000    0.000000    0.000000
 ---------------------------------------------------------------------

 SCF Done:  E(UB3LYP) =  -113.996235621     A.U. after   11 cycles

 Unable to determine electronic state:  partially filled degenerate orbitals.
 Alpha  occ. eigenvalues --  -10.29939 -10.29937 -10.23274  -0.84835  -0.74069
 Alpha  occ. eigenvalues --   -0.42248  -0.39659  -0.39002  -0.37866  -0.26208
 Alpha virt. eigenvalues --   -0.18149   0.01824   0.03125   0.03355   0.04400
 Alpha virt. eigenvalues --    0.06724   0.06746   0.07649   0.09374   0.09621
 Alpha virt. eigenvalues --    0.12704   0.15478   0.15572   0.20739   0.23781

  Beta  occ. eigenvalues --  -10.28064 -10.28063 -10.23417  -0.82721  -0.69559
  Beta  occ. eigenvalues --   -0.37195  -0.35679  -0.32316
  Beta virt. eigenvalues --   -0.25542  -0.15219  -0.12346   0.02355   0.03706
  Beta virt. eigenvalues --    0.04125   0.05016   0.06866   0.08989   0.09862
  Beta virt. eigenvalues --    0.10233   0.10463   0.13319   0.15582   0.15976

 Mulliken charges and spin densities:
               1          2
     1  C   -0.301786   0.950230
     2  C   -0.301786   0.950230
     3  C    0.603571   0.099541
 Sum of Mulliken charges =   0.00000   2.00000

 Dipole moment (field-independent basis, Debye):
    X=             -0.0000    Y=              0.0000    Z=             -0.0000  Tot=              0.0000
 Quadrupole moment (field-independent basis, Debye-Ang):
   XX=            -18.1919   YY=            -16.3776   ZZ=            -18.6564
   XY=             -0.0000   XZ=              0.0000   YZ=              0.0000

  Exact polarizability:  17.711   0.000  18.086  -0.000  -0.000 288.648
 Approx polarizability:  21.535  -0.000  23.832  -0.000  -0.000 383.816

                      1                      2                      3
                     PIU                    PIU                    SGU
 Frequencies --    242.3122               394.8553               418.8395
 Red. masses --     12.0000                12.0000                12.0000
 Frc consts  --      0.4151                 1.1023                 1.2403
 IR Inten    --      0.0464                 1.7033             21911.1109

                      4
                     SGG
 Frequencies --   1217.7991
 Red. masses --     12.0000
 Frc consts  --     10.4853
 IR Inten    --      0.0000

 - Thermochemistry -
 -------------------
 Temperature   298.150 Kelvin.  Pressure   1.00000 Atm.
 Atom     1 has atomic number  6 and mass  12.00000

 Molecular mass:    36.00000 amu.
 Principal axes and moments of inertia in atomic units:
                           1         2         3
     Eigenvalues --     0.00000 143.47324 143.47324
           X           -0.00000   1.00000  -0.00000
           Y            0.00000   0.00000   1.00000
           Z            1.00000   0.00000  -0.00000
 This molecule is a prolate symmetric top.
 Rotational symmetry number  2.
 Rotational temperature (Kelvin)      0.60369
 Rotational constant (GHZ):          12.578939
 Zero-point vibrational energy      13600.4 (Joules/Mol)
                                    3.25057 (Kcal/Mol)
 Warning -- explicit consideration of   3 degrees of freedom as
           vibrations may cause significant error
 Vibrational temperatures:    348.63   568.11   602.62  1752.14
          (Kelvin)

 Zero-point correction=                           0.005180 (Hartree/Particle)
 Thermal correction to Energy=                    0.008659
 Thermal correction to Enthalpy=                  0.009604
 Thermal correction to Gibbs Free Energy=        -0.016763
 Sum of electronic and zero-point Energies=           -113.991056
 Sum of electronic and thermal Energies=              -113.987576
 Sum of electronic and thermal Enthalpies=            -113.986632
 Sum of electronic and thermal Free Energies=         -114.012998

                     E (Thermal)             CV                S
                      KCal/Mol        Cal/Mol-Kelvin    Cal/Mol-Kelvin
 Total                    5.434              9.847             55.493
 Electronic               0.000              0.000              2.183
 Translational            0.889              2.981             36.673
 Rotational               0.592              1.987             12.935
 Vibrational              3.953              4.879              3.702
 Vibration     1          0.659              1.775              1.786
 Vibration     2          0.762              1.481              0.982
 Vibration     3          0.782              1.429              0.896

 Optimization completed.
    -- Stationary point found.
 Normal termination of Gaussian 09 at Sun Mar  4 20:55:30 2018.
