 Gaussian 09, Revision D.01,
 Gaussian 09:  ES64L-G09RevD.01 24-Apr-2013

 ---------------------------
 #p b3lyp/6-311++g(d,p) freq
 ---------------------------

 ---
 min
 ---
 Symbolic Z-matrix:
 Charge =  1 Multiplicity = 2

                         Standard orientation:
 ---------------------------------------------------------------------
 Center     Atomic      Atomic             Coordinates (Angstroms)
 Number     Number       Type             X           Y           Z
 ---------------------------------------------------------------------
      1          6           0        0.971641    0.827716    0.000000
      2          6           0       -0.000000    0.049991    0.000000
      3          6           0       -0.971641   -0.877706   -0.000000
 ---------------------------------------------------------------------

 SCF Done:  E(UB3LYP) =  -113.630522335     A.U. after   23 cycles

 The electronic state is 2-A'.
 Alpha  occ. eigenvalues --  -10.66859 -10.63699 -10.53722  -1.16063  -1.04094
 Alpha  occ. eigenvalues --   -0.75985  -0.68239  -0.68233  -0.63612
 Alpha virt. eigenvalues --   -0.46990  -0.46966  -0.23028  -0.22779  -0.17430
 Alpha virt. eigenvalues --   -0.11154  -0.11142  -0.10863  -0.07780  -0.05649
 Alpha virt. eigenvalues --   -0.05585  -0.02340  -0.00582   0.00423   0.00552

  Beta  occ. eigenvalues --  -10.64267 -10.63891 -10.53688  -1.14770  -1.02817
  Beta  occ. eigenvalues --   -0.67090  -0.67088  -0.63699
  Beta virt. eigenvalues --   -0.53225  -0.45423  -0.45396  -0.21669  -0.21367
  Beta virt. eigenvalues --   -0.17185  -0.10915  -0.10914  -0.09983  -0.07631
  Beta virt. eigenvalues --   -0.05521  -0.05462  -0.02042   0.00020   0.00402

 Mulliken charges and spin densities:
               1          2
     1  C    0.255484   0.982543
     2  C    0.408321   0.144031
     3  C    0.336195  -0.126574
 Sum of Mulliken charges =   1.00000   1.00000

 Dipole moment (field-independent basis, Debye):
    X=              1.3651    Y=              1.1908    Z=              0.0000  Tot=              1.8115
 Quadrupole moment (field-independent basis, Debye-Ang):
   XX=            -10.0110   YY=            -11.1935   ZZ=            -13.8540
   XY=              3.2044   XZ=             -0.0000   YZ=              0.0000

  Exact polarizability:  35.317  17.324  30.036   0.001   0.001  15.152
 Approx polarizability:  94.320  64.103  74.987   0.000   0.000  19.747

                      1                      2                      3
                     A'                     A'                     A'
 Frequencies --    115.1172              1193.6953              2019.8083
 Red. masses --     12.0000                12.0000                12.0000
 Frc consts  --      0.0937                10.0744                28.8437
 IR Inten    --      0.4769                58.3748               130.2509

 - Thermochemistry -
 -------------------
 Temperature   298.150 Kelvin.  Pressure   1.00000 Atm.
 Atom     1 has atomic number  6 and mass  12.00000

 Molecular mass:    36.00000 amu.
 Principal axes and moments of inertia in atomic units:
                           1         2         3
     Eigenvalues --     0.09070 143.30135 143.39205
           X            0.75124  -0.66003   0.00000
           Y            0.66003   0.75124   0.00000
           Z           -0.00000   0.00000   1.00000
 This molecule is an asymmetric top.
 Rotational symmetry number  1.
 Rotational temperatures (Kelvin)    954.92181     0.60442     0.60403
 Rotational constants (GHZ):       19897.36589    12.59403    12.58606
 Zero-point vibrational energy      19909.6 (Joules/Mol)
                                    4.75850 (Kcal/Mol)
 Warning -- explicit consideration of   1 degrees of freedom as
           vibrations may cause significant error
 Vibrational temperatures:    165.63  1717.46  2906.05
          (Kelvin)

 Zero-point correction=                           0.007583 (Hartree/Particle)
 Thermal correction to Energy=                    0.011140
 Thermal correction to Enthalpy=                  0.012084
 Thermal correction to Gibbs Free Energy=        -0.014790
 Sum of electronic and zero-point Energies=           -113.622939
 Sum of electronic and thermal Energies=              -113.619383
 Sum of electronic and thermal Enthalpies=            -113.618439
 Sum of electronic and thermal Free Energies=         -113.645312

                     E (Thermal)             CV                S
                      KCal/Mol        Cal/Mol-Kelvin    Cal/Mol-Kelvin
 Total                    6.990              8.119             56.560
 Electronic               0.000              0.000              1.377
 Translational            0.889              2.981             36.673
 Rotational               0.889              2.981             15.285
 Vibrational              5.213              2.157              3.224
 Vibration     1          0.608              1.937              3.181

 Normal termination of Gaussian 09 at Thu Jan 24 15:31:45 2019.
