 Gaussian 09, Revision D.01,
 Gaussian 09:  ES64L-G09RevD.01 24-Apr-2013

 ---------------------------
 #p b3lyp/6-311++g(d,p) freq
 ---------------------------

 ---
 min
 ---
 Symbolic Z-matrix:
 Charge =  1 Multiplicity = 4

                         Standard orientation:
 ---------------------------------------------------------------------
 Center     Atomic      Atomic             Coordinates (Angstroms)
 Number     Number       Type             X           Y           Z
 ---------------------------------------------------------------------
      1          6           0        0.767715    0.333521    0.000107
      2          6           0        2.027856   -0.176717   -0.000254
      3          6           0       -0.550466   -0.142695    0.000599
      4          8           0       -1.683829   -0.010582   -0.000339
 ---------------------------------------------------------------------

 SCF Done:  E(UB3LYP) =  -188.909151899     A.U. after   26 cycles

 The electronic state is 4-A.
 Alpha  occ. eigenvalues --  -19.51792 -10.61460 -10.61030 -10.59784  -1.44568
 Alpha  occ. eigenvalues --   -1.15101  -0.99250  -0.81608  -0.76879  -0.76754
 Alpha  occ. eigenvalues --   -0.71021  -0.65814  -0.65076  -0.50108
 Alpha virt. eigenvalues --   -0.41388  -0.31360  -0.23929  -0.16156  -0.13611
 Alpha virt. eigenvalues --   -0.11390  -0.10933  -0.07560  -0.07256  -0.06220
 Alpha virt. eigenvalues --   -0.06043  -0.04668  -0.03495  -0.02042   0.01133

  Beta  occ. eigenvalues --  -19.50885 -10.60674 -10.58520 -10.58099  -1.42942
  Beta  occ. eigenvalues --   -1.09324  -0.94312  -0.80036  -0.74254  -0.73343
  Beta  occ. eigenvalues --   -0.59867
  Beta virt. eigenvalues --   -0.51861  -0.48750  -0.35736  -0.34704  -0.26459
  Beta virt. eigenvalues --   -0.18597  -0.15056  -0.12108  -0.10901  -0.10474
  Beta virt. eigenvalues --   -0.06926  -0.05810  -0.05564  -0.05131  -0.03630

 Mulliken charges and spin densities:
               1          2
     1  C    0.449062   0.810361
     2  C    0.401853   1.705413
     3  C    0.020289   0.177941
     4  O    0.128796   0.306285
 Sum of Mulliken charges =   1.00000   3.00000

 Dipole moment (field-independent basis, Debye):
    X=              3.1770    Y=             -0.2310    Z=              0.0011  Tot=              3.1853
 Quadrupole moment (field-independent basis, Debye-Ang):
   XX=             -8.8142   YY=            -20.1085   ZZ=            -17.4844
   XY=              0.0064   XZ=             -0.0026   YZ=              0.0033

  Exact polarizability:  70.408  -8.988  25.137   0.004  -0.007  14.948
 Approx polarizability: 139.648 -11.404  34.507   0.007  -0.007  21.000

                      1                      2                      3
                      A                      A                      A
 Frequencies --    212.3815               256.9795               385.0885
 Red. masses --     12.6559                12.8372                12.2166
 Frc consts  --      0.3363                 0.4995                 1.0674
 IR Inten    --     18.6584                 6.9688                10.8451

                      4                      5                      6
                      A                      A                      A
 Frequencies --    718.3956              1282.8532              2070.6350
 Red. masses --     12.8205                12.1509                13.2502
 Frc consts  --      3.8984                11.7818                33.4717
 IR Inten    --     47.1645               249.6961               192.3396

 - Thermochemistry -
 -------------------
 Temperature   298.150 Kelvin.  Pressure   1.00000 Atm.
 Atom     1 has atomic number  6 and mass  12.00000

 Molecular mass:    51.99491 amu.
 Principal axes and moments of inertia in atomic units:
                           1         2         3
     Eigenvalues --     6.98402 376.40907 383.39304
           X            1.00000   0.00000   0.00000
           Y           -0.00000   1.00000   0.00000
           Z           -0.00000  -0.00000   1.00000
 This molecule is an asymmetric top.
 Rotational symmetry number  1.
 Rotational temperatures (Kelvin)     12.40172     0.23011     0.22591
 Rotational constants (GHZ):         258.41025     4.79463     4.70729
 Zero-point vibrational energy      29466.0 (Joules/Mol)
                                    7.04255 (Kcal/Mol)
 Warning -- explicit consideration of   3 degrees of freedom as
           vibrations may cause significant error
 Vibrational temperatures:    305.57   369.74   554.06  1033.61  1845.74
          (Kelvin)           2979.18

 Zero-point correction=                           0.011223 (Hartree/Particle)
 Thermal correction to Energy=                    0.015516
 Thermal correction to Enthalpy=                  0.016460
 Thermal correction to Gibbs Free Energy=        -0.015422
 Sum of electronic and zero-point Energies=           -188.897929
 Sum of electronic and thermal Energies=              -188.893636
 Sum of electronic and thermal Enthalpies=            -188.892692
 Sum of electronic and thermal Free Energies=         -188.924574

                     E (Thermal)             CV                S
                      KCal/Mol        Cal/Mol-Kelvin    Cal/Mol-Kelvin
 Total                    9.736             11.997             67.101
 Electronic               0.000              0.000              2.755
 Translational            0.889              2.981             37.769
 Rotational               0.889              2.981             21.538
 Vibrational              7.959              6.035              5.040
 Vibration     1          0.643              1.822              2.023
 Vibration     2          0.667              1.751              1.682
 Vibration     3          0.754              1.502              1.019

 Optimization completed.
    -- Stationary point found.
 Normal termination of Gaussian 09 at Thu Jan 24 15:34:27 2019.
