 Gaussian 09, Revision D.01,
 Gaussian 09:  ES64L-G09RevD.01 24-Apr-2013

 ---------------------------
 #p b3lyp/6-311++g(d,p) freq
 ---------------------------

 ---
 min
 ---
 Symbolic Z-matrix:
 Charge =  0 Multiplicity = 1

                         Standard orientation:
 ---------------------------------------------------------------------
 Center     Atomic      Atomic             Coordinates (Angstroms)
 Number     Number       Type             X           Y           Z
 ---------------------------------------------------------------------
      1          6           0       -0.000000   -0.000000   -1.794011
      2          6           0        0.000000    0.000000    1.939092
      3          6           0        0.000000    0.000000    0.680888
      4          8           0       -0.000000   -0.000000   -0.619477
 ---------------------------------------------------------------------

 SCF Done:  E(RB3LYP) =  -189.279308721     A.U. after   15 cycles

 The electronic state is 1-SG.
 Alpha  occ. eigenvalues --  -19.39952 -10.38560 -10.25188 -10.21057  -1.31344
 Alpha  occ. eigenvalues --   -0.94153  -0.73911  -0.62510  -0.62510  -0.45870
 Alpha  occ. eigenvalues --   -0.30480  -0.30480  -0.29308
 Alpha virt. eigenvalues --   -0.13822  -0.13822  -0.01318   0.02396   0.02991
 Alpha virt. eigenvalues --    0.02991   0.05994   0.05994   0.07001   0.08931
 Alpha virt. eigenvalues --    0.10207   0.10207   0.11235   0.14768   0.14768

 Mulliken charges:
               1
     1  C    0.032207
     2  C   -0.651852
     3  C    0.225636
     4  O    0.394009
 Sum of Mulliken charges =  -0.00000

 Dipole moment (field-independent basis, Debye):
    X=             -0.0000    Y=             -0.0000    Z=             -4.3990  Tot=              4.3990
 Quadrupole moment (field-independent basis, Debye-Ang):
   XX=            -22.1342   YY=            -22.1342   ZZ=            -32.2658
   XY=              0.0000   XZ=             -0.0000   YZ=             -0.0000

  Exact polarizability:  24.028  -0.000  24.028   0.000   0.000  85.678
 Approx polarizability:  32.534   0.000  32.534   0.000   0.000 228.540

                      1                      2                      3
                     PI                     PI                     PI
 Frequencies --    124.7710               124.7710               374.2303
 Red. masses --     12.1140                12.1140                14.0754
 Frc consts  --      0.1111                 0.1111                 1.1614
 IR Inten    --      0.2106                 0.2106                 9.4888

                      4                      5                      6
                     PI                     SG                     SG
 Frequencies --    374.2303               850.6383              1837.7982
 Red. masses --     14.0754                12.5867                13.5239
 Frc consts  --      1.1614                 5.3660                26.9121
 IR Inten    --      9.4888                 8.8461                 0.4151

                      7
                     SG
 Frequencies --   2010.9723
 Red. masses --     12.1659
 Frc consts  --     28.9872
 IR Inten    --    638.0147

 - Thermochemistry -
 -------------------
 Temperature   298.150 Kelvin.  Pressure   1.00000 Atm.
 Atom     1 has atomic number  6 and mass  12.00000

 Molecular mass:    51.99491 amu.
 Principal axes and moments of inertia in atomic units:
                           1         2         3
     Eigenvalues --     0.00000 340.83670 340.83670
           X            0.00000  -0.08024   0.99678
           Y            0.00000   0.99678   0.08024
           Z            1.00000  -0.00000  -0.00000
 This molecule is a prolate symmetric top.
 Rotational symmetry number  1.
 Rotational temperature (Kelvin)      0.25412
 Rotational constant (GHZ):           5.295032
 Zero-point vibrational energy      34078.1 (Joules/Mol)
                                    8.14486 (Kcal/Mol)
 Warning -- explicit consideration of   4 degrees of freedom as
           vibrations may cause significant error
 Vibrational temperatures:    179.52   179.52   538.43   538.43  1223.88
          (Kelvin)           2644.18  2893.34

 Zero-point correction=                           0.012980 (Hartree/Particle)
 Thermal correction to Energy=                    0.017454
 Thermal correction to Enthalpy=                  0.018398
 Thermal correction to Gibbs Free Energy=        -0.011131
 Sum of electronic and zero-point Energies=           -189.266329
 Sum of electronic and thermal Energies=              -189.261855
 Sum of electronic and thermal Enthalpies=            -189.260911
 Sum of electronic and thermal Free Energies=         -189.290440

                     E (Thermal)             CV                S
                      KCal/Mol        Cal/Mol-Kelvin    Cal/Mol-Kelvin
 Total                   10.953             12.479             62.149
 Electronic               0.000              0.000              0.000
 Translational            0.889              2.981             37.769
 Rotational               0.592              1.987             16.032
 Vibrational              9.471              7.511              8.349
 Vibration     1          0.610              1.928              3.025
 Vibration     2          0.610              1.928              3.025
 Vibration     3          0.745              1.525              1.062
 Vibration     4          0.745              1.525              1.062

 Optimization completed.
    -- Stationary point found.

 1\1\ CITASK-GV0205\Freq\RB3LYP\6-311++G(d,p)\C3O1\EERD\04-Mar-2018\0\\
 #p b3lyp/6-311++g(d,p) freq\\min\\0,1\C,0.0076925957,1.7756819193,0.04
 31590942\C,0.2825926589,-1.9467043478,-0.0226057098\C,0.1899404157,-0.
 6921122835,-0.000440358\O,0.0941834975,0.6045197843,0.0224677304\\Vers
 ion=ES64L-G09RevD.01\State=1-SG\HF=-189.2793087\RMSD=1.352e-09\RMSF=1.
 737e-04\ZeroPoint=0.0129797\Thermal=0.017454\Dipole=-0.1274448,1.72571
 35,0.0304888\DipoleDeriv=0.030045,0.0032677,0.0000577,0.0032677,-0.013
 9611,-0.0007817,0.0000577,-0.0007817,0.0302725,-0.2362404,-0.11797,-0.

 Normal termination of Gaussian 09 at Sun Mar  4 20:56:21 2018.
