 Gaussian 09, Revision D.01,
 Gaussian 09:  ES64L-G09RevD.01 24-Apr-2013

 ---------------------------
 #p b3lyp/6-311++g(d,p) freq
 ---------------------------

 ---
 min
 ---
 Symbolic Z-matrix:
 Charge =  1 Multiplicity = 2

                         Standard orientation:
 ---------------------------------------------------------------------
 Center     Atomic      Atomic             Coordinates (Angstroms)
 Number     Number       Type             X           Y           Z
 ---------------------------------------------------------------------
      1          6           0       -0.000000    0.000000    1.998960
      2          6           0       -0.000000    0.000000    0.784820
      3          6           0        0.000000   -0.000000   -0.551366
      4          8           0        0.000000   -0.000000   -1.674310
 ---------------------------------------------------------------------

 SCF Done:  E(UB3LYP) =  -189.044793634     A.U. after   15 cycles

 The electronic state is 2-SG.
 Alpha  occ. eigenvalues --  -19.53116 -10.64173 -10.59981 -10.51750  -1.46422
 Alpha  occ. eigenvalues --   -1.12488  -1.01067  -0.82499  -0.77662  -0.77662
 Alpha  occ. eigenvalues --   -0.71275  -0.63143  -0.63143
 Alpha virt. eigenvalues --   -0.38992  -0.38992  -0.18519  -0.16399  -0.16399
 Alpha virt. eigenvalues --   -0.14586  -0.11089  -0.11089  -0.08391  -0.06619
 Alpha virt. eigenvalues --   -0.05620  -0.05620  -0.01982   0.00301   0.00301

  Beta  occ. eigenvalues --  -19.53348 -10.64121 -10.57385 -10.51728  -1.46779
  Beta  occ. eigenvalues --   -1.11754  -0.99330  -0.82760  -0.78215  -0.78215
  Beta  occ. eigenvalues --   -0.61783  -0.61783
  Beta virt. eigenvalues --   -0.48126  -0.37002  -0.37002  -0.18499  -0.15076
  Beta virt. eigenvalues --   -0.15076  -0.14401  -0.10915  -0.10915  -0.07277
  Beta virt. eigenvalues --   -0.06554  -0.05238  -0.05238  -0.01232   0.00294

 Mulliken charges and spin densities:
               1          2
     1  C    0.440831   0.862755
     2  C    1.479681   0.131838
     3  C   -1.041077   0.085841
     4  O    0.120564  -0.080434
 Sum of Mulliken charges =   1.00000   1.00000

 Dipole moment (field-independent basis, Debye):
    X=             -0.0000    Y=              0.0000    Z=              2.6950  Tot=              2.6950
 Quadrupole moment (field-independent basis, Debye-Ang):
   XX=            -18.5257   YY=            -18.5257   ZZ=             -6.8777
   XY=             -0.0000   XZ=              0.0000   YZ=              0.0000

  Exact polarizability:  13.665   0.000  13.665   0.000   0.000  51.641
 Approx polarizability:  16.791  -0.000  16.791  -0.000   0.000 126.774

                      1                      2                      3
                     PI                     PI                     PI
 Frequencies --    206.5324               206.5324               589.1080
 Red. masses --     12.4358                12.4358                12.3712
 Frc consts  --      0.3125                 0.3125                 2.5296
 IR Inten    --      0.0614                 0.0614                24.0701

                      4                      5                      6
                     PI                     SG                     SG
 Frequencies --    589.1080               953.9922              2177.6025
 Red. masses --     12.3712                13.1696                12.3466
 Frc consts  --      2.5296                 7.0618                34.4950
 IR Inten    --     24.0701                 4.6709                40.9629

                      7
                     SG
 Frequencies --   2415.5837
 Red. masses --     12.7124
 Frc consts  --     43.7042
 IR Inten    --    776.2122

 - Thermochemistry -
 -------------------
 Temperature   298.150 Kelvin.  Pressure   1.00000 Atm.
 Atom     1 has atomic number  6 and mass  12.00000

 Molecular mass:    51.99491 amu.
 Principal axes and moments of inertia in atomic units:
                           1         2         3
     Eigenvalues --     0.00000 370.77741 370.77741
           X           -0.00000  -0.22815   0.97363
           Y            0.00000   0.97363   0.22815
           Z            1.00000  -0.00000   0.00000
 This molecule is a prolate symmetric top.
 Rotational symmetry number  1.
 Rotational temperature (Kelvin)      0.23360
 Rotational constant (GHZ):           4.867452
 Zero-point vibrational energy      42697.5 (Joules/Mol)
                                   10.20494 (Kcal/Mol)
 Warning -- explicit consideration of   4 degrees of freedom as
           vibrations may cause significant error
 Vibrational temperatures:    297.15   297.15   847.59   847.59  1372.58
          (Kelvin)           3133.08  3475.48

 Zero-point correction=                           0.016263 (Hartree/Particle)
 Thermal correction to Energy=                    0.020101
 Thermal correction to Enthalpy=                  0.021045
 Thermal correction to Gibbs Free Energy=        -0.007722
 Sum of electronic and zero-point Energies=           -189.028531
 Sum of electronic and thermal Energies=              -189.024693
 Sum of electronic and thermal Enthalpies=            -189.023749
 Sum of electronic and thermal Free Energies=         -189.052515

                     E (Thermal)             CV                S
                      KCal/Mol        Cal/Mol-Kelvin    Cal/Mol-Kelvin
 Total                   12.613             11.178             60.544
 Electronic               0.000              0.000              1.377
 Translational            0.889              2.981             37.769
 Rotational               0.592              1.987             16.199
 Vibrational             11.132              6.210              5.199
 Vibration     1          0.641              1.831              2.074
 Vibration     2          0.641              1.831              2.074
 Vibration     3          0.946              1.055              0.469
 Vibration     4          0.946              1.055              0.469

 Optimization completed.
    -- Stationary point found.
 Normal termination of Gaussian 09 at Thu Jan 24 15:33:27 2019.
