 Gaussian 09, Revision D.01,
 Gaussian 09:  ES64L-G09RevD.01 24-Apr-2013

 ---------------------------
 #p b3lyp/6-311++g(d,p) freq
 ---------------------------

 ---
 min
 ---
 Symbolic Z-matrix:
 Charge =  1 Multiplicity = 2

                         Standard orientation:
 ---------------------------------------------------------------------
 Center     Atomic      Atomic             Coordinates (Angstroms)
 Number     Number       Type             X           Y           Z
 ---------------------------------------------------------------------
      1          6           0       -0.000000    0.000000    1.896806
      2          6           0       -0.000000    0.000000    0.699008
      3          6           0        0.000000   -0.000000   -1.784904
      4          8           0        0.000000   -0.000000   -0.608182
 ---------------------------------------------------------------------

 SCF Done:  E(UB3LYP) =  -188.904832812     A.U. after   15 cycles

 The electronic state is 2-SG.
 Alpha  occ. eigenvalues --  -19.63336 -10.65362 -10.54934 -10.54632  -1.55312
 Alpha  occ. eigenvalues --   -1.18959  -1.04527  -0.85996  -0.85996  -0.68430
 Alpha  occ. eigenvalues --   -0.67257  -0.59503  -0.59503
 Alpha virt. eigenvalues --   -0.37235  -0.37235  -0.21714  -0.20927  -0.20927
 Alpha virt. eigenvalues --   -0.14701  -0.10640  -0.10640  -0.09424  -0.07468
 Alpha virt. eigenvalues --   -0.05182  -0.05182  -0.04634  -0.00342  -0.00342

  Beta  occ. eigenvalues --  -19.63220 -10.65502 -10.54699 -10.52318  -1.55285
  Beta  occ. eigenvalues --   -1.19187  -1.02093  -0.86014  -0.86014  -0.68314
  Beta  occ. eigenvalues --   -0.57952  -0.57952
  Beta virt. eigenvalues --   -0.45052  -0.36908  -0.36908  -0.21728  -0.18405
  Beta virt. eigenvalues --   -0.18405  -0.14668  -0.10702  -0.10702  -0.08064
  Beta virt. eigenvalues --   -0.07318  -0.04866  -0.04866  -0.04264  -0.00201

 Mulliken charges and spin densities:
               1          2
     1  C   -0.205999   0.988898
     2  C    0.456364   0.049852
     3  C    0.306582  -0.075706
     4  O    0.443052   0.036956
 Sum of Mulliken charges =   1.00000   1.00000

 Dipole moment (field-independent basis, Debye):
    X=             -0.0000    Y=              0.0000    Z=             -0.0936  Tot=              0.0936
 Quadrupole moment (field-independent basis, Debye-Ang):
   XX=            -18.9679   YY=            -18.9679   ZZ=             -7.6044
   XY=              0.0000   XZ=             -0.0000   YZ=             -0.0000

  Exact polarizability:  17.253   0.000  17.253   0.000   0.000  57.622
 Approx polarizability:  21.924  -0.000  21.924  -0.000   0.000 126.487

                      1                      2                      3
                     PI                     PI                     PI
 Frequencies --    167.0830               167.0830               289.2081
 Red. masses --     12.3175                12.3175                13.8136
 Frc consts  --      0.2026                 0.2026                 0.6807
 IR Inten    --      1.2388                 1.2388                 0.4657

                      4                      5                      6
                     PI                     SG                     SG
 Frequencies --    289.2081               905.0543              1872.5653
 Red. masses --     13.8136                12.5375                13.7275
 Frc consts  --      0.6807                 6.0508                28.3606
 IR Inten    --      0.4657                 9.5054               131.7952

                      7
                     SG
 Frequencies --   2280.0069
 Red. masses --     12.0508
 Frc consts  --     36.9095
 IR Inten    --    104.6389

 - Thermochemistry -
 -------------------
 Temperature   298.150 Kelvin.  Pressure   1.00000 Atm.
 Atom     1 has atomic number  6 and mass  12.00000

 Molecular mass:    51.99491 amu.
 Principal axes and moments of inertia in atomic units:
                           1         2         3
     Eigenvalues --     0.00000 332.76858 332.76858
           X           -0.00000  -0.06049   0.99817
           Y            0.00000   0.99817   0.06049
           Z            1.00000  -0.00000   0.00000
 This molecule is a prolate symmetric top.
 Rotational symmetry number  1.
 Rotational temperature (Kelvin)      0.26028
 Rotational constant (GHZ):           5.423412
 Zero-point vibrational energy      35709.8 (Joules/Mol)
                                    8.53484 (Kcal/Mol)
 Warning -- explicit consideration of   4 degrees of freedom as
           vibrations may cause significant error
 Vibrational temperatures:    240.39   240.39   416.11   416.11  1302.17
          (Kelvin)           2694.20  3280.42

 Zero-point correction=                           0.013601 (Hartree/Particle)
 Thermal correction to Energy=                    0.018112
 Thermal correction to Enthalpy=                  0.019056
 Thermal correction to Gibbs Free Energy=        -0.010955
 Sum of electronic and zero-point Energies=           -188.891232
 Sum of electronic and thermal Energies=              -188.886721
 Sum of electronic and thermal Enthalpies=            -188.885777
 Sum of electronic and thermal Free Energies=         -188.915788

                     E (Thermal)             CV                S
                      KCal/Mol        Cal/Mol-Kelvin    Cal/Mol-Kelvin
 Total                   11.365             12.638             63.163
 Electronic               0.000              0.000              1.377
 Translational            0.889              2.981             37.769
 Rotational               0.592              1.987             15.984
 Vibrational              9.884              7.670              8.033
 Vibration     1          0.624              1.883              2.468
 Vibration     2          0.624              1.883              2.468
 Vibration     3          0.686              1.694              1.479
 Vibration     4          0.686              1.694              1.479

 Optimization completed.
    -- Stationary point found.
 Normal termination of Gaussian 09 at Thu Jan 24 15:33:28 2019.
