 Gaussian 09, Revision D.01,
 Gaussian 09:  ES64L-G09RevD.01 24-Apr-2013

 ---------------------------
 #p b3lyp/6-311++g(d,p) freq
 ---------------------------

 ---
 min
 ---
 Symbolic Z-matrix:
 Charge =  0 Multiplicity = 1

                         Standard orientation:
 ---------------------------------------------------------------------
 Center     Atomic      Atomic             Coordinates (Angstroms)
 Number     Number       Type             X           Y           Z
 ---------------------------------------------------------------------
      1          6           0        0.000000    0.000000   -0.537041
      2          6           0       -0.000000   -0.000000    0.758018
      3          6           0       -0.000000   -0.000000    2.028084
      4          8           0        0.000000    0.000000   -1.686796
 ---------------------------------------------------------------------

 SCF Done:  E(RB3LYP) =  -189.450990107     A.U. after   12 cycles

 The electronic state is 1-SG.
 Alpha  occ. eigenvalues --  -19.26149 -10.37147 -10.25452 -10.21190  -1.19672
 Alpha  occ. eigenvalues --   -0.84527  -0.71955  -0.58097  -0.52404  -0.52404
 Alpha  occ. eigenvalues --   -0.34360  -0.34360  -0.32172
 Alpha virt. eigenvalues --   -0.12197  -0.12197  -0.00919   0.04006   0.04406
 Alpha virt. eigenvalues --    0.04406   0.06954   0.08193   0.08193   0.10188
 Alpha virt. eigenvalues --    0.11971   0.11971   0.15164   0.15164   0.16361

 Mulliken charges:
               1
     1  C   -1.295294
     2  C    1.426179
     3  C   -0.027875
     4  O   -0.103011
 Sum of Mulliken charges =   0.00000

 Dipole moment (field-independent basis, Debye):
    X=              0.0000    Y=              0.0000    Z=             -2.2125  Tot=              2.2125
 Quadrupole moment (field-independent basis, Debye-Ang):
   XX=            -21.4519   YY=            -21.4519   ZZ=            -30.6880
   XY=              0.0000   XZ=              0.0000   YZ=              0.0000

  Exact polarizability:  19.593  -0.000  19.593  -0.000   0.000  66.634
 Approx polarizability:  25.744   0.000  25.744  -0.000  -0.000 160.595

                      1                      2                      3
                     PI                     PI                     PI
 Frequencies --    162.9615               162.9615               622.0229
 Red. masses --     12.3968                12.3968                12.4079
 Frc consts  --      0.1940                 0.1940                 2.8285
 IR Inten    --      5.2884                 5.2884                28.2002

                      4                      5                      6
                     PI                     SG                     SG
 Frequencies --    622.0229               965.6844              1974.5371
 Red. masses --     12.4079                13.2141                12.5447
 Frc consts  --      2.8285                 7.2604                28.8166
 IR Inten    --     28.2002                 2.1958                38.6594

                      7
                     SG
 Frequencies --   2342.9449
 Red. masses --     12.4691
 Frc consts  --     40.3284
 IR Inten    --   1645.3199

 - Thermochemistry -
 -------------------
 Temperature   298.150 Kelvin.  Pressure   1.00000 Atm.
 Atom     1 has atomic number  6 and mass  12.00000

 Molecular mass:    51.99491 amu.
 Principal axes and moments of inertia in atomic units:
                           1         2         3
     Eigenvalues --     0.00000 375.76035 375.76035
           X           -0.00000   0.36243   0.93201
           Y           -0.00000   0.93201  -0.36243
           Z            1.00000   0.00000   0.00000
 This molecule is a prolate symmetric top.
 Rotational symmetry number  1.
 Rotational temperature (Kelvin)      0.23050
 Rotational constant (GHZ):           4.802905
 Zero-point vibrational energy      40990.9 (Joules/Mol)
                                    9.79705 (Kcal/Mol)
 Warning -- explicit consideration of   2 degrees of freedom as
           vibrations may cause significant error
 Vibrational temperatures:    234.46   234.46   894.95   894.95  1389.40
          (Kelvin)           2840.91  3370.97

 Zero-point correction=                           0.015613 (Hartree/Particle)
 Thermal correction to Energy=                    0.019555
 Thermal correction to Enthalpy=                  0.020499
 Thermal correction to Gibbs Free Energy=        -0.007990
 Sum of electronic and zero-point Energies=           -189.435378
 Sum of electronic and thermal Energies=              -189.431436
 Sum of electronic and thermal Enthalpies=            -189.430491
 Sum of electronic and thermal Free Energies=         -189.458980

                     E (Thermal)             CV                S
                      KCal/Mol        Cal/Mol-Kelvin    Cal/Mol-Kelvin
 Total                   12.271             11.147             59.960
 Electronic               0.000              0.000              0.000
 Translational            0.889              2.981             37.769
 Rotational               0.592              1.987             16.226
 Vibrational             10.789              6.179              5.966
 Vibration     1          0.623              1.888              2.515
 Vibration     2          0.623              1.888              2.515

 Optimization completed.
    -- Stationary point found.

 1\1\ CITASK-GV0240\Freq\RB3LYP\6-311++G(d,p)\C3O1\EERD\04-Mar-2018\0\\
 #p b3lyp/6-311++g(d,p) freq\\min\\0,1\C,0.0546065253,-0.6081529071,0.0
 272870524\C,0.2157112786,0.6722353988,-0.0814699234\C,0.3737070058,1.9
 2791456,-0.1881280892\O,-0.0884226073,-1.7448842888,0.1238417201\\Vers
 ion=ES64L-G09RevD.01\State=1-SG\HF=-189.4509901\RMSD=5.685e-09\RMSF=3.
 064e-05\ZeroPoint=0.0156126\Thermal=0.0195546\Dipole=-0.1082834,-0.860
 5876,0.0730988\DipoleDeriv=0.6147315,0.3146352,-0.0267253,0.3146352,3.
 0757217,-0.2124007,-0.0267253,-0.2124007,0.593184,-0.1529071,-0.308023

 Normal termination of Gaussian 09 at Sun Mar  4 20:56:20 2018.
