 Gaussian 09, Revision D.01,
 Gaussian 09:  ES64L-G09RevD.01 24-Apr-2013

 ---------------------------
 #p b3lyp/6-311++g(d,p) freq
 ---------------------------

 ---
 min
 ---
 Symbolic Z-matrix:
 Charge =  0 Multiplicity = 1

                         Standard orientation:
 ---------------------------------------------------------------------
 Center     Atomic      Atomic             Coordinates (Angstroms)
 Number     Number       Type             X           Y           Z
 ---------------------------------------------------------------------
      1          6           0        0.902283   -0.732514   -0.000000
      2          6           0       -0.453902    1.639998   -0.000000
      3          6           0        0.000000    0.435202   -0.000000
      4          8           0       -0.336286   -1.007014    0.000000
 ---------------------------------------------------------------------

 SCF Done:  E(RB3LYP) =  -189.291059573     A.U. after   15 cycles

 The electronic state is 1-A'.
 Alpha  occ. eigenvalues --  -19.31145 -10.35692 -10.27475 -10.25909  -1.25504
 Alpha  occ. eigenvalues --   -0.80461  -0.70439  -0.62504  -0.54754  -0.46759
 Alpha  occ. eigenvalues --   -0.34344  -0.32781  -0.31806
 Alpha virt. eigenvalues --   -0.16117  -0.13283   0.00342   0.01165   0.03944
 Alpha virt. eigenvalues --    0.04635   0.05590   0.06556   0.07014   0.09566
 Alpha virt. eigenvalues --    0.11062   0.11536   0.14063   0.14268   0.16182

 Mulliken charges:
               1
     1  C   -0.090482
     2  C   -0.151177
     3  C    0.080261
     4  O    0.161398
 Sum of Mulliken charges =  -0.00000

 Dipole moment (field-independent basis, Debye):
    X=              0.1601    Y=             -2.0884    Z=              0.0000  Tot=              2.0946
 Quadrupole moment (field-independent basis, Debye-Ang):
   XX=            -23.4920   YY=            -27.4753   ZZ=            -22.1380
   XY=              1.8941   XZ=              0.0000   YZ=              0.0000

  Exact polarizability:  32.246 -12.185  53.811  -0.000  -0.000  23.409
 Approx polarizability:  55.080 -31.204 121.080   0.000  -0.000  33.082

                      1                      2                      3
                     A'                     A"                     A'
 Frequencies --    209.8771               289.8683               634.9363
 Red. masses --     12.3400                12.0461                13.6795
 Frc consts  --      0.3203                 0.5963                 3.2492
 IR Inten    --     10.7565                 0.1792                 0.1162

                      4                      5                      6
                     A'                     A'                     A'
 Frequencies --    800.3318              1344.4367              1876.2131
 Red. masses --     12.4266                13.0705                12.1963
 Frc consts  --      4.6897                13.9195                25.2954
 IR Inten    --    126.0276               229.0563               243.3411

 - Thermochemistry -
 -------------------
 Temperature   298.150 Kelvin.  Pressure   1.00000 Atm.
 Atom     1 has atomic number  6 and mass  12.00000

 Molecular mass:    51.99491 amu.
 Principal axes and moments of inertia in atomic units:
                           1         2         3
     Eigenvalues --    40.00334 214.46179 254.46513
           X           -0.24147   0.97041   0.00000
           Y            0.97041   0.24147   0.00000
           Z           -0.00000  -0.00000   1.00000
 This molecule is an asymmetric top.
 Rotational symmetry number  1.
 Rotational temperatures (Kelvin)      2.16516     0.40387     0.34038
 Rotational constants (GHZ):          45.11476     8.41521     7.09229
 Zero-point vibrational energy      30837.7 (Joules/Mol)
                                    7.37039 (Kcal/Mol)
 Warning -- explicit consideration of   2 degrees of freedom as
           vibrations may cause significant error
 Vibrational temperatures:    301.97   417.06   913.53  1151.50  1934.34
          (Kelvin)           2699.45

 Zero-point correction=                           0.011745 (Hartree/Particle)
 Thermal correction to Energy=                    0.015787
 Thermal correction to Enthalpy=                  0.016731
 Thermal correction to Gibbs Free Energy=        -0.013782
 Sum of electronic and zero-point Energies=           -189.279314
 Sum of electronic and thermal Energies=              -189.275273
 Sum of electronic and thermal Enthalpies=            -189.274329
 Sum of electronic and thermal Free Energies=         -189.304841

                     E (Thermal)             CV                S
                      KCal/Mol        Cal/Mol-Kelvin    Cal/Mol-Kelvin
 Total                    9.906             11.236             64.219
 Electronic               0.000              0.000              0.000
 Translational            0.889              2.981             37.769
 Rotational               0.889              2.981             22.306
 Vibrational              8.129              5.274              4.145
 Vibration     1          0.642              1.826              2.045
 Vibration     2          0.686              1.693              1.475

 Optimization completed.
    -- Stationary point found.

 1\1\ CITASK-GV0114\Freq\RB3LYP\6-311++G(d,p)\C3O1\EERD\04-Mar-2018\0\\
 #p b3lyp/6-311++g(d,p) freq\\min\\0,1\C,-0.222703,1.153148,0.031325999
 9\C,1.344466,-1.085593,0.0227649998\C,0.448798129,-0.160793448,0.01345
 71693\O,-0.997408597,0.151745086,-0.048844127\\Version=ES64L-G09RevD.0
 1\State=1-A'\HF=-189.2910596\RMSD=1.315e-09\RMSF=1.363e-04\ZeroPoint=0
 .0117455\Thermal=0.0157868\Dipole=-0.7156769,0.4080021,-0.0206878\Dipo
 leDeriv=0.9587202,-0.4099768,0.0325248,0.2158875,0.414856,0.0272694,0.
 0575826,-0.0051075,0.0154736,0.3867949,-0.7510671,-0.0016236,-0.691823

 Normal termination of Gaussian 09 at Sun Mar  4 20:56:27 2018.
