 Gaussian 09, Revision D.01,
 Gaussian 09:  ES64L-G09RevD.01 24-Apr-2013

 ---------------------------
 #p b3lyp/6-311++g(d,p) freq
 ---------------------------

 ---
 min
 ---
 Symbolic Z-matrix:
 Charge =  0 Multiplicity = 3

                         Standard orientation:
 ---------------------------------------------------------------------
 Center     Atomic      Atomic             Coordinates (Angstroms)
 Number     Number       Type             X           Y           Z
 ---------------------------------------------------------------------
      1          6           0        0.198487   -0.753736    0.000000
      2          6           0        0.927946   -1.772953    0.000000
      3          6           0        0.000000    0.614238   -0.000000
      4          8           0       -0.844825    1.434338   -0.000000
 ---------------------------------------------------------------------

 SCF Done:  E(UB3LYP) =  -189.341148373     A.U. after   19 cycles

 The electronic state is 3-A'.
 Alpha  occ. eigenvalues --  -19.21439 -10.31960 -10.28664 -10.25230  -1.14147
 Alpha  occ. eigenvalues --   -0.84531  -0.70912  -0.54048  -0.48953  -0.47469
 Alpha  occ. eigenvalues --   -0.42582  -0.36582  -0.35333  -0.23098
 Alpha virt. eigenvalues --   -0.11914  -0.03841   0.03324   0.04172   0.04236
 Alpha virt. eigenvalues --    0.05002   0.06862   0.07048   0.08694   0.09459
 Alpha virt. eigenvalues --    0.12136   0.13512   0.14100   0.17488   0.18421

  Beta  occ. eigenvalues --  -19.20672 -10.31093 -10.26365 -10.24969  -1.12686
  Beta  occ. eigenvalues --   -0.81912  -0.67539  -0.52480  -0.46944  -0.44090
  Beta  occ. eigenvalues --   -0.34015  -0.33200
  Beta virt. eigenvalues --   -0.23053  -0.10291  -0.09474  -0.01155   0.04244
  Beta virt. eigenvalues --    0.04401   0.04886   0.05693   0.07775   0.07828
  Beta virt. eigenvalues --    0.09946   0.10174   0.12280   0.14020   0.14705

 Mulliken charges and spin densities:
               1          2
     1  C    0.432294   0.067938
     2  C   -0.157723   1.175726
     3  C   -0.165966   0.518918
     4  O   -0.108605   0.237418
 Sum of Mulliken charges =  -0.00000   2.00000

 Dipole moment (field-independent basis, Debye):
    X=              0.3413    Y=             -1.1343    Z=              0.0000  Tot=              1.1845
 Quadrupole moment (field-independent basis, Debye-Ang):
   XX=            -23.8122   YY=            -22.5176   ZZ=            -21.4801
   XY=              1.1372   XZ=              0.0000   YZ=              0.0000

  Exact polarizability:  47.438 -30.497  66.859  -0.000   0.000  23.471
 Approx polarizability:  70.415 -59.806 126.646   0.000  -0.000  26.872

                      1                      2                      3
                     A"                     A'                     A'
 Frequencies --    209.0159               231.1094               415.3645
 Red. masses --     12.4444                12.8228                12.2117
 Frc consts  --      0.3203                 0.4035                 1.2413
 IR Inten    --      0.7069                 3.5781                46.0003

                      4                      5                      6
                     A'                     A'                     A'
 Frequencies --    840.3100              1641.2735              1960.8223
 Red. masses --     12.8394                12.0986                13.1085
 Frc consts  --      5.3416                19.2020                29.6947
 IR Inten    --     69.4694               762.0552               200.3133

 - Thermochemistry -
 -------------------
 Temperature   298.150 Kelvin.  Pressure   1.00000 Atm.
 Atom     1 has atomic number  6 and mass  12.00000

 Molecular mass:    51.99491 amu.
 Principal axes and moments of inertia in atomic units:
                           1         2         3
     Eigenvalues --     5.11305 366.96970 372.08275
           X           -0.45296   0.89153   0.00000
           Y            0.89153   0.45296   0.00000
           Z           -0.00000  -0.00000   1.00000
 This molecule is an asymmetric top.
 Rotational symmetry number  1.
 Rotational temperatures (Kelvin)     16.93975     0.23602     0.23278
 Rotational constants (GHZ):         352.96750     4.91796     4.85038
 Zero-point vibrational energy      31688.5 (Joules/Mol)
                                    7.57372 (Kcal/Mol)
 Warning -- explicit consideration of   3 degrees of freedom as
           vibrations may cause significant error
 Vibrational temperatures:    300.73   332.51   597.62  1209.02  2361.42
          (Kelvin)           2821.18

 Zero-point correction=                           0.012069 (Hartree/Particle)
 Thermal correction to Energy=                    0.016328
 Thermal correction to Enthalpy=                  0.017272
 Thermal correction to Gibbs Free Energy=        -0.014153
 Sum of electronic and zero-point Energies=           -189.329079
 Sum of electronic and thermal Energies=              -189.324820
 Sum of electronic and thermal Enthalpies=            -189.323876
 Sum of electronic and thermal Free Energies=         -189.355301

                     E (Thermal)             CV                S
                      KCal/Mol        Cal/Mol-Kelvin    Cal/Mol-Kelvin
 Total                   10.246             11.665             66.140
 Electronic               0.000              0.000              2.183
 Translational            0.889              2.981             37.769
 Rotational               0.889              2.981             21.173
 Vibrational              8.469              5.703              5.015
 Vibration     1          0.642              1.827              2.052
 Vibration     2          0.653              1.793              1.870
 Vibration     3          0.779              1.437              0.908

 Optimization completed.
    -- Stationary point found.
 Normal termination of Gaussian 09 at Sun Mar  4 20:56:39 2018.
