 Gaussian 09, Revision D.01,
 Gaussian 09:  ES64L-G09RevD.01 24-Apr-2013

 ---------------------------
 #p b3lyp/6-311++g(d,p) freq
 ---------------------------

 ---
 min
 ---
 Symbolic Z-matrix:
 Charge =  1 Multiplicity = 4

                         Standard orientation:
 ---------------------------------------------------------------------
 Center     Atomic      Atomic             Coordinates (Angstroms)
 Number     Number       Type             X           Y           Z
 ---------------------------------------------------------------------
      1          6           0        0.000000   -0.717607   -1.057375
      2          6           0        0.000000    0.717607   -1.057375
      3          6           0       -0.000000    0.000000    0.219852
      4          8           0       -0.000000    0.000000    1.421174
 ---------------------------------------------------------------------

 SCF Done:  E(UB3LYP) =  -188.897364306     A.U. after   13 cycles

 The electronic state is 4-A2.
 Alpha  occ. eigenvalues --  -19.52913 -10.63416 -10.63372 -10.62375  -1.43719
 Alpha  occ. eigenvalues --   -1.27141  -0.87876  -0.85734  -0.79451  -0.78374
 Alpha  occ. eigenvalues --   -0.72278  -0.67588  -0.67283  -0.56431
 Alpha virt. eigenvalues --   -0.38794  -0.30986  -0.19466  -0.15726  -0.13089
 Alpha virt. eigenvalues --   -0.12133  -0.11341  -0.10820  -0.07959  -0.05921
 Alpha virt. eigenvalues --   -0.05919  -0.05061  -0.04535  -0.00519   0.00861

  Beta  occ. eigenvalues --  -19.50868 -10.62517 -10.61237 -10.61206  -1.39750
  Beta  occ. eigenvalues --   -1.22702  -0.82310  -0.81602  -0.73787  -0.73601
  Beta  occ. eigenvalues --   -0.64151
  Beta virt. eigenvalues --   -0.53797  -0.49970  -0.42412  -0.31586  -0.27580
  Beta virt. eigenvalues --   -0.18130  -0.12725  -0.12405  -0.11680  -0.09236
  Beta virt. eigenvalues --   -0.08514  -0.07458  -0.05680  -0.05052  -0.04447

 Mulliken charges and spin densities:
               1          2
     1  C    0.429916   1.161327
     2  C    0.429916   1.161327
     3  C    0.046634  -0.059849
     4  O    0.093533   0.737194
 Sum of Mulliken charges =   1.00000   3.00000

 Dipole moment (field-independent basis, Debye):
    X=              0.0000    Y=              0.0000    Z=             -2.4496  Tot=              2.4496
 Quadrupole moment (field-independent basis, Debye-Ang):
   XX=            -17.6530   YY=            -17.0721   ZZ=            -15.7437
   XY=              0.0000   XZ=             -0.0000   YZ=             -0.0000

  Exact polarizability:  16.101   0.000  30.637   0.000  -0.000  43.266
 Approx polarizability:  23.535   0.000  59.697  -0.000   0.000  91.420

                      1                      2                      3
                     B1                     B2                     B2
 Frequencies --    418.1452               463.3009               802.4969
 Red. masses --     12.4713                12.7649                12.0125
 Frc consts  --      1.2847                 1.6143                 4.5580
 IR Inten    --      8.8714                 0.3077                12.2276

                      4                      5                      6
                     A1                     A1                     A1
 Frequencies --    842.1775              1141.7308              1449.7499
 Red. masses --     12.8507                12.1428                13.2592
 Frc consts  --      5.3701                 9.3260                16.4193
 IR Inten    --     15.7353                 5.6062                 5.3520

 - Thermochemistry -
 -------------------
 Temperature   298.150 Kelvin.  Pressure   1.00000 Atm.
 Atom     1 has atomic number  6 and mass  12.00000

 Molecular mass:    51.99491 amu.
 Principal axes and moments of inertia in atomic units:
                           1         2         3
     Eigenvalues --    44.13497 213.25884 257.39381
           X           -0.00000   0.00000   1.00000
           Y           -0.00000   1.00000  -0.00000
           Z            1.00000   0.00000   0.00000
 This molecule is an asymmetric top.
 Rotational symmetry number  2.
 Rotational temperatures (Kelvin)      1.96248     0.40614     0.33650
 Rotational constants (GHZ):          40.89141     8.46268     7.01160
 Zero-point vibrational energy      30610.1 (Joules/Mol)
                                    7.31598 (Kcal/Mol)
 Warning -- explicit consideration of   2 degrees of freedom as
           vibrations may cause significant error
 Vibrational temperatures:    601.62   666.59  1154.61  1211.70  1642.69
          (Kelvin)           2085.86

 Zero-point correction=                           0.011659 (Hartree/Particle)
 Thermal correction to Energy=                    0.015208
 Thermal correction to Enthalpy=                  0.016152
 Thermal correction to Gibbs Free Energy=        -0.014094
 Sum of electronic and zero-point Energies=           -188.885706
 Sum of electronic and thermal Energies=              -188.882156
 Sum of electronic and thermal Enthalpies=            -188.881212
 Sum of electronic and thermal Free Energies=         -188.911458

                     E (Thermal)             CV                S
                      KCal/Mol        Cal/Mol-Kelvin    Cal/Mol-Kelvin
 Total                    9.543             10.290             63.658
 Electronic               0.000              0.000              2.755
 Translational            0.889              2.981             37.769
 Rotational               0.889              2.981             21.032
 Vibrational              7.766              4.328              2.103
 Vibration     1          0.781              1.431              0.898
 Vibration     2          0.821              1.331              0.757

 Normal termination of Gaussian 09 at Thu Jan 24 15:34:01 2019.
