 Gaussian 09, Revision D.01,
 Gaussian 09:  ES64L-G09RevD.01 24-Apr-2013

 ---------------------------
 #p b3lyp/6-311++g(d,p) freq
 ---------------------------

 ---
 min
 ---
 Symbolic Z-matrix:
 Charge =  1 Multiplicity = 2

                         Standard orientation:
 ---------------------------------------------------------------------
 Center     Atomic      Atomic             Coordinates (Angstroms)
 Number     Number       Type             X           Y           Z
 ---------------------------------------------------------------------
      1          6           0        1.009552    0.689039   -0.040691
      2          6           0       -0.394755    0.051370    0.157790
      3          6           0       -1.710512    0.026412   -0.078821
      4          8           0        0.821787   -0.575116   -0.028708
 ---------------------------------------------------------------------

 SCF Done:  E(UB3LYP) =  -188.882323420     A.U. after   22 cycles

 The electronic state is 2-A.
 Alpha  occ. eigenvalues --  -19.61260 -10.65030 -10.62045 -10.60849  -1.56638
 Alpha  occ. eigenvalues --   -1.11955  -0.97792  -0.94255  -0.84760  -0.72113
 Alpha  occ. eigenvalues --   -0.64757  -0.62416  -0.62325
 Alpha virt. eigenvalues --   -0.43742  -0.39727  -0.33042  -0.20559  -0.17049
 Alpha virt. eigenvalues --   -0.13625  -0.11896  -0.11624  -0.10341  -0.07160
 Alpha virt. eigenvalues --   -0.06143  -0.05877  -0.03678  -0.02878  -0.01363

  Beta  occ. eigenvalues --  -19.60886 -10.65150 -10.61331 -10.59933  -1.55990
  Beta  occ. eigenvalues --   -1.08559  -0.97475  -0.93455  -0.82250  -0.71687
  Beta  occ. eigenvalues --   -0.62214  -0.61360
  Beta virt. eigenvalues --   -0.49766  -0.42689  -0.39066  -0.28901  -0.19020
  Beta virt. eigenvalues --   -0.16334  -0.12915  -0.11572  -0.11378  -0.10145
  Beta virt. eigenvalues --   -0.06931  -0.06036  -0.05387  -0.03606  -0.02680

 Mulliken charges and spin densities:
               1          2
     1  C    0.269116  -0.080677
     2  C   -0.085961   0.453672
     3  C    0.434307   0.518873
     4  O    0.382537   0.108132
 Sum of Mulliken charges =   1.00000   1.00000

 Dipole moment (field-independent basis, Debye):
    X=             -0.3263    Y=              0.0175    Z=              0.4474  Tot=              0.5540
 Quadrupole moment (field-independent basis, Debye-Ang):
   XX=            -14.5754   YY=            -19.3525   ZZ=            -18.3672
   XY=              0.2711   XZ=             -0.8904   YZ=              0.0636

  Exact polarizability:  56.088   3.566  22.395  -0.251  -0.068  18.702
 Approx polarizability: 124.643  10.246  37.311   4.729  -0.076  28.742

                      1                      2                      3
                      A                      A                      A
 Frequencies --    226.5359               285.4201               620.3975
 Red. masses --     12.1932                12.3045                12.4731
 Frc consts  --      0.3687                 0.5906                 2.8285
 IR Inten    --      3.0060                10.2985                42.2216

                      4                      5                      6
                      A                      A                      A
 Frequencies --    794.4456              1067.7492              1586.6267
 Red. masses --     13.6023                12.4212                12.9222
 Frc consts  --      5.0581                 8.3436                19.1663
 IR Inten    --     32.7183                25.1939                70.3746

 - Thermochemistry -
 -------------------
 Temperature   298.150 Kelvin.  Pressure   1.00000 Atm.
 Atom     1 has atomic number  6 and mass  12.00000

 Molecular mass:    51.99491 amu.
 Principal axes and moments of inertia in atomic units:
                           1         2         3
     Eigenvalues --    40.83218 215.75953 253.68932
           X            1.00000  -0.00005  -0.00000
           Y            0.00005   1.00000   0.00001
           Z            0.00000  -0.00001   1.00000
 This molecule is an asymmetric top.
 Rotational symmetry number  1.
 Rotational temperatures (Kelvin)      2.12121     0.40144     0.34142
 Rotational constants (GHZ):          44.19899     8.36460     7.11398
 Zero-point vibrational energy      27401.5 (Joules/Mol)
                                    6.54912 (Kcal/Mol)
 Warning -- explicit consideration of   3 degrees of freedom as
           vibrations may cause significant error
 Vibrational temperatures:    325.93   410.66   892.61  1143.03  1536.25
          (Kelvin)           2282.80

 Zero-point correction=                           0.010437 (Hartree/Particle)
 Thermal correction to Energy=                    0.014489
 Thermal correction to Enthalpy=                  0.015433
 Thermal correction to Gibbs Free Energy=        -0.015730
 Sum of electronic and zero-point Energies=           -188.871887
 Sum of electronic and thermal Energies=              -188.867834
 Sum of electronic and thermal Enthalpies=            -188.866890
 Sum of electronic and thermal Free Energies=         -188.898054

                     E (Thermal)             CV                S
                      KCal/Mol        Cal/Mol-Kelvin    Cal/Mol-Kelvin
 Total                    9.092             11.476             65.589
 Electronic               0.000              0.000              1.377
 Translational            0.889              2.981             37.769
 Rotational               0.889              2.981             22.329
 Vibrational              7.315              5.514              4.114
 Vibration     1          0.650              1.801              1.906
 Vibration     2          0.683              1.701              1.501
 Vibration     3          0.980              0.989              0.416

 Normal termination of Gaussian 09 at Thu Jan 24 15:33:57 2019.
