 Gaussian 09, Revision D.01,
 Gaussian 09:  ES64L-G09RevD.01 24-Apr-2013

 ---------------------------
 #p b3lyp/6-311++g(d,p) freq
 ---------------------------

 ---
 min
 ---
 Symbolic Z-matrix:
 Charge =  0 Multiplicity = 3

                         Standard orientation:
 ---------------------------------------------------------------------
 Center     Atomic      Atomic             Coordinates (Angstroms)
 Number     Number       Type             X           Y           Z
 ---------------------------------------------------------------------
      1          6           0        0.000000    0.000000    1.953093
      2          6           0        0.000000    0.000000    0.644582
      3          6           0        0.000000    0.000000   -0.644582
      4          6           0        0.000000    0.000000   -1.953093
 ---------------------------------------------------------------------

 SCF Done:  E(UB3LYP) =  -152.131981143     A.U. after   11 cycles

 The electronic state is 3-SGG.
 Alpha  occ. eigenvalues --  -10.29034 -10.29033 -10.27511 -10.27400  -0.89104
 Alpha  occ. eigenvalues --   -0.82103  -0.70678  -0.43661  -0.43661  -0.36597
 Alpha  occ. eigenvalues --   -0.35381  -0.32582  -0.32582
 Alpha virt. eigenvalues --   -0.11277  -0.11277   0.00475   0.04374   0.04582
 Alpha virt. eigenvalues --    0.04582   0.05654   0.05654   0.06062   0.09921
 Alpha virt. eigenvalues --    0.10898   0.10898   0.13080   0.13080   0.16377

  Beta  occ. eigenvalues --  -10.27899 -10.27898 -10.27192 -10.27075  -0.86938
  Beta  occ. eigenvalues --   -0.77492  -0.68507  -0.40140  -0.40140  -0.34263
  Beta  occ. eigenvalues --   -0.33321
  Beta virt. eigenvalues --   -0.22137  -0.22137  -0.06607  -0.06607   0.00731
  Beta virt. eigenvalues --    0.04776   0.05129   0.05129   0.06112   0.06649
  Beta virt. eigenvalues --    0.06649   0.10339   0.13217   0.13217   0.13710

 Mulliken charges and spin densities:
               1          2
     1  C   -0.244519   0.735297
     2  C    0.244519   0.264703
     3  C    0.244519   0.264703
     4  C   -0.244519   0.735297
 Sum of Mulliken charges =   0.00000   2.00000

 Dipole moment (field-independent basis, Debye):
    X=             -0.0000    Y=              0.0000    Z=             -0.0000  Tot=              0.0000
 Quadrupole moment (field-independent basis, Debye-Ang):
   XX=            -22.2671   YY=            -22.2671   ZZ=            -33.7151
   XY=             -0.0000   XZ=              0.0000   YZ=              0.0000

  Exact polarizability:  27.166  -0.000  27.166  -0.000   0.000  92.787
 Approx polarizability:  34.722  -0.000  34.722  -0.000  -0.000 197.153

                      1                      2                      3
                     PIU                    PIU                    PIG
 Frequencies --    176.1679               176.1679               363.1377
 Red. masses --     12.0000                12.0000                12.0000
 Frc consts  --      0.2194                 0.2194                 0.9323
 IR Inten    --     24.5239                24.5239                 0.0000

                      4                      5                      6
                     PIG                    SGG                    SGU
 Frequencies --    363.1377               937.9365              1593.3831
 Red. masses --     12.0000                12.0000                12.0000
 Frc consts  --      0.9323                 6.2198                17.9503
 IR Inten    --      0.0000                 0.0000               319.5981

                      7
                     SGG
 Frequencies --   2125.1653
 Red. masses --     12.0000
 Frc consts  --     31.9313
 IR Inten    --      0.0000

 - Thermochemistry -
 -------------------
 Temperature   298.150 Kelvin.  Pressure   1.00000 Atm.
 Atom     1 has atomic number  6 and mass  12.00000

 Molecular mass:    48.00000 amu.
 Principal axes and moments of inertia in atomic units:
                           1         2         3
     Eigenvalues --     0.00000 362.53949 362.53949
           X           -0.00000   1.00000  -0.00000
           Y            0.00000   0.00000   1.00000
           Z            1.00000   0.00000  -0.00000
 This molecule is a prolate symmetric top.
 Rotational symmetry number  2.
 Rotational temperature (Kelvin)      0.23891
 Rotational constant (GHZ):           4.978054
 Zero-point vibrational energy      34303.5 (Joules/Mol)
                                    8.19873 (Kcal/Mol)
 Warning -- explicit consideration of   4 degrees of freedom as
           vibrations may cause significant error
 Vibrational temperatures:    253.47   253.47   522.47   522.47  1349.48
          (Kelvin)           2292.52  3057.63

 Zero-point correction=                           0.013066 (Hartree/Particle)
 Thermal correction to Energy=                    0.017368
 Thermal correction to Enthalpy=                  0.018313
 Thermal correction to Gibbs Free Energy=        -0.010943
 Sum of electronic and zero-point Energies=           -152.118916
 Sum of electronic and thermal Energies=              -152.114613
 Sum of electronic and thermal Enthalpies=            -152.113669
 Sum of electronic and thermal Free Energies=         -152.142924

                     E (Thermal)             CV                S
                      KCal/Mol        Cal/Mol-Kelvin    Cal/Mol-Kelvin
 Total                   10.899             12.319             61.574
 Electronic               0.000              0.000              2.183
 Translational            0.889              2.981             37.530
 Rotational               0.592              1.987             14.777
 Vibrational              9.418              7.351              7.083
 Vibration     1          0.628              1.872              2.369
 Vibration     2          0.628              1.872              2.369
 Vibration     3          0.737              1.548              1.109
 Vibration     4          0.737              1.548              1.109

 Optimization completed.
    -- Stationary point found.
 Normal termination of Gaussian 09 at Sun Mar  4 20:56:27 2018.
