 Gaussian 09, Revision D.01,
 Gaussian 09:  ES64L-G09RevD.01 24-Apr-2013

 ---------------------------
 #p b3lyp/6-311++g(d,p) freq
 ---------------------------

 ---
 min
 ---
 Symbolic Z-matrix:
 Charge =  0 Multiplicity = 3

                         Standard orientation:
 ---------------------------------------------------------------------
 Center     Atomic      Atomic             Coordinates (Angstroms)
 Number     Number       Type             X           Y           Z
 ---------------------------------------------------------------------
      1          6           0        0.000000    0.788327   -0.000006
      2          6           0        0.000000   -0.000000   -1.194744
      3          6           0       -0.000000   -0.788327   -0.000006
      4          6           0       -0.000000    0.000000    1.194756
 ---------------------------------------------------------------------

 SCF Done:  E(UB3LYP) =  -152.074171042     A.U. after   14 cycles

 The electronic state is 3-B1.
 Alpha  occ. eigenvalues --  -10.31096 -10.31077 -10.28621 -10.28613  -1.03479
 Alpha  occ. eigenvalues --   -0.75906  -0.58674  -0.47160  -0.44917  -0.44739
 Alpha  occ. eigenvalues --   -0.34016  -0.32273  -0.26703
 Alpha virt. eigenvalues --   -0.11471  -0.06937  -0.00229   0.02695   0.03372
 Alpha virt. eigenvalues --    0.04506   0.04826   0.07564   0.07905   0.08308
 Alpha virt. eigenvalues --    0.09248   0.10270   0.12859   0.13593   0.14735

  Beta  occ. eigenvalues --  -10.31178 -10.31159 -10.26857 -10.26854  -1.01814
  Beta  occ. eigenvalues --   -0.71858  -0.58237  -0.44029  -0.43353  -0.38713
  Beta  occ. eigenvalues --   -0.28833
  Beta virt. eigenvalues --   -0.20855  -0.13144  -0.12098  -0.05774   0.02989
  Beta virt. eigenvalues --    0.03426   0.03591   0.05203   0.07238   0.07698
  Beta virt. eigenvalues --    0.08066   0.08426   0.10047   0.10163   0.12963

 Mulliken charges and spin densities:
               1          2
     1  C    0.105181  -0.001592
     2  C   -0.105169   1.001603
     3  C    0.105181  -0.001592
     4  C   -0.105192   1.001581
 Sum of Mulliken charges =  -0.00000   2.00000

 Dipole moment (field-independent basis, Debye):
    X=             -0.0000    Y=              0.0000    Z=             -0.0002  Tot=              0.0002
 Quadrupole moment (field-independent basis, Debye-Ang):
   XX=            -22.0585   YY=            -23.9708   ZZ=            -26.0160
   XY=             -0.0000   XZ=             -0.0000   YZ=             -0.0000

  Exact polarizability:  23.726  -0.000  40.268   0.000  -0.000 109.931
 Approx polarizability:  35.439   0.000  91.048  -0.000  -0.000 221.454

                      1                      2                      3
                     B2                     B1                     B2
 Frequencies --    471.7133               590.4993               621.7317
 Red. masses --     12.0000                12.0000                12.0000
 Frc consts  --      1.5732                 2.4653                 2.7330
 IR Inten    --      0.0000                 0.2933                78.8066

                      4                      5                      6
                     A1                     A1                     A1
 Frequencies --    750.8760               884.6849              1290.2042
 Red. masses --     12.0000                12.0000                12.0000
 Frc consts  --      3.9863                 5.5336                11.7692
 IR Inten    --   1395.4874                 0.0001                 0.0000

 - Thermochemistry -
 -------------------
 Temperature   298.150 Kelvin.  Pressure   1.00000 Atm.
 Atom     1 has atomic number  6 and mass  12.00000

 Molecular mass:    48.00000 amu.
 Principal axes and moments of inertia in atomic units:
                           1         2         3
     Eigenvalues --    53.26252 122.33850 175.60102
           X            0.00000  -0.00000   1.00000
           Y            0.00000   1.00000   0.00000
           Z            1.00000   0.00000   0.00000
 This molecule is an asymmetric top.
 Rotational symmetry number  2.
 Rotational temperatures (Kelvin)      1.62617     0.70798     0.49324
 Rotational constants (GHZ):          33.88389    14.75203    10.27751
 Zero-point vibrational energy      27572.2 (Joules/Mol)
                                    6.58991 (Kcal/Mol)
 Warning -- explicit consideration of   2 degrees of freedom as
           vibrations may cause significant error
 Vibrational temperatures:    678.69   849.60   894.53  1080.34  1272.86
          (Kelvin)           1856.31

 Zero-point correction=                           0.010502 (Hartree/Particle)
 Thermal correction to Energy=                    0.014056
 Thermal correction to Enthalpy=                  0.015001
 Thermal correction to Gibbs Free Energy=        -0.014477
 Sum of electronic and zero-point Energies=           -152.063669
 Sum of electronic and thermal Energies=              -152.060115
 Sum of electronic and thermal Enthalpies=            -152.059170
 Sum of electronic and thermal Free Energies=         -152.088648

                     E (Thermal)             CV                S
                      KCal/Mol        Cal/Mol-Kelvin    Cal/Mol-Kelvin
 Total                    8.821             10.722             62.041
 Electronic               0.000              0.000              2.183
 Translational            0.889              2.981             37.530
 Rotational               0.889              2.981             20.286
 Vibrational              7.043              4.760              2.041
 Vibration     1          0.829              1.313              0.733
 Vibration     2          0.948              1.052              0.466

 Optimization completed.
    -- Stationary point found.
 Normal termination of Gaussian 09 at Sun Mar  4 20:56:35 2018.
