 Gaussian 09, Revision D.01,
 Gaussian 09:  ES64L-G09RevD.01 24-Apr-2013

 ---------------------------
 #p b3lyp/6-311++g(d,p) freq
 ---------------------------

 ---
 min
 ---
 Symbolic Z-matrix:
 Charge =  0 Multiplicity = 1

                         Standard orientation:
 ---------------------------------------------------------------------
 Center     Atomic      Atomic             Coordinates (Angstroms)
 Number     Number       Type             X           Y           Z
 ---------------------------------------------------------------------
      1          6           0        0.000000    0.000000    1.956044
      2          6           0        0.000000    0.000000    0.646365
      3          6           0        0.000000    0.000000   -0.646365
      4          6           0        0.000000    0.000000   -1.956044
 ---------------------------------------------------------------------

 SCF Done:  E(RB3LYP) =  -152.103609305     A.U. after   10 cycles

 Unable to determine electronic state:  partially filled degenerate orbitals.
 Alpha  occ. eigenvalues --  -10.29003 -10.29002 -10.27253 -10.27142  -0.87865
 Alpha  occ. eigenvalues --   -0.79908  -0.69632  -0.41844  -0.41637  -0.35675
 Alpha  occ. eigenvalues --   -0.34587  -0.29898
 Alpha virt. eigenvalues --   -0.25073  -0.09215  -0.09015   0.00590   0.04522
 Alpha virt. eigenvalues --    0.04615   0.04981   0.06040   0.06068   0.06266
 Alpha virt. eigenvalues --    0.10065   0.11948   0.12184   0.12958   0.13308

 Mulliken charges:
               1
     1  C   -0.221821
     2  C    0.221821
     3  C    0.221821
     4  C   -0.221821
 Sum of Mulliken charges =  -0.00000

 Dipole moment (field-independent basis, Debye):
    X=             -0.0000    Y=              0.0000    Z=              0.0000  Tot=              0.0000
 Quadrupole moment (field-independent basis, Debye-Ang):
   XX=            -20.4900   YY=            -24.2605   ZZ=            -33.5159
   XY=             -0.0000   XZ=              0.0000   YZ=              0.0000

  Exact polarizability:  25.696  -0.000  25.584   0.000  -0.000  90.169
 Approx polarizability:  37.472  -0.000  33.055  -0.000  -0.000 219.794

                      1                      2                      3
                     PIU                    PIU                    PIG
 Frequencies --    154.9981               209.0719               292.6173
 Red. masses --     12.0000                12.0000                12.0000
 Frc consts  --      0.1699                 0.3090                 0.6054
 IR Inten    --     37.3332                 6.4052                 0.0000

                      4                      5                      6
                     PIG                    SGG                    SGU
 Frequencies --    467.5556               934.5330              1598.4975
 Red. masses --     12.0000                12.0000                12.0000
 Frc consts  --      1.5456                 6.1748                18.0657
 IR Inten    --      0.0000                 0.0000               391.5216

                      7
                     SGG
 Frequencies --   2128.0896
 Red. masses --     12.0000
 Frc consts  --     32.0193
 IR Inten    --      0.0000

 - Thermochemistry -
 -------------------
 Temperature   298.150 Kelvin.  Pressure   1.00000 Atm.
 Atom     1 has atomic number  6 and mass  12.00000

 Molecular mass:    48.00000 amu.
 Principal axes and moments of inertia in atomic units:
                           1         2         3
     Eigenvalues --     0.00000 363.72546 363.72546
           X           -0.00000   1.00000  -0.00000
           Y            0.00000   0.00000   1.00000
           Z            1.00000   0.00000  -0.00000
 This molecule is a prolate symmetric top.
 Rotational symmetry number  2.
 Rotational temperature (Kelvin)      0.23813
 Rotational constant (GHZ):           4.961823
 Zero-point vibrational energy      34604.2 (Joules/Mol)
                                    8.27059 (Kcal/Mol)
 Warning -- explicit consideration of   4 degrees of freedom as
           vibrations may cause significant error
 Vibrational temperatures:    223.01   300.81   421.01   672.71  1344.58
          (Kelvin)           2299.88  3061.84

 Zero-point correction=                           0.013180 (Hartree/Particle)
 Thermal correction to Energy=                    0.017451
 Thermal correction to Enthalpy=                  0.018396
 Thermal correction to Gibbs Free Energy=        -0.009784
 Sum of electronic and zero-point Energies=           -152.090429
 Sum of electronic and thermal Energies=              -152.086158
 Sum of electronic and thermal Enthalpies=            -152.085214
 Sum of electronic and thermal Free Energies=         -152.113393

                     E (Thermal)             CV                S
                      KCal/Mol        Cal/Mol-Kelvin    Cal/Mol-Kelvin
 Total                   10.951             12.216             59.309
 Electronic               0.000              0.000              0.000
 Translational            0.889              2.981             37.530
 Rotational               0.592              1.987             14.784
 Vibrational              9.470              7.248              6.995
 Vibration     1          0.620              1.897              2.610
 Vibration     2          0.642              1.827              2.052
 Vibration     3          0.688              1.687              1.459
 Vibration     4          0.825              1.322              0.744

 Optimization completed.
    -- Stationary point found.
 Normal termination of Gaussian 09 at Sun Mar  4 20:56:17 2018.
