 Gaussian 09, Revision D.01,
 Gaussian 09:  ES64L-G09RevD.01 24-Apr-2013

 ---------------------------
 #p b3lyp/6-311++g(d,p) freq
 ---------------------------

 ---
 min
 ---
 Symbolic Z-matrix:
 Charge =  0 Multiplicity = 1

                         Standard orientation:
 ---------------------------------------------------------------------
 Center     Atomic      Atomic             Coordinates (Angstroms)
 Number     Number       Type             X           Y           Z
 ---------------------------------------------------------------------
      1          6           0       -0.000000    0.749208    0.000000
      2          6           0       -0.000000   -0.000000    1.237717
      3          6           0       -0.000000   -0.749208   -0.000000
      4          6           0        0.000000   -0.000000   -1.237717
 ---------------------------------------------------------------------

 SCF Done:  E(RB3LYP) =  -152.106196030     A.U. after    9 cycles

 The electronic state is 1-AG.
 Alpha  occ. eigenvalues --  -10.30710 -10.30710 -10.30357 -10.30332  -1.04882
 Alpha  occ. eigenvalues --   -0.76969  -0.57760  -0.47063  -0.43868  -0.42677
 Alpha  occ. eigenvalues --   -0.31441  -0.31215
 Alpha virt. eigenvalues --   -0.18812  -0.11454  -0.05580   0.00380   0.02413
 Alpha virt. eigenvalues --    0.03256   0.04772   0.04929   0.07140   0.07911
 Alpha virt. eigenvalues --    0.08145   0.09361   0.09982   0.13005   0.14004

 Mulliken charges:
               1
     1  C    0.010238
     2  C   -0.010238
     3  C    0.010238
     4  C   -0.010238
 Sum of Mulliken charges =  -0.00000

 Dipole moment (field-independent basis, Debye):
    X=             -0.0000    Y=              0.0000    Z=              0.0000  Tot=              0.0000
 Quadrupole moment (field-independent basis, Debye-Ang):
   XX=            -20.6276   YY=            -24.7678   ZZ=            -29.7999
   XY=              0.0000   XZ=              0.0000   YZ=              0.0000

  Exact polarizability:  28.264   0.000  39.239  -0.000   0.000  44.270
 Approx polarizability:  45.122   0.000  84.856  -0.000   0.000  73.645

                      1                      2                      3
                     B3U                    B2U                    AG
 Frequencies --    318.6818               501.0356               947.0101
 Red. masses --     12.0000                12.0000                12.0000
 Frc consts  --      0.7180                 1.7749                 6.3408
 IR Inten    --     50.0041                51.7509                 0.0000

                      4                      5                      6
                     B3G                    AG                     B1U
 Frequencies --   1010.4922              1293.5922              1394.6175
 Red. masses --     12.0000                12.0000                12.0000
 Frc consts  --      7.2193                11.8311                13.7512
 IR Inten    --      0.0000                 0.0000               279.1317

 - Thermochemistry -
 -------------------
 Temperature   298.150 Kelvin.  Pressure   1.00000 Atm.
 Atom     1 has atomic number  6 and mass  12.00000

 Molecular mass:    48.00000 amu.
 Principal axes and moments of inertia in atomic units:
                           1         2         3
     Eigenvalues --    48.10758 131.29602 179.40360
           X           -0.00000  -0.00000   1.00000
           Y            0.00000   1.00000   0.00000
           Z            1.00000  -0.00000   0.00000
 This molecule is an asymmetric top.
 Rotational symmetry number  4.
 Rotational temperatures (Kelvin)      1.80042     0.65968     0.48279
 Rotational constants (GHZ):          37.51470    13.74559    10.05967
 Zero-point vibrational energy      32690.5 (Joules/Mol)
                                    7.81322 (Kcal/Mol)
 Warning -- explicit consideration of   2 degrees of freedom as
           vibrations may cause significant error
 Vibrational temperatures:    458.51   720.88  1362.53  1453.87  1861.19
          (Kelvin)           2006.54

 Zero-point correction=                           0.012451 (Hartree/Particle)
 Thermal correction to Energy=                    0.016004
 Thermal correction to Enthalpy=                  0.016948
 Thermal correction to Gibbs Free Energy=        -0.010920
 Sum of electronic and zero-point Energies=           -152.093745
 Sum of electronic and thermal Energies=              -152.090192
 Sum of electronic and thermal Enthalpies=            -152.089248
 Sum of electronic and thermal Free Energies=         -152.117116

                     E (Thermal)             CV                S
                      KCal/Mol        Cal/Mol-Kelvin    Cal/Mol-Kelvin
 Total                   10.043              9.911             58.654
 Electronic               0.000              0.000              0.000
 Translational            0.889              2.981             37.530
 Rotational               0.889              2.981             18.899
 Vibrational              8.265              3.949              2.224
 Vibration     1          0.705              1.638              1.317
 Vibration     2          0.856              1.248              0.656

 Optimization completed.
    -- Stationary point found.
 Normal termination of Gaussian 09 at Sun Mar  4 20:56:17 2018.
