 Gaussian 09, Revision D.01,
 Gaussian 09:  ES64L-G09RevD.01 24-Apr-2013

 ---------------------------
 #p b3lyp/6-311++g(d,p) freq
 ---------------------------

 ---
 min
 ---
 Symbolic Z-matrix:
 Charge =  1 Multiplicity = 4

                         Standard orientation:
 ---------------------------------------------------------------------
 Center     Atomic      Atomic             Coordinates (Angstroms)
 Number     Number       Type             X           Y           Z
 ---------------------------------------------------------------------
      1          6           0       -0.000000    0.658657   -0.984991
      2          6           0        0.000000    0.000000    1.676078
      3          6           0        0.000000   -0.658657   -0.984991
      4          6           0        0.000000    0.000000    0.293903
 ---------------------------------------------------------------------

 SCF Done:  E(UB3LYP) =  -151.674677519     A.U. after   16 cycles

 The electronic state is 4-A2.
 Alpha  occ. eigenvalues --  -10.61198 -10.61096 -10.57689 -10.57378  -1.28315
 Alpha  occ. eigenvalues --   -1.06480  -0.84009  -0.80515  -0.73381  -0.67718
 Alpha  occ. eigenvalues --   -0.61479  -0.60380  -0.56438
 Alpha virt. eigenvalues --   -0.40395  -0.34090  -0.28452  -0.16313  -0.12926
 Alpha virt. eigenvalues --   -0.12590  -0.11508  -0.10028  -0.09638  -0.07613
 Alpha virt. eigenvalues --   -0.05873  -0.04893  -0.04467  -0.03715  -0.01521

  Beta  occ. eigenvalues --  -10.59215 -10.59129 -10.56837 -10.56404  -1.25946
  Beta  occ. eigenvalues --   -1.01470  -0.76942  -0.76574  -0.69481  -0.57770
  Beta virt. eigenvalues --   -0.48594  -0.47135  -0.43761  -0.35111  -0.28668
  Beta virt. eigenvalues --   -0.22896  -0.14791  -0.11921  -0.11397  -0.10977
  Beta virt. eigenvalues --   -0.08324  -0.07453  -0.07345  -0.05283  -0.03959

 Mulliken charges and spin densities:
               1          2
     1  C    0.207195   0.964844
     2  C    0.420189   0.700079
     3  C    0.207195   0.964844
     4  C    0.165422   0.370232
 Sum of Mulliken charges =   1.00000   3.00000

 Dipole moment (field-independent basis, Debye):
    X=             -0.0000    Y=              0.0000    Z=             -1.5043  Tot=              1.5043
 Quadrupole moment (field-independent basis, Debye-Ang):
   XX=            -19.3232   YY=            -16.7127   ZZ=            -15.7766
   XY=              0.0000   XZ=             -0.0000   YZ=              0.0000

  Exact polarizability:  22.525   0.000  38.658  -0.000   0.000  60.459
 Approx polarizability:  29.745  -0.000  58.431   0.000   0.000 133.554

                      1                      2                      3
                     B2                     B1                     A1
 Frequencies --    232.6699               323.0185               838.0096
 Red. masses --     12.0000                12.0000                12.0000
 Frc consts  --      0.3827                 0.7377                 4.9651
 IR Inten    --     18.9394                 4.7703                 0.1114

                      4                      5                      6
                     B2                     A1                     A1
 Frequencies --    845.9003              1322.9995              1689.5450
 Red. masses --     12.0000                12.0000                12.0000
 Frc consts  --      5.0591                12.3752                20.1823
 IR Inten    --     15.9083               139.2431                49.3388

 - Thermochemistry -
 -------------------
 Temperature   298.150 Kelvin.  Pressure   1.00000 Atm.
 Atom     1 has atomic number  6 and mass  12.00000

 Molecular mass:    48.00000 amu.
 Principal axes and moments of inertia in atomic units:
                           1         2         3
     Eigenvalues --    37.18152 207.23727 244.41879
           X            0.00000  -0.00000   1.00000
           Y            0.00000   1.00000   0.00000
           Z            1.00000  -0.00000  -0.00000
 This molecule is an asymmetric top.
 Rotational symmetry number  2.
 Rotational temperatures (Kelvin)      2.32949     0.41795     0.35437
 Rotational constants (GHZ):          48.53866     8.70857     7.38381
 Zero-point vibrational energy      31414.8 (Joules/Mol)
                                    7.50831 (Kcal/Mol)
 Warning -- explicit consideration of   2 degrees of freedom as
           vibrations may cause significant error
 Vibrational temperatures:    334.76   464.75  1205.71  1217.06  1903.50
          (Kelvin)           2430.88

 Zero-point correction=                           0.011965 (Hartree/Particle)
 Thermal correction to Energy=                    0.015848
 Thermal correction to Enthalpy=                  0.016792
 Thermal correction to Gibbs Free Energy=        -0.013902
 Sum of electronic and zero-point Energies=           -151.662712
 Sum of electronic and thermal Energies=              -151.658830
 Sum of electronic and thermal Enthalpies=            -151.657885
 Sum of electronic and thermal Free Energies=         -151.688580

                     E (Thermal)             CV                S
                      KCal/Mol        Cal/Mol-Kelvin    Cal/Mol-Kelvin
 Total                    9.945             10.725             64.601
 Electronic               0.000              0.000              2.755
 Translational            0.889              2.981             37.530
 Rotational               0.889              2.981             20.782
 Vibrational              8.167              4.764              3.535
 Vibration     1          0.653              1.791              1.858
 Vibration     2          0.708              1.629              1.295

 Optimization completed.
    -- Stationary point found.
 Normal termination of Gaussian 09 at Thu Jan 24 15:34:34 2019.
