 Gaussian 09, Revision D.01,
 Gaussian 09:  ES64L-G09RevD.01 24-Apr-2013

 ---------------------------
 #p b3lyp/6-311++g(d,p) freq
 ---------------------------

 ---
 min
 ---
 Symbolic Z-matrix:
 Charge =  1 Multiplicity = 2

                         Standard orientation:
 ---------------------------------------------------------------------
 Center     Atomic      Atomic             Coordinates (Angstroms)
 Number     Number       Type             X           Y           Z
 ---------------------------------------------------------------------
      1          6           0       -0.021990    0.034612    0.807359
      2          6           0       -0.021990    1.149442   -0.000000
      3          6           0       -0.021990    0.034612   -0.807359
      4          6           0        0.065969   -1.218666    0.000000
 ---------------------------------------------------------------------

 SCF Done:  E(UB3LYP) =  -151.706576795     A.U. after   22 cycles

 The electronic state is 2-A'.
 Alpha  occ. eigenvalues --  -10.62748 -10.61617 -10.60613 -10.60598  -1.32949
 Alpha  occ. eigenvalues --   -1.04168  -0.88845  -0.74535  -0.74054  -0.72747
 Alpha  occ. eigenvalues --   -0.60817  -0.59806
 Alpha virt. eigenvalues --   -0.46240  -0.40072  -0.35482  -0.25353  -0.15293
 Alpha virt. eigenvalues --   -0.14835  -0.12271  -0.11358  -0.09429  -0.08431
 Alpha virt. eigenvalues --   -0.06503  -0.05721  -0.05420  -0.04435  -0.03537

  Beta  occ. eigenvalues --  -10.61278 -10.61270 -10.60420 -10.60407  -1.32281
  Beta  occ. eigenvalues --   -1.02646  -0.87845  -0.73798  -0.73442  -0.66788
  Beta  occ. eigenvalues --   -0.57928
  Beta virt. eigenvalues --   -0.48373  -0.44952  -0.39859  -0.34166  -0.23650
  Beta virt. eigenvalues --   -0.15076  -0.14498  -0.12208  -0.10753  -0.09328
  Beta virt. eigenvalues --   -0.08088  -0.06300  -0.05633  -0.05410  -0.04126

 Mulliken charges and spin densities:
               1          2
     1  C    0.214570   0.112245
     2  C    0.305011   0.601943
     3  C    0.214570   0.112245
     4  C    0.265849   0.173567
 Sum of Mulliken charges =   1.00000   1.00000

 Dipole moment (field-independent basis, Debye):
    X=             -0.1460    Y=              1.0537    Z=             -0.0000  Tot=              1.0638
 Quadrupole moment (field-independent basis, Debye-Ang):
   XX=            -17.9376   YY=            -17.1525   ZZ=            -19.0186
   XY=             -0.0118   XZ=             -0.0000   YZ=              0.0000

  Exact polarizability:  20.296  -1.416  52.640   0.000  -0.000  34.030
 Approx polarizability:  31.085  -0.771 116.218  -0.000   0.000  86.006

                      1                      2                      3
                     A'                     A'                     A"
 Frequencies --    279.5360               409.2374               569.3170
 Red. masses --     12.0000                12.0000                12.0000
 Frc consts  --      0.5525                 1.1841                 2.2916
 IR Inten    --     19.9918                41.9249                61.1726

                      4                      5                      6
                     A'                     A"                     A'
 Frequencies --   1109.2149              1202.7236              1286.2201
 Red. masses --     12.0000                12.0000                12.0000
 Frc consts  --      8.6989                10.2273                11.6967
 IR Inten    --     32.3462                 0.1250                36.0047

 - Thermochemistry -
 -------------------
 Temperature   298.150 Kelvin.  Pressure   1.00000 Atm.
 Atom     1 has atomic number  6 and mass  12.00000

 Molecular mass:    48.00000 amu.
 Principal axes and moments of inertia in atomic units:
                           1         2         3
     Eigenvalues --    55.93857 120.61174 176.40383
           X           -0.03816   0.00000   0.99927
           Y            0.99927   0.00000   0.03816
           Z           -0.00000   1.00000   0.00000
 This molecule is an asymmetric top.
 Rotational symmetry number  1.
 Rotational temperatures (Kelvin)      1.54837     0.71812     0.49100
 Rotational constants (GHZ):          32.26291    14.96323    10.23074
 Zero-point vibrational energy      29046.8 (Joules/Mol)
                                    6.94236 (Kcal/Mol)
 Warning -- explicit consideration of   3 degrees of freedom as
           vibrations may cause significant error
 Vibrational temperatures:    402.19   588.80   819.12  1595.91  1730.45
          (Kelvin)           1850.58

 Zero-point correction=                           0.011063 (Hartree/Particle)
 Thermal correction to Energy=                    0.014873
 Thermal correction to Enthalpy=                  0.015817
 Thermal correction to Gibbs Free Energy=        -0.014455
 Sum of electronic and zero-point Energies=           -151.695513
 Sum of electronic and thermal Energies=              -151.691704
 Sum of electronic and thermal Enthalpies=            -151.690760
 Sum of electronic and thermal Free Energies=         -151.721031

                     E (Thermal)             CV                S
                      KCal/Mol        Cal/Mol-Kelvin    Cal/Mol-Kelvin
 Total                    9.333             10.851             63.712
 Electronic               0.000              0.000              1.377
 Translational            0.889              2.981             37.530
 Rotational               0.889              2.981             21.703
 Vibrational              7.555              4.889              3.101
 Vibration     1          0.680              1.711              1.537
 Vibration     2          0.774              1.450              0.929
 Vibration     3          0.925              1.098              0.506

 Optimization completed.
    -- Stationary point found.
 Normal termination of Gaussian 09 at Thu Jan 24 15:34:14 2019.
