 Gaussian 09, Revision D.01,
 Gaussian 09:  ES64L-G09RevD.01 24-Apr-2013

 ---------------------------
 #p b3lyp/6-311++g(d,p) freq
 ---------------------------

 ---
 min
 ---
 Symbolic Z-matrix:
 Charge =  0 Multiplicity = 3

                         Standard orientation:
 ---------------------------------------------------------------------
 Center     Atomic      Atomic             Coordinates (Angstroms)
 Number     Number       Type             X           Y           Z
 ---------------------------------------------------------------------
      1          6           0        0.000000    0.977843    0.196851
      2          6           0       -0.977843    0.000000   -0.196851
      3          6           0        0.977843   -0.000000   -0.196851
      4          6           0       -0.000000   -0.977843    0.196851
 ---------------------------------------------------------------------

 SCF Done:  E(UB3LYP) =  -152.063891213     A.U. after   10 cycles

 The electronic state is 3-A1.
 Alpha  occ. eigenvalues --  -10.29405 -10.29362 -10.29362 -10.29323  -1.00757
 Alpha  occ. eigenvalues --   -0.66432  -0.66432  -0.47703  -0.45370  -0.41365
 Alpha  occ. eigenvalues --   -0.32684  -0.29952  -0.29952
 Alpha virt. eigenvalues --   -0.10896  -0.10896  -0.03659   0.03043   0.04122
 Alpha virt. eigenvalues --    0.04162   0.04162   0.08338   0.08565   0.09448
 Alpha virt. eigenvalues --    0.09448   0.10163   0.12575   0.12575   0.13852

  Beta  occ. eigenvalues --  -10.28479 -10.28438 -10.28438 -10.28405  -0.98707
  Beta  occ. eigenvalues --   -0.63753  -0.63753  -0.43307  -0.42706  -0.36651
  Beta  occ. eigenvalues --   -0.28866
  Beta virt. eigenvalues --   -0.17515  -0.17515  -0.09795  -0.09795  -0.00983
  Beta virt. eigenvalues --    0.04145   0.04373   0.04507   0.04507   0.08459
  Beta virt. eigenvalues --    0.08690   0.09864   0.09864   0.11344   0.12818

 Mulliken charges and spin densities:
               1          2
     1  C    0.000000   0.500000
     2  C    0.000000   0.500000
     3  C    0.000000   0.500000
     4  C    0.000000   0.500000
 Sum of Mulliken charges =   0.00000   2.00000

 Dipole moment (field-independent basis, Debye):
    X=             -0.0000    Y=             -0.0000    Z=             -0.0000  Tot=              0.0000
 Quadrupole moment (field-independent basis, Debye-Ang):
   XX=            -24.8802   YY=            -24.8802   ZZ=            -22.3893
   XY=              0.0000   XZ=             -0.0000   YZ=              0.0000

  Exact polarizability:  60.970   0.000  60.970   0.000   0.000  25.616
 Approx polarizability: 137.527   0.000 137.527   0.000  -0.000  39.014

                      1                      2                      3
                     A1                     B2                     B1
 Frequencies --    617.6085               644.9041               651.6545
 Red. masses --     12.0000                12.0000                12.0000
 Frc consts  --      2.6969                 2.9405                 3.0024
 IR Inten    --      0.0000                10.7331                 0.0000

                      4                      5                      6
                      E                      E                     A1
 Frequencies --    720.1411               720.1411              1323.3393
 Red. masses --     12.0000                12.0000                12.0000
 Frc consts  --      3.6666                 3.6666                12.3815
 IR Inten    --    277.9229               277.9229                 0.0000

 - Thermochemistry -
 -------------------
 Temperature   298.150 Kelvin.  Pressure   1.00000 Atm.
 Atom     1 has atomic number  6 and mass  12.00000

 Molecular mass:    48.00000 amu.
 Principal axes and moments of inertia in atomic units:
                           1         2         3
     Eigenvalues --    88.59202  88.59202 163.89951
           X            0.70711   0.70711   0.00000
           Y            0.70711  -0.70711   0.00000
           Z           -0.00000   0.00000   1.00000
 This molecule is an oblate symmetric top.
 Rotational symmetry number  4.
 Rotational temperatures (Kelvin)      0.97767     0.97767     0.52846
 Rotational constants (GHZ):          20.37137    20.37137    11.01127
 Zero-point vibrational energy      27979.4 (Joules/Mol)
                                    6.68723 (Kcal/Mol)
 Warning -- explicit consideration of   1 degrees of freedom as
           vibrations may cause significant error
 Vibrational temperatures:    888.60   927.87   937.58  1036.12  1036.12
          (Kelvin)           1903.99

 Zero-point correction=                           0.010657 (Hartree/Particle)
 Thermal correction to Energy=                    0.014130
 Thermal correction to Enthalpy=                  0.015074
 Thermal correction to Gibbs Free Energy=        -0.013670
 Sum of electronic and zero-point Energies=           -152.053234
 Sum of electronic and thermal Energies=              -152.049761
 Sum of electronic and thermal Enthalpies=            -152.048817
 Sum of electronic and thermal Free Energies=         -152.077561

                     E (Thermal)             CV                S
                      KCal/Mol        Cal/Mol-Kelvin    Cal/Mol-Kelvin
 Total                    8.867             10.538             60.498
 Electronic               0.000              0.000              2.183
 Translational            0.889              2.981             37.530
 Rotational               0.889              2.981             19.025
 Vibrational              7.089              4.577              1.759
 Vibration     1          0.977              0.995              0.420

 Optimization completed.
    -- Stationary point found.
 Normal termination of Gaussian 09 at Sun Mar  4 20:56:24 2018.
