 Gaussian 09, Revision D.01,
 Gaussian 09:  ES64L-G09RevD.01 24-Apr-2013

 ---------------------------
 #p b3lyp/6-311++g(d,p) freq
 ---------------------------

 ---
 min
 ---
 Symbolic Z-matrix:
 Charge =  1 Multiplicity = 4

                         Standard orientation:
 ---------------------------------------------------------------------
 Center     Atomic      Atomic             Coordinates (Angstroms)
 Number     Number       Type             X           Y           Z
 ---------------------------------------------------------------------
      1          6           0        0.000000    0.761167   -0.000000
      2          6           0        0.000000   -0.000000    1.158476
      3          6           0       -0.000000   -0.761167   -0.000000
      4          6           0        0.000000   -0.000000   -1.158476
 ---------------------------------------------------------------------

 SCF Done:  E(UB3LYP) =  -151.694654061     A.U. after   12 cycles

 The electronic state is 4-B3U.
 Alpha  occ. eigenvalues --  -10.61497 -10.61470 -10.59625 -10.59615  -1.35087
 Alpha  occ. eigenvalues --   -1.06409  -0.88380  -0.77207  -0.75057  -0.74986
 Alpha  occ. eigenvalues --   -0.64071  -0.61742  -0.55353
 Alpha virt. eigenvalues --   -0.38696  -0.34596  -0.26674  -0.14909  -0.13715
 Alpha virt. eigenvalues --   -0.12116  -0.11112  -0.09318  -0.08412  -0.06273
 Alpha virt. eigenvalues --   -0.05848  -0.05118  -0.02777  -0.01735   0.00652

  Beta  occ. eigenvalues --  -10.60987 -10.60963 -10.56827 -10.56822  -1.33428
  Beta  occ. eigenvalues --   -1.01651  -0.85680  -0.73101  -0.72859  -0.65082
  Beta virt. eigenvalues --   -0.47241  -0.44468  -0.39237  -0.38058  -0.29701
  Beta virt. eigenvalues --   -0.18167  -0.14345  -0.13068  -0.11298  -0.09768
  Beta virt. eigenvalues --   -0.08976  -0.08003  -0.05738  -0.05125  -0.05040

 Mulliken charges and spin densities:
               1          2
     1  C    0.357127   0.273361
     2  C    0.142873   1.226639
     3  C    0.357127   0.273361
     4  C    0.142873   1.226639
 Sum of Mulliken charges =   1.00000   3.00000

 Dipole moment (field-independent basis, Debye):
    X=             -0.0000    Y=              0.0000    Z=             -0.0000  Tot=              0.0000
 Quadrupole moment (field-independent basis, Debye-Ang):
   XX=            -18.7276   YY=            -17.5169   ZZ=            -15.2714
   XY=              0.0000   XZ=             -0.0000   YZ=             -0.0000

  Exact polarizability:  16.534  -0.000  28.565   0.000  -0.000  40.219
 Approx polarizability:  24.236   0.000  61.249  -0.000  -0.000  82.065

                      1                      2                      3
                     B3U                    B3G                    B2U
 Frequencies --    580.7868               764.0342               834.3976
 Red. masses --     12.0000                12.0000                12.0000
 Frc consts  --      2.3849                 4.1272                 4.9224
 IR Inten    --      0.5792                 0.0000                25.5016

                      4                      5                      6
                     AG                     B1U                    AG
 Frequencies --    877.9230              1384.6938              1457.7937
 Red. masses --     12.0000                12.0000                12.0000
 Frc consts  --      5.4493                13.5562                15.0253
 IR Inten    --      0.0000                49.9213                 0.0000

 - Thermochemistry -
 -------------------
 Temperature   298.150 Kelvin.  Pressure   1.00000 Atm.
 Atom     1 has atomic number  6 and mass  12.00000

 Molecular mass:    48.00000 amu.
 Principal axes and moments of inertia in atomic units:
                           1         2         3
     Eigenvalues --    49.65563 115.02265 164.67828
           X            0.00000   0.00000   1.00000
           Y            0.00000   1.00000  -0.00000
           Z            1.00000  -0.00000   0.00000
 This molecule is an asymmetric top.
 Rotational symmetry number  4.
 Rotational temperatures (Kelvin)      1.74429     0.75302     0.52596
 Rotational constants (GHZ):          36.34515    15.69031    10.95919
 Zero-point vibrational energy      35287.6 (Joules/Mol)
                                    8.43394 (Kcal/Mol)
 Warning -- explicit consideration of   1 degrees of freedom as
           vibrations may cause significant error
 Vibrational temperatures:    835.62  1099.27  1200.51  1263.13  1992.26
          (Kelvin)           2097.44

 Zero-point correction=                           0.013440 (Hartree/Particle)
 Thermal correction to Energy=                    0.016675
 Thermal correction to Enthalpy=                  0.017619
 Thermal correction to Gibbs Free Energy=        -0.010931
 Sum of electronic and zero-point Energies=           -151.681214
 Sum of electronic and thermal Energies=              -151.677979
 Sum of electronic and thermal Enthalpies=            -151.677035
 Sum of electronic and thermal Free Energies=         -151.705585

                     E (Thermal)             CV                S
                      KCal/Mol        Cal/Mol-Kelvin    Cal/Mol-Kelvin
 Total                   10.464              9.071             60.089
 Electronic               0.000              0.000              2.755
 Translational            0.889              2.981             37.530
 Rotational               0.889              2.981             18.714
 Vibrational              8.686              3.110              1.089
 Vibration     1          0.937              1.073              0.484

 Optimization completed.
    -- Stationary point found.
 Normal termination of Gaussian 09 at Thu Jan 24 15:34:00 2019.
