 Gaussian 09, Revision D.01,
 Gaussian 09:  ES64L-G09RevD.01 24-Apr-2013

 ---------------------------
 #p b3lyp/6-311++g(d,p) freq
 ---------------------------

 ---
 min
 ---
 Symbolic Z-matrix:
 Charge =  1 Multiplicity = 2

                         Standard orientation:
 ---------------------------------------------------------------------
 Center     Atomic      Atomic             Coordinates (Angstroms)
 Number     Number       Type             X           Y           Z
 ---------------------------------------------------------------------
      1          6           0        0.000000    0.000000    1.995751
      2          6           0        0.000000    0.000000    0.628935
      3          6           0        0.000000    0.000000   -0.628935
      4          6           0        0.000000    0.000000   -1.995751
 ---------------------------------------------------------------------

 SCF Done:  E(UB3LYP) =  -151.716844965     A.U. after   11 cycles

 Unable to determine electronic state:  an orbital has unidentified symmetry.
 Alpha  occ. eigenvalues --  -10.60297 -10.60296 -10.55203 -10.55055  -1.14991
 Alpha  occ. eigenvalues --   -1.07330  -0.97591  -0.68892  -0.67312  -0.62295
 Alpha  occ. eigenvalues --   -0.61028  -0.57612
 Alpha virt. eigenvalues --   -0.50374  -0.38530  -0.36052  -0.18347  -0.17774
 Alpha virt. eigenvalues --   -0.17189  -0.12741  -0.11255  -0.11190  -0.06978
 Alpha virt. eigenvalues --   -0.05826  -0.05635  -0.05092  -0.04109  -0.01083

  Beta  occ. eigenvalues --  -10.59643 -10.59643 -10.55092 -10.54940  -1.14063
  Beta  occ. eigenvalues --   -1.04951  -0.96377  -0.67097  -0.65935  -0.60977
  Beta  occ. eigenvalues --   -0.59865
  Beta virt. eigenvalues --   -0.49545  -0.47389  -0.35374  -0.33375  -0.17639
  Beta virt. eigenvalues --   -0.16856  -0.15487  -0.12107  -0.11227  -0.10840
  Beta virt. eigenvalues --   -0.06919  -0.05532  -0.05096  -0.04688  -0.03772

 Mulliken charges and spin densities:
               1          2
     1  C    0.241138   0.399305
     2  C    0.258862   0.100695
     3  C    0.258862   0.100695
     4  C    0.241138   0.399305
 Sum of Mulliken charges =   1.00000   1.00000

 Dipole moment (field-independent basis, Debye):
    X=              0.0000    Y=              0.0000    Z=             -0.0000  Tot=              0.0000
 Quadrupole moment (field-independent basis, Debye-Ang):
   XX=            -18.1224   YY=            -19.8020   ZZ=            -14.1115
   XY=             -0.0000   XZ=             -0.0000   YZ=              0.0000

  Exact polarizability:  21.035  -0.000  21.822   0.000   0.000  78.536
 Approx polarizability:  31.810  -0.000  28.888  -0.000  -0.000 202.881

                      1                      2                      3
                     PIU                    PIU                    PIG
 Frequencies --    125.0401               142.1697               213.5035
 Red. masses --     12.0000                12.0000                12.0000
 Frc consts  --      0.1105                 0.1429                 0.3223
 IR Inten    --     12.4134                 6.6097                 0.0000

                      4                      5                      6
                     PIG                    SGG                    SGU
 Frequencies --    284.6582               888.7989              1324.5813
 Red. masses --     12.0000                12.0000                12.0000
 Frc consts  --      0.5729                 5.5852                12.4048
 IR Inten    --      0.0000                 0.0000               654.9381

                      7
                     SGG
 Frequencies --   2142.5447
 Red. masses --     12.0000
 Frc consts  --     32.4557
 IR Inten    --      0.0000

 - Thermochemistry -
 -------------------
 Temperature   298.150 Kelvin.  Pressure   1.00000 Atm.
 Atom     1 has atomic number  6 and mass  12.00000

 Molecular mass:    48.00000 amu.
 Principal axes and moments of inertia in atomic units:
                           1         2         3
     Eigenvalues --     0.00000 375.26875 375.26875
           X           -0.00000   1.00000  -0.00000
           Y            0.00000   0.00000   1.00000
           Z            1.00000   0.00000  -0.00000
 This molecule is a prolate symmetric top.
 Rotational symmetry number  2.
 Rotational temperature (Kelvin)      0.23080
 Rotational constant (GHZ):           4.809197
 Zero-point vibrational energy      30632.2 (Joules/Mol)
                                    7.32126 (Kcal/Mol)
 Warning -- explicit consideration of   4 degrees of freedom as
           vibrations may cause significant error
 Vibrational temperatures:    179.90   204.55   307.18   409.56  1278.78
          (Kelvin)           1905.77  3082.64

 Zero-point correction=                           0.011667 (Hartree/Particle)
 Thermal correction to Energy=                    0.016419
 Thermal correction to Enthalpy=                  0.017363
 Thermal correction to Gibbs Free Energy=        -0.012684
 Sum of electronic and zero-point Energies=           -151.705178
 Sum of electronic and thermal Energies=              -151.700426
 Sum of electronic and thermal Enthalpies=            -151.699482
 Sum of electronic and thermal Free Energies=         -151.729529

                     E (Thermal)             CV                S
                      KCal/Mol        Cal/Mol-Kelvin    Cal/Mol-Kelvin
 Total                   10.303             12.988             63.239
 Electronic               0.000              0.000              1.377
 Translational            0.889              2.981             37.530
 Rotational               0.592              1.987             14.846
 Vibrational              8.822              8.020              9.486
 Vibration     1          0.610              1.928              3.021
 Vibration     2          0.616              1.911              2.774
 Vibration     3          0.644              1.820              2.014
 Vibration     4          0.683              1.702              1.506

 Optimization completed.
    -- Stationary point found.
 Normal termination of Gaussian 09 at Thu Jan 24 15:33:56 2019.
