 Gaussian 09, Revision D.01,
 Gaussian 09:  ES64L-G09RevD.01 24-Apr-2013

 ---------------------------
 #p b3lyp/6-311++g(d,p) freq
 ---------------------------

 ---
 min
 ---
 Symbolic Z-matrix:
 Charge =  0 Multiplicity = 1

                         Standard orientation:
 ---------------------------------------------------------------------
 Center     Atomic      Atomic             Coordinates (Angstroms)
 Number     Number       Type             X           Y           Z
 ---------------------------------------------------------------------
      1          8           0        0.000000    0.563306   -0.000000
      2          6           0       -0.967198   -0.444139    0.000000
      3          6           0       -2.252455   -0.131692    0.000000
      4          6           0        1.250949    0.204091   -0.000000
      5          6           0        2.416725   -0.079792   -0.000000
      6          1           0       -0.559020   -1.447493    0.000000
      7          1           0       -2.989777   -0.922037    0.000000
      8          1           0       -2.588182    0.897282   -0.000000
      9          1           0        3.448851   -0.325003   -0.000000
 ---------------------------------------------------------------------

 SCF Done:  E(RB3LYP) =  -229.996528943     A.U. after   13 cycles

 The electronic state is 1-A'.
 Alpha  occ. eigenvalues --  -19.21585 -10.25760 -10.23582 -10.18403 -10.17074
 Alpha  occ. eigenvalues --   -1.13275  -0.80962  -0.75140  -0.65255  -0.58630
 Alpha  occ. eigenvalues --   -0.52646  -0.49297  -0.46893  -0.44298  -0.40575
 Alpha  occ. eigenvalues --   -0.30772  -0.28674  -0.24987
 Alpha virt. eigenvalues --   -0.01707  -0.00624   0.00795   0.01766   0.02883
 Alpha virt. eigenvalues --    0.03267   0.04634   0.04979   0.05415   0.07580
 Alpha virt. eigenvalues --    0.08261   0.09695   0.09779   0.11243   0.12560

 Mulliken charges:
               1
     1  O   -0.145477
     2  C    0.018997
     3  C   -0.345152
     4  C    0.229175
     5  C   -0.339215
     6  H    0.145327
     7  H    0.128444
     8  H    0.146336
     9  H    0.161563
 Sum of Mulliken charges =  -0.00000

 Dipole moment (field-independent basis, Debye):
    X=             -0.8625    Y=             -1.1753    Z=              0.0000  Tot=              1.4578
 Quadrupole moment (field-independent basis, Debye-Ang):
   XX=            -23.7003   YY=            -29.0646   ZZ=            -32.4838
   XY=             -0.6352   XZ=              0.0000   YZ=              0.0000

  Exact polarizability:  87.520  -4.480  36.594   0.007   0.004  32.159
 Approx polarizability: 124.811 -12.767  50.006  -0.000  -0.000  41.374

                      1                      2                      3
                     A"                     A'                     A'
 Frequencies --     72.0767               178.0842               433.9114
 Red. masses --      2.7708                 3.8329                 2.8383
 Frc consts  --      0.0085                 0.0716                 0.3149
 IR Inten    --      0.0016                 0.7237                 1.0025

                      4                      5                      6
                     A"                     A"                     A'
 Frequencies --    439.7456               551.5998               576.9835
 Red. masses --     11.7209                 1.1569                 7.1736
 Frc consts  --      1.3354                 0.2074                 1.4071
 IR Inten    --      7.2235                63.9875                 2.8674

                      7                      8                      9
                     A'                     A"                     A'
 Frequencies --    665.5922               693.6579               853.9109
 Red. masses --      1.1896                 1.4811                 2.4293
 Frc consts  --      0.3105                 0.4199                 1.0436
 IR Inten    --     57.5031                 6.6285                21.8495

                     10                     11                     12
                     A"                     A"                     A'
 Frequencies --    887.1741               964.9496              1122.2380
 Red. masses --      1.3829                 1.0950                 2.5893
 Frc consts  --      0.6413                 0.6007                 1.9213
 IR Inten    --     54.8275                33.5362                16.7654

                     13                     14                     15
                     A'                     A'                     A'
 Frequencies --   1186.4193              1333.9310              1413.4241
 Red. masses --      7.3771                 1.1628                 1.1632
 Frc consts  --      6.1181                 1.2190                 1.3692
 IR Inten    --    363.0137                 4.2706                10.4017

                     16                     17                     18
                     A'                     A'                     A'
 Frequencies --   1701.8162              2271.2173              3164.6394
 Red. masses --      4.5860                 6.2296                 1.0578
 Frc consts  --      7.8255                18.9334                 6.2416
 IR Inten    --    195.8007               296.2927                 3.2473

                     19                     20                     21
                     A'                     A'                     A'
 Frequencies --   3197.6387              3261.1233              3491.2775
 Red. masses --      1.0996                 1.1173                 1.1608
 Frc consts  --      6.6243                 7.0006                 8.3362
 IR Inten    --      4.5726                 1.0263               136.1586

 - Thermochemistry -
 -------------------
 Temperature   298.150 Kelvin.  Pressure   1.00000 Atm.
 Atom     1 has atomic number  8 and mass  15.99491

 Molecular mass:    68.02621 amu.
 Principal axes and moments of inertia in atomic units:
                           1         2         3
     Eigenvalues --    41.26670 676.51001 717.77671
           X            0.99856  -0.05358   0.00000
           Y            0.05358   0.99856   0.00000
           Z            0.00000  -0.00000   1.00000
 This molecule is an asymmetric top.
 Rotational symmetry number  1.
 Rotational temperatures (Kelvin)      2.09888     0.12803     0.12067
 Rotational constants (GHZ):          43.73360     2.66772     2.51435
 Zero-point vibrational energy     170237.0 (Joules/Mol)
                                   40.68763 (Kcal/Mol)
 Warning -- explicit consideration of   6 degrees of freedom as
           vibrations may cause significant error
 Vibrational temperatures:    103.70   256.22   624.30   632.70   793.63
          (Kelvin)            830.15   957.64   998.02  1228.59  1276.44
                             1388.35  1614.65  1706.99  1919.23  2033.60
                             2448.53  3267.77  4553.20  4600.68  4692.02
                             5023.16

 Zero-point correction=                           0.064840 (Hartree/Particle)
 Thermal correction to Energy=                    0.070435
 Thermal correction to Enthalpy=                  0.071379
 Thermal correction to Gibbs Free Energy=         0.036476
 Sum of electronic and zero-point Energies=           -229.931689
 Sum of electronic and thermal Energies=              -229.926094
 Sum of electronic and thermal Enthalpies=            -229.925150
 Sum of electronic and thermal Free Energies=         -229.960053

                     E (Thermal)             CV                S
                      KCal/Mol        Cal/Mol-Kelvin    Cal/Mol-Kelvin
 Total                   44.199             18.784             73.460
 Electronic               0.000              0.000              0.000
 Translational            0.889              2.981             38.570
 Rotational               0.889              2.981             24.509
 Vibrational             42.421             12.822             10.382
 Vibration     1          0.598              1.967              4.096
 Vibration     2          0.629              1.869              2.348
 Vibration     3          0.795              1.396              0.846
 Vibration     4          0.800              1.384              0.827
 Vibration     5          0.907              1.136              0.541
 Vibration     6          0.933              1.081              0.491

 Optimization completed.
    -- Stationary point found.
 Normal termination of Gaussian 09 at Sun Mar  4 21:21:50 2018.
