 Gaussian 09, Revision D.01,
 Gaussian 09:  ES64L-G09RevD.01 24-Apr-2013

 ---------------------------
 #p b3lyp/6-311++g(d,p) freq
 ---------------------------

 ---
 min
 ---
 Symbolic Z-matrix:
 Charge =  0 Multiplicity = 1

                         Standard orientation:
 ---------------------------------------------------------------------
 Center     Atomic      Atomic             Coordinates (Angstroms)
 Number     Number       Type             X           Y           Z
 ---------------------------------------------------------------------
      1          8           0       -0.000000   -0.000000    2.294340
      2          6           0        0.000000    0.754889   -1.438394
      3          6           0       -0.000000   -0.754889   -1.438394
      4          6           0        0.000000    0.000000   -0.159721
      5          6           0       -0.000000   -0.000000    1.123577
      6          1           0       -0.915936    1.266363   -1.719283
      7          1           0        0.915936    1.266363   -1.719283
      8          1           0        0.915936   -1.266363   -1.719283
      9          1           0       -0.915936   -1.266363   -1.719283
 ---------------------------------------------------------------------

 SCF Done:  E(RB3LYP) =  -230.041630302     A.U. after   12 cycles

 The electronic state is 1-A1.
 Alpha  occ. eigenvalues --  -19.17487 -10.28424 -10.21382 -10.21357 -10.19024
 Alpha  occ. eigenvalues --   -1.10582  -0.88842  -0.72887  -0.63148  -0.53771
 Alpha  occ. eigenvalues --   -0.50603  -0.50337  -0.44836  -0.43854  -0.39510
 Alpha  occ. eigenvalues --   -0.35320  -0.33267  -0.23498
 Alpha virt. eigenvalues --   -0.04821  -0.00970   0.00794   0.01215   0.01961
 Alpha virt. eigenvalues --    0.05157   0.05864   0.06310   0.06326   0.06920
 Alpha virt. eigenvalues --    0.08460   0.10253   0.10702   0.12204   0.13150

 Mulliken charges:
               1
     1  O   -0.207562
     2  C   -0.170696
     3  C   -0.170696
     4  C    0.635942
     5  C   -0.704305
     6  H    0.154329
     7  H    0.154329
     8  H    0.154329
     9  H    0.154329
 Sum of Mulliken charges =  -0.00000

 Dipole moment (field-independent basis, Debye):
    X=             -0.0000    Y=              0.0000    Z=             -2.8717  Tot=              2.8717
 Quadrupole moment (field-independent basis, Debye-Ang):
   XX=            -28.6821   YY=            -27.6579   ZZ=            -33.5872
   XY=              0.0000   XZ=             -0.0000   YZ=             -0.0000

  Exact polarizability:  34.333   0.000  39.156   0.000  -0.000  74.688
 Approx polarizability:  46.768  -0.000  53.494  -0.000   0.000 126.055

                      1                      2                      3
                     B1                     B2                     B1
 Frequencies --     66.5206               170.6186               518.0701
 Red. masses --      3.8403                 4.9234                12.1711
 Frc consts  --      0.0100                 0.0844                 1.9247
 IR Inten    --      7.2616                 0.3483                13.4280

                      4                      5                      6
                     A1                     B2                     B1
 Frequencies --    646.6882               659.3967               807.5877
 Red. masses --      6.0292                 8.1255                 1.0231
 Frc consts  --      1.4856                 2.0816                 0.3931
 IR Inten    --     43.1422                 7.0193                 0.5945

                      7                      8                      9
                     A2                     B2                     A1
 Frequencies --    932.4612               932.8286              1030.5069
 Red. masses --      1.0845                 9.2155                 3.0271
 Frc consts  --      0.5556                 4.7247                 1.8940
 IR Inten    --      0.0000                 1.3165                11.0546

                     10                     11                     12
                     A1                     B1                     B2
 Frequencies --   1059.8784              1066.1760              1096.3488
 Red. masses --      1.3429                 1.2887                 1.3265
 Frc consts  --      0.8888                 0.8631                 0.9394
 IR Inten    --     25.3089                 1.5295                10.1635

                     13                     14                     15
                     A2                     B2                     A1
 Frequencies --   1167.2895              1468.2035              1473.9746
 Red. masses --      1.2806                 1.0836                 1.2307
 Frc consts  --      1.0281                 1.3762                 1.5754
 IR Inten    --      0.0000                 0.7275                 8.9113

                     16                     17                     18
                     A1                     A1                     A1
 Frequencies --   1572.7623              2252.6111              3094.1837
 Red. masses --      6.4000                12.0572                 1.0552
 Frc consts  --      9.3274                36.0470                 5.9524
 IR Inten    --      4.2110              1231.4011                32.1358

                     19                     20                     21
                     B2                     A2                     B1
 Frequencies --   3094.7537              3169.7657              3182.7772
 Red. masses --      1.0474                 1.1195                 1.1177
 Frc consts  --      5.9103                 6.6270                 6.6712
 IR Inten    --     20.9113                 0.0000                17.4435

 - Thermochemistry -
 -------------------
 Temperature   298.150 Kelvin.  Pressure   1.00000 Atm.
 Atom     1 has atomic number  8 and mass  15.99491

 Molecular mass:    68.02621 amu.
 Principal axes and moments of inertia in atomic units:
                           1         2         3
     Eigenvalues --    84.00390 585.38311 645.23223
           X            0.00000   0.00000   1.00000
           Y            0.00000   1.00000  -0.00000
           Z            1.00000  -0.00000  -0.00000
 This molecule is an asymmetric top.
 Rotational symmetry number  2.
 Rotational temperatures (Kelvin)      1.03107     0.14796     0.13424
 Rotational constants (GHZ):          21.48402     3.08301     2.79704
 Zero-point vibrational energy     176230.3 (Joules/Mol)
                                   42.12005 (Kcal/Mol)
 Warning -- explicit consideration of   3 degrees of freedom as
           vibrations may cause significant error
 Vibrational temperatures:     95.71   245.48   745.39   930.44   948.72
          (Kelvin)           1161.94  1341.60  1342.13  1482.67  1524.93
                             1533.99  1577.40  1679.47  2112.41  2120.72
                             2262.85  3241.00  4451.83  4452.65  4560.58
                             4579.30

 Zero-point correction=                           0.067123 (Hartree/Particle)
 Thermal correction to Energy=                    0.072163
 Thermal correction to Enthalpy=                  0.073107
 Thermal correction to Gibbs Free Energy=         0.039368
 Sum of electronic and zero-point Energies=           -229.974508
 Sum of electronic and thermal Energies=              -229.969468
 Sum of electronic and thermal Enthalpies=            -229.968523
 Sum of electronic and thermal Free Energies=         -230.002262

                     E (Thermal)             CV                S
                      KCal/Mol        Cal/Mol-Kelvin    Cal/Mol-Kelvin
 Total                   45.283             16.127             71.009
 Electronic               0.000              0.000              0.000
 Translational            0.889              2.981             38.570
 Rotational               0.889              2.981             23.588
 Vibrational             43.505             10.165              8.851
 Vibration     1          0.598              1.970              4.254
 Vibration     2          0.626              1.879              2.429
 Vibration     3          0.873              1.210              0.614

 Optimization completed.
    -- Stationary point found.
 Normal termination of Gaussian 09 at Sun Mar  4 21:20:37 2018.
