 Gaussian 09, Revision D.01,
 Gaussian 09:  ES64L-G09RevD.01 24-Apr-2013

 ---------------------------
 #p b3lyp/6-311++g(d,p) freq
 ---------------------------

 ---
 min
 ---
 Symbolic Z-matrix:
 Charge =  1 Multiplicity = 2

                         Standard orientation:
 ---------------------------------------------------------------------
 Center     Atomic      Atomic             Coordinates (Angstroms)
 Number     Number       Type             X           Y           Z
 ---------------------------------------------------------------------
      1          8           0        2.049345   -0.673023   -0.000025
      2          6           0       -2.426176   -0.157916    0.000303
      3          6           0       -1.023313    0.093418    0.000409
      4          6           0        0.172513    0.381673    0.000178
      5          6           0        1.579063    0.460371   -0.000138
      6          1           0       -2.720731   -0.673330    0.922521
      7          1           0       -2.701968   -0.768917   -0.868308
      8          1           0       -2.977196    0.792307   -0.058140
      9          1           0        2.192611    1.368847   -0.000390
 ---------------------------------------------------------------------

 SCF Done:  E(UB3LYP) =  -229.684189973     A.U. after   19 cycles

 The electronic state is 2-A.
 Alpha  occ. eigenvalues --  -19.46506 -10.55004 -10.48411 -10.45307 -10.40628
 Alpha  occ. eigenvalues --   -1.37144  -1.06136  -0.98067  -0.91393  -0.81306
 Alpha  occ. eigenvalues --   -0.74276  -0.70239  -0.69496  -0.65850  -0.65387
 Alpha  occ. eigenvalues --   -0.60231  -0.53882  -0.53809
 Alpha virt. eigenvalues --   -0.33290  -0.22661  -0.15976  -0.15455  -0.13846
 Alpha virt. eigenvalues --   -0.11056  -0.10222  -0.09219  -0.08661  -0.07002
 Alpha virt. eigenvalues --   -0.06366  -0.05186  -0.04771  -0.03956  -0.02263

  Beta  occ. eigenvalues --  -19.44751 -10.55111 -10.48067 -10.44958 -10.40619
  Beta  occ. eigenvalues --   -1.33787  -1.04755  -0.97339  -0.90377  -0.79031
  Beta  occ. eigenvalues --   -0.72377  -0.69778  -0.68384  -0.65139  -0.64724
  Beta  occ. eigenvalues --   -0.53149  -0.52752
  Beta virt. eigenvalues --   -0.43830  -0.32775  -0.20435  -0.15866  -0.15224
  Beta virt. eigenvalues --   -0.13758  -0.10869  -0.10196  -0.09104  -0.08388
  Beta virt. eigenvalues --   -0.07032  -0.06259  -0.05144  -0.04446  -0.03729

 Mulliken charges and spin densities:
               1          2
     1  O    0.078960   0.610452
     2  C   -0.642805   0.001441
     3  C    0.532319   0.222483
     4  C    0.681865   0.164341
     5  C   -0.596933  -0.062601
     6  H    0.230684   0.004931
     7  H    0.231099   0.008211
     8  H    0.237780   0.029304
     9  H    0.247031   0.021438
 Sum of Mulliken charges =   1.00000   1.00000

 Dipole moment (field-independent basis, Debye):
    X=             -1.4888    Y=              1.8451    Z=             -0.0058  Tot=              2.3709
 Quadrupole moment (field-independent basis, Debye-Ang):
   XX=             -3.7422   YY=            -24.2610   ZZ=            -26.1453
   XY=              5.4951   XZ=              0.0148   YZ=              0.0004

  Exact polarizability: 124.850  -4.966  35.445   0.172  -0.008  26.346
 Approx polarizability: 244.767 -23.455  59.124   0.255  -0.025  36.181

                      1                      2                      3
                      A                      A                      A
 Frequencies --     14.5936               123.6786               186.7875
 Red. masses --      1.1736                 5.3777                 2.8833
 Frc consts  --      0.0001                 0.0485                 0.0593
 IR Inten    --      0.9094                 1.6340                23.3940

                      4                      5                      6
                      A                      A                      A
 Frequencies --    341.3964               402.7859               543.4950
 Red. masses --      3.6085                 3.7630                 8.3861
 Frc consts  --      0.2478                 0.3597                 1.4595
 IR Inten    --      8.2296                 0.8440                 8.6739

                      7                      8                      9
                      A                      A                      A
 Frequencies --    741.5168               952.7429               973.5918
 Red. masses --      4.3931                 1.5311                 1.5357
 Frc consts  --      1.4232                 0.8189                 0.8576
 IR Inten    --     15.5675                13.9487                51.4179

                     10                     11                     12
                      A                      A                      A
 Frequencies --    995.0283              1190.6248              1270.7868
 Red. masses --      1.5322                 3.9550                 1.2110
 Frc consts  --      0.8938                 3.3033                 1.1523
 IR Inten    --      6.6707                52.0525               197.2640

                     13                     14                     15
                      A                      A                      A
 Frequencies --   1366.8205              1389.8310              1404.4073
 Red. masses --      1.1678                 1.0348                 1.1610
 Frc consts  --      1.2854                 1.1777                 1.3492
 IR Inten    --     65.6776                22.1421                10.9247

                     16                     17                     18
                      A                      A                      A
 Frequencies --   1557.1019              2216.8541              2986.2526
 Red. masses --      8.0576                11.4200                 1.0368
 Frc consts  --     11.5104                33.0667                 5.4474
 IR Inten    --     34.4699              1035.5643               223.0857

                     19                     20                     21
                      A                      A                      A
 Frequencies --   3049.2055              3071.0404              3078.8779
 Red. masses --      1.0927                 1.0990                 1.0961
 Frc consts  --      5.9857                 6.1070                 6.1217
 IR Inten    --     29.8605                21.4474                34.2828

 - Thermochemistry -
 -------------------
 Temperature   298.150 Kelvin.  Pressure   1.00000 Atm.
 Atom     1 has atomic number  8 and mass  15.99491

 Molecular mass:    68.02621 amu.
 Principal axes and moments of inertia in atomic units:
                           1         2         3
     Eigenvalues --    60.79950 751.42294 800.64525
           X            0.99974   0.02299   0.00004
           Y           -0.02299   0.99974   0.00000
           Z           -0.00004  -0.00000   1.00000
 This molecule is an asymmetric top.
 Rotational symmetry number  1.
 Rotational temperatures (Kelvin)      1.42458     0.11527     0.10818
 Rotational constants (GHZ):          29.68349     2.40176     2.25411
 Zero-point vibrational energy     166624.4 (Joules/Mol)
                                   39.82418 (Kcal/Mol)
 Warning -- explicit consideration of   6 degrees of freedom as
           vibrations may cause significant error
 Vibrational temperatures:     21.00   177.95   268.75   491.19   579.52
          (Kelvin)            781.97  1066.88  1370.78  1400.78  1431.62
                             1713.04  1828.38  1966.55  1999.65  2020.63
                             2240.32  3189.55  4296.55  4387.12  4418.54
                             4429.81

 Zero-point correction=                           0.063464 (Hartree/Particle)
 Thermal correction to Energy=                    0.069628
 Thermal correction to Enthalpy=                  0.070573
 Thermal correction to Gibbs Free Energy=         0.032066
 Sum of electronic and zero-point Energies=           -229.620726
 Sum of electronic and thermal Energies=              -229.614561
 Sum of electronic and thermal Enthalpies=            -229.613617
 Sum of electronic and thermal Free Energies=         -229.652124

                     E (Thermal)             CV                S
                      KCal/Mol        Cal/Mol-Kelvin    Cal/Mol-Kelvin
 Total                   43.693             18.693             81.045
 Electronic               0.000              0.000              1.377
 Translational            0.889              2.981             38.570
 Rotational               0.889              2.981             25.106
 Vibrational             41.915             12.731             15.991
 Vibration     1          0.593              1.986              7.260
 Vibration     2          0.610              1.929              3.042
 Vibration     3          0.632              1.858              2.259
 Vibration     4          0.721              1.593              1.206
 Vibration     5          0.768              1.464              0.952
 Vibration     6          0.899              1.154              0.558

 Normal termination of Gaussian 09 at Thu Jan 24 16:22:42 2019.
