 Gaussian 09, Revision D.01,
 Gaussian 09:  ES64L-G09RevD.01 24-Apr-2013

 ---------------------------
 #p b3lyp/6-311++g(d,p) freq
 ---------------------------

 ---
 min
 ---
 Symbolic Z-matrix:
 Charge =  0 Multiplicity = 1

                         Standard orientation:
 ---------------------------------------------------------------------
 Center     Atomic      Atomic             Coordinates (Angstroms)
 Number     Number       Type             X           Y           Z
 ---------------------------------------------------------------------
      1          6           0       -0.245793   -1.021457    0.000000
      2          6           0       -0.245793    1.493099    0.641792
      3          8           0        0.317157   -2.090964    0.000000
      4          6           0       -0.245793    1.493099   -0.641792
      5          6           0        0.443112    0.294580   -0.000000
      6          1           0       -1.358383   -0.957154    0.000000
      7          1           0       -0.471940    1.951026   -1.588419
      8          1           0       -0.471940    1.951026    1.588419
      9          1           0        1.530612    0.226895   -0.000000
 ---------------------------------------------------------------------

 SCF Done:  E(RB3LYP) =  -230.013941604     A.U. after   12 cycles

 The electronic state is 1-A'.
 Alpha  occ. eigenvalues --  -19.12171 -10.25937 -10.22257 -10.22130 -10.21578
 Alpha  occ. eigenvalues --   -1.05188  -0.91072  -0.68476  -0.59923  -0.58002
 Alpha  occ. eigenvalues --   -0.54193  -0.46278  -0.45176  -0.40755  -0.38922
 Alpha  occ. eigenvalues --   -0.31759  -0.30958  -0.25737
 Alpha virt. eigenvalues --   -0.05510  -0.01813  -0.00558   0.01245   0.01261
 Alpha virt. eigenvalues --    0.01806   0.05185   0.06446   0.06859   0.07341
 Alpha virt. eigenvalues --    0.08585   0.09697   0.10891   0.11021   0.11186

 Mulliken charges:
               1
     1  C   -0.158756
     2  C   -0.233889
     3  O   -0.266219
     4  C   -0.233889
     5  C    0.248160
     6  H    0.085784
     7  H    0.181975
     8  H    0.181975
     9  H    0.194860
 Sum of Mulliken charges =  -0.00000

 Dipole moment (field-independent basis, Debye):
    X=             -1.0693    Y=              3.8047    Z=              0.0000  Tot=              3.9521
 Quadrupole moment (field-independent basis, Debye-Ang):
   XX=            -29.5470   YY=            -35.2374   ZZ=            -26.1278
   XY=              1.3655   XZ=             -0.0000   YZ=              0.0000

  Exact polarizability:  41.800  -6.717  60.106   0.000   0.000  41.596
 Approx polarizability:  58.964 -13.620  84.358   0.000   0.000  68.618

                      1                      2                      3
                     A"                     A'                     A"
 Frequencies --    132.9182               322.1100               344.2599
 Red. masses --      3.6766                 3.5280                 2.1398
 Frc consts  --      0.0383                 0.2157                 0.1494
 IR Inten    --      4.5246                 4.3139                 2.7538

                      4                      5                      6
                     A'                     A'                     A"
 Frequencies --    518.5065               641.6484               743.5542
 Red. masses --      6.1548                 1.2189                 3.4590
 Frc consts  --      0.9749                 0.2957                 1.1268
 IR Inten    --     10.3509               107.8798                 4.2076

                      7                      8                      9
                     A"                     A'                     A"
 Frequencies --    859.5288               924.9448               999.0057
 Red. masses --      1.4354                 1.1532                 1.4046
 Frc consts  --      0.6248                 0.5813                 0.8259
 IR Inten    --      0.0523                 3.0560                43.1825

                     10                     11                     12
                     A"                     A"                     A'
 Frequencies --   1030.1383              1064.3508              1101.5541
 Red. masses --      1.5343                 1.4440                 4.2720
 Frc consts  --      0.9593                 0.9638                 3.0542
 IR Inten    --      0.8769                 8.7074                 8.2663

                     13                     14                     15
                     A'                     A'                     A'
 Frequencies --   1112.3988              1314.2761              1409.5019
 Red. masses --      4.5561                 1.2078                 1.2290
 Frc consts  --      3.3217                 1.2292                 1.4386
 IR Inten    --     74.2501                 2.6424                 1.3023

                     16                     17                     18
                     A'                     A'                     A'
 Frequencies --   1735.4073              1792.3681              2854.0923
 Red. masses --      5.6295                 8.4986                 1.0829
 Frc consts  --      9.9891                16.0862                 5.1972
 IR Inten    --    133.3807               172.5040               107.8560

                     19                     20                     21
                     A'                     A"                     A'
 Frequencies --   3097.2560              3260.5734              3311.1279
 Red. masses --      1.0865                 1.0843                 1.1519
 Frc consts  --      6.1411                 6.7919                 7.4410
 IR Inten    --     27.1135                 5.9504                 1.8535

 - Thermochemistry -
 -------------------
 Temperature   298.150 Kelvin.  Pressure   1.00000 Atm.
 Atom     1 has atomic number  6 and mass  12.00000

 Molecular mass:    68.02621 amu.
 Principal axes and moments of inertia in atomic units:
                           1         2         3
     Eigenvalues --    86.14454 558.16546 578.94692
           X           -0.10932   0.00000   0.99401
           Y            0.99401   0.00000   0.10932
           Z           -0.00000   1.00000  -0.00000
 This molecule is an asymmetric top.
 Rotational symmetry number  1.
 Rotational temperatures (Kelvin)      1.00545     0.15518     0.14961
 Rotational constants (GHZ):          20.95015     3.23334     3.11728
 Zero-point vibrational energy     170883.7 (Joules/Mol)
                                   40.84218 (Kcal/Mol)
 Warning -- explicit consideration of   4 degrees of freedom as
           vibrations may cause significant error
 Vibrational temperatures:    191.24   463.44   495.31   746.01   923.19
          (Kelvin)           1069.81  1236.67  1330.79  1437.34  1482.14
                             1531.36  1584.89  1600.49  1890.95  2027.96
                             2496.86  2578.81  4106.40  4456.25  4691.23
                             4763.97

 Zero-point correction=                           0.065086 (Hartree/Particle)
 Thermal correction to Energy=                    0.070079
 Thermal correction to Enthalpy=                  0.071023
 Thermal correction to Gibbs Free Energy=         0.037400
 Sum of electronic and zero-point Energies=           -229.948855
 Sum of electronic and thermal Energies=              -229.943863
 Sum of electronic and thermal Enthalpies=            -229.942919
 Sum of electronic and thermal Free Energies=         -229.976542

                     E (Thermal)             CV                S
                      KCal/Mol        Cal/Mol-Kelvin    Cal/Mol-Kelvin
 Total                   43.975             16.913             70.766
 Electronic               0.000              0.000              0.000
 Translational            0.889              2.981             38.570
 Rotational               0.889              2.981             24.835
 Vibrational             42.198             10.951              7.361
 Vibration     1          0.613              1.920              2.903
 Vibration     2          0.707              1.631              1.299
 Vibration     3          0.723              1.587              1.192
 Vibration     4          0.874              1.209              0.613

 Optimization completed.
    -- Stationary point found.
 Normal termination of Gaussian 09 at Sun Mar  4 21:21:13 2018.
