 Gaussian 09, Revision D.01,
 Gaussian 09:  ES64L-G09RevD.01 24-Apr-2013

 ---------------------------
 #p b3lyp/6-311++g(d,p) freq
 ---------------------------

 ---
 min
 ---
 Symbolic Z-matrix:
 Charge =  1 Multiplicity = 2

                         Standard orientation:
 ---------------------------------------------------------------------
 Center     Atomic      Atomic             Coordinates (Angstroms)
 Number     Number       Type             X           Y           Z
 ---------------------------------------------------------------------
      1          6           0        1.174058    0.078354   -0.066689
      2          6           0       -2.011066   -0.576054   -0.309286
      3          8           0        2.042822   -0.616141    0.045316
      4          6           0       -1.188595    0.104259    0.437599
      5          6           0       -0.005199    0.888382   -0.177349
      6          1           0        0.192754    1.838653    0.336802
      7          1           0       -2.918857   -1.158303   -0.279774
      8          1           0       -1.283962    0.183660    1.521196
      9          1           0       -0.147702    1.095473   -1.246403
 ---------------------------------------------------------------------

 SCF Done:  E(UB3LYP) =  -229.699833662     A.U. after   16 cycles

 The electronic state is 2-A.
 Alpha  occ. eigenvalues --  -19.50305 -10.60295 -10.47751 -10.40831 -10.40708
 Alpha  occ. eigenvalues --   -1.44319  -1.08289  -0.96937  -0.82471  -0.79121
 Alpha  occ. eigenvalues --   -0.76719  -0.76506  -0.73278  -0.70286  -0.65040
 Alpha  occ. eigenvalues --   -0.64018  -0.49796  -0.44407
 Alpha virt. eigenvalues --   -0.30084  -0.29590  -0.20151  -0.18814  -0.13498
 Alpha virt. eigenvalues --   -0.12346  -0.11408  -0.10044  -0.09257  -0.07784
 Alpha virt. eigenvalues --   -0.06675  -0.06271  -0.05818  -0.04611  -0.03162

  Beta  occ. eigenvalues --  -19.50278 -10.60283 -10.47621 -10.40972 -10.39179
  Beta  occ. eigenvalues --   -1.44272  -1.08010  -0.95185  -0.82155  -0.77952
  Beta  occ. eigenvalues --   -0.76630  -0.76194  -0.72666  -0.69697  -0.63991
  Beta  occ. eigenvalues --   -0.63183  -0.49052
  Beta virt. eigenvalues --   -0.30606  -0.29704  -0.27578  -0.19096  -0.18436
  Beta virt. eigenvalues --   -0.13401  -0.12284  -0.11174  -0.09892  -0.09152
  Beta virt. eigenvalues --   -0.07496  -0.06661  -0.06233  -0.05688  -0.04368

 Mulliken charges and spin densities:
               1          2
     1  C    0.360940   0.009429
     2  C   -0.281971   1.006059
     3  O    0.012089   0.007658
     4  C    0.106968  -0.148635
     5  C   -0.231538   0.048408
     6  H    0.270330   0.000127
     7  H    0.225817   0.001408
     8  H    0.262624   0.070272
     9  H    0.274740   0.005272
 Sum of Mulliken charges =   1.00000   1.00000

 Dipole moment (field-independent basis, Debye):
    X=              0.1840    Y=              1.6715    Z=             -0.1009  Tot=              1.6846
 Quadrupole moment (field-independent basis, Debye-Ang):
   XX=            -15.9828   YY=            -22.7371   ZZ=            -24.0472
   XY=              3.7500   XZ=             -0.6188   YZ=             -0.0125

  Exact polarizability:  62.476   3.179  37.799   3.677   2.160  33.458
 Approx polarizability:  94.301   1.282  58.490  10.451   5.527  49.705

                      1                      2                      3
                      A                      A                      A
 Frequencies --     72.8211               202.6701               380.7424
 Red. masses --      4.0291                 3.3589                 1.9207
 Frc consts  --      0.0126                 0.0813                 0.1641
 IR Inten    --      1.6909                 1.6908                 2.0166

                      4                      5                      6
                      A                      A                      A
 Frequencies --    408.2433               539.2001               664.0348
 Red. masses --      3.2769                 3.1869                 1.4283
 Frc consts  --      0.3218                 0.5459                 0.3711
 IR Inten    --     17.6501                26.6414                36.3484

                      7                      8                      9
                      A                      A                      A
 Frequencies --    685.0636               846.0564               864.5195
 Red. masses --      1.6461                 1.4184                 2.3001
 Frc consts  --      0.4552                 0.5982                 1.0129
 IR Inten    --     79.5781                 4.8992                 8.8590

                     10                     11                     12
                      A                      A                      A
 Frequencies --    902.3242               960.8388              1193.0997
 Red. masses --      4.3247                 3.3372                 1.1847
 Frc consts  --      2.0746                 1.8152                 0.9936
 IR Inten    --      3.3835                15.5822                 0.8290

                     13                     14                     15
                      A                      A                      A
 Frequencies --   1239.8417              1259.5926              1391.8040
 Red. masses --      1.2812                 1.1261                 1.0786
 Frc consts  --      1.1604                 1.0527                 1.2310
 IR Inten    --     19.7436                 0.5898                38.4759

                     16                     17                     18
                      A                      A                      A
 Frequencies --   1638.5914              2336.2072              3018.3111
 Red. masses --      5.9879                12.8662                 1.0573
 Frc consts  --      9.4725                41.3735                 5.6754
 IR Inten    --      2.6391               380.5887                45.5765

                     19                     20                     21
                      A                      A                      A
 Frequencies --   3064.7019              3097.3747              3276.5828
 Red. masses --      1.1030                 1.0869                 1.1103
 Frc consts  --      6.1039                 6.1437                 7.0229
 IR Inten    --     31.6800                11.0854                54.7643

 - Thermochemistry -
 -------------------
 Temperature   298.150 Kelvin.  Pressure   1.00000 Atm.
 Atom     1 has atomic number  6 and mass  12.00000

 Molecular mass:    68.02621 amu.
 Principal axes and moments of inertia in atomic units:
                           1         2         3
     Eigenvalues --   119.96491 596.03921 658.92262
           X            0.99970   0.02386  -0.00615
           Y           -0.02391   0.99968  -0.00859
           Z            0.00594   0.00873   0.99994
 This molecule is an asymmetric top.
 Rotational symmetry number  1.
 Rotational temperatures (Kelvin)      0.72199     0.14532     0.13145
 Rotational constants (GHZ):          15.04391     3.02789     2.73893
 Zero-point vibrational energy     167732.1 (Joules/Mol)
                                   40.08894 (Kcal/Mol)
 Warning -- explicit consideration of   5 degrees of freedom as
           vibrations may cause significant error
 Vibrational temperatures:    104.77   291.60   547.80   587.37   775.79
          (Kelvin)            955.40   985.65  1217.28  1243.85  1298.24
                             1382.43  1716.60  1783.85  1812.27  2002.49
                             2357.56  3361.28  4342.67  4409.42  4456.43
                             4714.27

 Zero-point correction=                           0.063886 (Hartree/Particle)
 Thermal correction to Energy=                    0.069416
 Thermal correction to Enthalpy=                  0.070360
 Thermal correction to Gibbs Free Energy=         0.034526
 Sum of electronic and zero-point Energies=           -229.635948
 Sum of electronic and thermal Energies=              -229.630418
 Sum of electronic and thermal Enthalpies=            -229.629474
 Sum of electronic and thermal Free Energies=         -229.665307

                     E (Thermal)             CV                S
                      KCal/Mol        Cal/Mol-Kelvin    Cal/Mol-Kelvin
 Total                   43.559             18.413             75.418
 Electronic               0.000              0.000              1.377
 Translational            0.889              2.981             38.570
 Rotational               0.889              2.981             25.358
 Vibrational             41.782             12.452             10.113
 Vibration     1          0.599              1.967              4.076
 Vibration     2          0.639              1.836              2.109
 Vibration     3          0.750              1.511              1.036
 Vibration     4          0.773              1.452              0.933
 Vibration     5          0.894              1.163              0.567

 Optimization completed.
    -- Stationary point found.
 Normal termination of Gaussian 09 at Thu Jan 24 16:16:47 2019.
