 Gaussian 09, Revision D.01,
 Gaussian 09:  ES64L-G09RevD.01 24-Apr-2013

 ---------------------------
 #p b3lyp/6-311++g(d,p) freq
 ---------------------------

 ---
 min
 ---
 Symbolic Z-matrix:
 Charge =  0 Multiplicity = 1

                         Standard orientation:
 ---------------------------------------------------------------------
 Center     Atomic      Atomic             Coordinates (Angstroms)
 Number     Number       Type             X           Y           Z
 ---------------------------------------------------------------------
      1          6           0        0.000000    1.095313    0.346945
      2          6           0       -0.000000   -1.095313    0.346945
      3          8           0        0.000000    0.000000    1.158401
      4          6           0        0.000000   -0.717701   -0.957756
      5          6           0        0.000000    0.717701   -0.957756
      6          1           0        0.000000    2.049676    0.845292
      7          1           0       -0.000000   -2.049676    0.845292
      8          1           0        0.000000   -1.373120   -1.814025
      9          1           0        0.000000    1.373120   -1.814025
 ---------------------------------------------------------------------

 SCF Done:  E(RB3LYP) =  -230.087883759     A.U. after   11 cycles

 The electronic state is 1-A1.
 Alpha  occ. eigenvalues --  -19.19456 -10.22550 -10.22548 -10.17755 -10.17715
 Alpha  occ. eigenvalues --   -1.11855  -0.80726  -0.75306  -0.60651  -0.57643
 Alpha  occ. eigenvalues --   -0.54920  -0.45708  -0.45323  -0.41998  -0.40620
 Alpha  occ. eigenvalues --   -0.38127  -0.28913  -0.24002
 Alpha virt. eigenvalues --   -0.00620  -0.00236   0.01211   0.01814   0.03497
 Alpha virt. eigenvalues --    0.04679   0.05102   0.05923   0.07517   0.09087
 Alpha virt. eigenvalues --    0.09621   0.10509   0.10619   0.12165   0.12239

 Mulliken charges:
               1
     1  C   -0.191369
     2  C   -0.191369
     3  O   -0.065232
     4  C   -0.093852
     5  C   -0.093852
     6  H    0.166576
     7  H    0.166576
     8  H    0.151261
     9  H    0.151261
 Sum of Mulliken charges =   0.00000

 Dipole moment (field-independent basis, Debye):
    X=             -0.0000    Y=              0.0000    Z=             -0.7495  Tot=              0.7495
 Quadrupole moment (field-independent basis, Debye-Ang):
   XX=            -32.3969   YY=            -24.3597   ZZ=            -28.5154
   XY=              0.0000   XZ=             -0.0000   YZ=             -0.0000

  Exact polarizability:  32.457   0.000  54.616  -0.000  -0.000  51.568
 Approx polarizability:  45.030   0.000  80.946  -0.000  -0.000  85.873

                      1                      2                      3
                     A2                     B1                     A2
 Frequencies --    609.4673               618.5237               730.5128
 Red. masses --      2.9810                 3.3360                 1.3054
 Frc consts  --      0.6524                 0.7520                 0.4105
 IR Inten    --      0.0000                25.2140                 0.0000

                      4                      5                      6
                     B1                     B1                     A2
 Frequencies --    754.9002               849.8190               879.7344
 Red. masses --      1.2582                 1.2912                 1.3200
 Frc consts  --      0.4224                 0.5494                 0.6019
 IR Inten    --    116.8424                 0.0002                 0.0000

                      7                      8                      9
                     A1                     B2                     A1
 Frequencies --    887.1563               893.2482              1011.4794
 Red. masses --      4.8142                 5.9270                 1.4930
 Frc consts  --      2.2324                 2.7863                 0.8999
 IR Inten    --     14.8749                 0.7805                47.9812

                     10                     11                     12
                     B2                     A1                     A1
 Frequencies --   1056.6594              1083.0190              1162.5121
 Red. masses --      1.7210                 2.9259                 1.7776
 Frc consts  --      1.1321                 2.0220                 1.4154
 IR Inten    --      1.7432                15.1342                 0.0664

                     13                     14                     15
                     B2                     B2                     A1
 Frequencies --   1195.4155              1283.8074              1409.0639
 Red. masses --      2.6588                 1.2378                 2.9038
 Frc consts  --      2.2386                 1.2019                 3.3968
 IR Inten    --     20.3547                 0.1429                 2.8025

                     16                     17                     18
                     A1                     B2                     B2
 Frequencies --   1506.0013              1587.6931              3240.8979
 Red. masses --      3.4400                 4.5336                 1.0899
 Frc consts  --      4.5969                 6.7333                 6.7449
 IR Inten    --     20.8690                 0.0192                 2.5691

                     19                     20                     21
                     A1                     B2                     A1
 Frequencies --   3251.6762              3277.3213              3283.5375
 Red. masses --      1.0951                 1.1004                 1.1082
 Frc consts  --      6.8218                 6.9635                 7.0396
 IR Inten    --      0.1831                 0.1842                 0.0976

 - Thermochemistry -
 -------------------
 Temperature   298.150 Kelvin.  Pressure   1.00000 Atm.
 Atom     1 has atomic number  6 and mass  12.00000

 Molecular mass:    68.02621 amu.
 Principal axes and moments of inertia in atomic units:
                           1         2         3
     Eigenvalues --   190.78001 194.21801 384.99802
           X            0.00000  -0.00000   1.00000
           Y            0.00000   1.00000   0.00000
           Z            1.00000  -0.00000   0.00000
 This molecule is an asymmetric top.
 Rotational symmetry number  2.
 Rotational temperatures (Kelvin)      0.45400     0.44596     0.22497
 Rotational constants (GHZ):           9.45980     9.29235     4.68766
 Zero-point vibrational energy     182863.8 (Joules/Mol)
                                   43.70551 (Kcal/Mol)
 Warning -- explicit consideration of   2 degrees of freedom as
           vibrations may cause significant error
 Vibrational temperatures:    876.89   889.92  1051.04  1086.13  1222.70
          (Kelvin)           1265.74  1276.42  1285.18  1455.29  1520.30
                             1558.22  1672.59  1719.93  1847.11  2027.33
                             2166.80  2284.33  4662.92  4678.43  4715.33
                             4724.27

 Zero-point correction=                           0.069649 (Hartree/Particle)
 Thermal correction to Energy=                    0.073371
 Thermal correction to Enthalpy=                  0.074315
 Thermal correction to Gibbs Free Energy=         0.044033
 Sum of electronic and zero-point Energies=           -230.018235
 Sum of electronic and thermal Energies=              -230.014513
 Sum of electronic and thermal Enthalpies=            -230.013569
 Sum of electronic and thermal Free Energies=         -230.043851

                     E (Thermal)             CV                S
                      KCal/Mol        Cal/Mol-Kelvin    Cal/Mol-Kelvin
 Total                   46.041             13.398             63.734
 Electronic               0.000              0.000              0.000
 Translational            0.889              2.981             38.570
 Rotational               0.889              2.981             22.793
 Vibrational             44.263              7.437              2.371
 Vibration     1          0.968              1.012              0.434
 Vibration     2          0.978              0.993              0.419

 Optimization completed.
    -- Stationary point found.
 Normal termination of Gaussian 09 at Sun Mar  4 21:20:50 2018.
