 Gaussian 09, Revision D.01,
 Gaussian 09:  ES64L-G09RevD.01 24-Apr-2013

 ---------------------------
 #p b3lyp/6-311++g(d,p) freq
 ---------------------------

 ---
 min
 ---
 Symbolic Z-matrix:
 Charge =  1 Multiplicity = 2

                         Standard orientation:
 ---------------------------------------------------------------------
 Center     Atomic      Atomic             Coordinates (Angstroms)
 Number     Number       Type             X           Y           Z
 ---------------------------------------------------------------------
      1          8           0        0.075167   -1.937878    0.000000
      2          6           0        0.000000    0.647285   -0.000000
      3          6           0       -0.320555   -0.823698    0.000000
      4          6           0       -1.252525    0.242618    0.000000
      5          6           0        1.143922    1.555831   -0.000000
      6          1           0       -2.323228    0.423145    0.000000
      7          1           0        1.760342    1.380326    0.887020
      8          1           0        0.776151    2.587012   -0.000000
      9          1           0        1.760342    1.380326   -0.887020
 ---------------------------------------------------------------------

 SCF Done:  E(UB3LYP) =  -229.710236005     A.U. after   15 cycles

 The electronic state is 2-A'.
 Alpha  occ. eigenvalues --  -19.45291 -10.55524 -10.51977 -10.49662 -10.41273
 Alpha  occ. eigenvalues --   -1.37280  -1.20184  -0.99147  -0.84132  -0.79520
 Alpha  occ. eigenvalues --   -0.75188  -0.71948  -0.71541  -0.69129  -0.65307
 Alpha  occ. eigenvalues --   -0.63037  -0.57137  -0.52995
 Alpha virt. eigenvalues --   -0.27256  -0.23571  -0.17895  -0.13672  -0.12574
 Alpha virt. eigenvalues --   -0.11549  -0.11015  -0.09956  -0.08726  -0.07941
 Alpha virt. eigenvalues --   -0.07732  -0.05977  -0.05824  -0.04329  -0.03540

  Beta  occ. eigenvalues --  -19.43717 -10.55518 -10.51530 -10.49446 -10.41212
  Beta  occ. eigenvalues --   -1.34446  -1.18515  -0.98576  -0.82491  -0.77887
  Beta  occ. eigenvalues --   -0.73306  -0.71272  -0.68696  -0.66419  -0.64902
  Beta  occ. eigenvalues --   -0.61558  -0.56361
  Beta virt. eigenvalues --   -0.41058  -0.26774  -0.23195  -0.17691  -0.13404
  Beta virt. eigenvalues --   -0.12336  -0.11363  -0.10996  -0.09339  -0.08577
  Beta virt. eigenvalues --   -0.07915  -0.07305  -0.05974  -0.05237  -0.04145

 Mulliken charges and spin densities:
               1          2
     1  O   -0.011132   0.563298
     2  C    0.556887   0.226381
     3  C   -0.018886  -0.000528
     4  C    0.015695   0.103119
     5  C   -0.519958   0.030197
     6  H    0.279932   0.046728
     7  H    0.230047  -0.000204
     8  H    0.237368   0.031213
     9  H    0.230047  -0.000204
 Sum of Mulliken charges =   1.00000   1.00000

 Dipole moment (field-independent basis, Debye):
    X=             -1.0883    Y=              2.9871    Z=             -0.0000  Tot=              3.1792
 Quadrupole moment (field-independent basis, Debye-Ang):
   XX=            -15.9928   YY=            -20.7608   ZZ=            -25.8297
   XY=              3.2099   XZ=             -0.0000   YZ=              0.0000

  Exact polarizability:  44.984   4.051  58.465   0.000  -0.000  25.625
 Approx polarizability:  68.440   0.512  99.296  -0.000  -0.000  36.690

                      1                      2                      3
                     A"                     A'                     A"
 Frequencies --     87.9262               212.0916               330.4513
 Red. masses --      1.0653                 4.2505                 2.6391
 Frc consts  --      0.0049                 0.1127                 0.1698
 IR Inten    --      1.5210                 0.9777                 6.2477

                      4                      5                      6
                     A'                     A'                     A"
 Frequencies --    428.7994               539.4356               541.3320
 Red. masses --      4.7550                 4.7484                 5.1848
 Frc consts  --      0.5151                 0.8141                 0.8952
 IR Inten    --     14.3160                32.2082                 1.3496

                      7                      8                      9
                     A"                     A'                     A'
 Frequencies --    756.1426               834.1756               928.4437
 Red. masses --      1.4923                 2.8085                 5.5342
 Frc consts  --      0.5027                 1.1514                 2.8107
 IR Inten    --     39.2680                18.9181                27.8035

                     10                     11                     12
                     A'                     A"                     A'
 Frequencies --   1016.7969              1031.0063              1033.9102
 Red. masses --      1.6177                 1.4972                 1.4991
 Frc consts  --      0.9854                 0.9377                 0.9442
 IR Inten    --     10.8060                 3.4835                38.5516

                     13                     14                     15
                     A'                     A"                     A'
 Frequencies --   1384.4749              1416.9213              1438.4042
 Red. masses --      1.1948                 1.0378                 1.0423
 Frc consts  --      1.3493                 1.2276                 1.2705
 IR Inten    --     20.0906                23.5924                20.3529

                     16                     17                     18
                     A'                     A'                     A'
 Frequencies --   1652.1715              1878.1311              3022.1185
 Red. masses --     10.0546                 8.2605                 1.0322
 Frc consts  --     16.1706                17.1675                 5.5545
 IR Inten    --     39.9598                 7.0994                54.0233

                     19                     20                     21
                     A"                     A'                     A'
 Frequencies --   3103.0487              3105.4686              3196.9435
 Red. masses --      1.1009                 1.1034                 1.1234
 Frc consts  --      6.2456                 6.2695                 6.7651
 IR Inten    --     12.2414                20.9447               118.1607

 - Thermochemistry -
 -------------------
 Temperature   298.150 Kelvin.  Pressure   1.00000 Atm.
 Atom     1 has atomic number  8 and mass  15.99491

 Molecular mass:    68.02621 amu.
 Principal axes and moments of inertia in atomic units:
                           1         2         3
     Eigenvalues --   148.57038 438.99787 576.24138
           X            0.31501   0.94909   0.00000
           Y            0.94909  -0.31501   0.00000
           Z           -0.00000  -0.00000   1.00000
 This molecule is an asymmetric top.
 Rotational symmetry number  1.
 Rotational temperatures (Kelvin)      0.58298     0.19730     0.15031
 Rotational constants (GHZ):          12.14738     4.11105     3.13192
 Zero-point vibrational energy     167107.5 (Joules/Mol)
                                   39.93965 (Kcal/Mol)
 Warning -- explicit consideration of   6 degrees of freedom as
           vibrations may cause significant error
 Vibrational temperatures:    126.51   305.15   475.45   616.95   776.13
          (Kelvin)            778.85  1087.92  1200.19  1335.82  1462.94
                             1483.39  1487.56  1991.95  2038.63  2069.54
                             2377.10  2702.21  4348.15  4464.59  4468.07
                             4599.68

 Zero-point correction=                           0.063648 (Hartree/Particle)
 Thermal correction to Energy=                    0.069172
 Thermal correction to Enthalpy=                  0.070116
 Thermal correction to Gibbs Free Energy=         0.034517
 Sum of electronic and zero-point Energies=           -229.646588
 Sum of electronic and thermal Energies=              -229.641064
 Sum of electronic and thermal Enthalpies=            -229.640120
 Sum of electronic and thermal Free Energies=         -229.675719

                     E (Thermal)             CV                S
                      KCal/Mol        Cal/Mol-Kelvin    Cal/Mol-Kelvin
 Total                   43.406             18.282             74.924
 Electronic               0.000              0.000              1.377
 Translational            0.889              2.981             38.570
 Rotational               0.889              2.981             25.133
 Vibrational             41.629             12.320              9.844
 Vibration     1          0.601              1.958              3.706
 Vibration     2          0.643              1.822              2.026
 Vibration     3          0.713              1.615              1.258
 Vibration     4          0.790              1.408              0.863
 Vibration     5          0.894              1.163              0.567
 Vibration     6          0.896              1.159              0.562

 Optimization completed.
    -- Stationary point found.
 Normal termination of Gaussian 09 at Thu Jan 24 16:14:51 2019.
