 Gaussian 09, Revision D.01,
 Gaussian 09:  ES64L-G09RevD.01 24-Apr-2013

 ---------------------------
 #p b3lyp/6-311++g(d,p) freq
 ---------------------------

 ---
 min
 ---
 Symbolic Z-matrix:
 Charge =  0 Multiplicity = 1

                         Standard orientation:
 ---------------------------------------------------------------------
 Center     Atomic      Atomic             Coordinates (Angstroms)
 Number     Number       Type             X           Y           Z
 ---------------------------------------------------------------------
      1          6           0        0.000000    1.112638    0.000000
      2          6           0       -0.578345   -1.041076    0.000000
      3          8           0       -1.101436    0.425668    0.000000
      4          6           0        0.871224   -1.006527    0.000000
      5          6           0        1.176180    0.362189    0.000000
      6          1           0       -0.120447    2.191991    0.000000
      7          1           0       -1.022504   -1.484096    0.894095
      8          1           0       -1.022504   -1.484096   -0.894095
      9          1           0        2.162588    0.807513    0.000000
 ---------------------------------------------------------------------

 SCF Done:  E(RB3LYP) =  -229.996380102     A.U. after   13 cycles

 The electronic state is 1-A'.
 Alpha  occ. eigenvalues --  -19.19983 -10.28456 -10.24101 -10.18414 -10.17500
 Alpha  occ. eigenvalues --   -1.11825  -0.81619  -0.76331  -0.61090  -0.58383
 Alpha  occ. eigenvalues --   -0.52994  -0.50361  -0.46347  -0.40083  -0.39026
 Alpha  occ. eigenvalues --   -0.38818  -0.28978  -0.22036
 Alpha virt. eigenvalues --   -0.08866  -0.01049   0.00824   0.02282   0.02483
 Alpha virt. eigenvalues --    0.03172   0.03502   0.05981   0.06819   0.07000
 Alpha virt. eigenvalues --    0.09584   0.09921   0.10672   0.11829   0.12307

 Mulliken charges:
               1
     1  C    0.104804
     2  C   -0.499409
     3  O   -0.087891
     4  C    0.004003
     5  C   -0.299094
     6  H    0.201109
     7  H    0.209481
     8  H    0.209481
     9  H    0.157516
 Sum of Mulliken charges =  -0.00000

 Dipole moment (field-independent basis, Debye):
    X=             -1.6161    Y=              2.2976    Z=              0.0000  Tot=              2.8090
 Quadrupole moment (field-independent basis, Debye-Ang):
   XX=            -33.0846   YY=            -28.9051   ZZ=            -29.5779
   XY=              6.6705   XZ=              0.0000   YZ=             -0.0000

  Exact polarizability:  55.120  -1.811  62.720  -0.000  -0.000  35.857
 Approx polarizability:  90.214  -9.932  98.459  -0.000  -0.000  52.218

                      1                      2                      3
                     A"                     A'                     A"
 Frequencies --    342.0158               424.7449               499.3536
 Red. masses --      1.6786                10.2080                 2.5714
 Frc consts  --      0.1157                 1.0850                 0.3778
 IR Inten    --     28.0150                49.7152                 1.4091

                      4                      5                      6
                     A"                     A'                     A'
 Frequencies --    783.5096               804.1060               877.6414
 Red. masses --      2.0605                 6.9978                 7.4156
 Frc consts  --      0.7453                 2.6659                 3.3654
 IR Inten    --      1.0452                 6.3386                33.2163

                      7                      8                      9
                     A"                     A"                     A'
 Frequencies --    897.8557              1009.7849              1015.1069
 Red. masses --      1.2490                 1.5627                 2.7514
 Frc consts  --      0.5932                 0.9388                 1.6704
 IR Inten    --     32.0087                 0.9000                14.3882

                     10                     11                     12
                     A'                     A'                     A"
 Frequencies --   1098.8979              1145.4753              1146.5411
 Red. masses --      1.5917                 1.7504                 1.0773
 Frc consts  --      1.1325                 1.3532                 0.8344
 IR Inten    --     12.3054                71.4701                 3.5026

                     13                     14                     15
                     A'                     A'                     A'
 Frequencies --   1244.1589              1296.9281              1390.2416
 Red. masses --      1.4599                 2.6776                 1.1503
 Frc consts  --      1.3314                 2.6536                 1.3099
 IR Inten    --      4.9223                53.4284                23.5390

                     16                     17                     18
                     A'                     A'                     A'
 Frequencies --   1412.2756              1502.8439              3078.3442
 Red. masses --      3.1239                 3.3700                 1.0583
 Frc consts  --      3.6710                 4.4844                 5.9085
 IR Inten    --    116.6010                50.9632                 0.1356

                     19                     20                     21
                     A"                     A'                     A'
 Frequencies --   3131.4313              3179.5362              3202.6670
 Red. masses --      1.1067                 1.0912                 1.0979
 Frc consts  --      6.3937                 6.4997                 6.6352
 IR Inten    --      0.1698                 3.4706                13.9992

 - Thermochemistry -
 -------------------
 Temperature   298.150 Kelvin.  Pressure   1.00000 Atm.
 Atom     1 has atomic number  6 and mass  12.00000

 Molecular mass:    68.02621 amu.
 Principal axes and moments of inertia in atomic units:
                           1         2         3
     Eigenvalues --   197.98224 207.74669 394.22065
           X            0.88331   0.46878   0.00000
           Y           -0.46878   0.88331   0.00000
           Z           -0.00000   0.00000   1.00000
 This molecule is an asymmetric top.
 Rotational symmetry number  1.
 Rotational temperatures (Kelvin)      0.43748     0.41692     0.21971
 Rotational constants (GHZ):           9.11567     8.68722     4.57800
 Zero-point vibrational energy     176350.3 (Joules/Mol)
                                   42.14872 (Kcal/Mol)
 Warning -- explicit consideration of   3 degrees of freedom as
           vibrations may cause significant error
 Vibrational temperatures:    492.08   611.11   718.46  1127.29  1156.93
          (Kelvin)           1262.73  1291.81  1452.85  1460.51  1581.07
                             1648.08  1649.61  1790.06  1865.99  2000.25
                             2031.95  2162.25  4429.05  4505.43  4574.64
                             4607.92

 Zero-point correction=                           0.067168 (Hartree/Particle)
 Thermal correction to Energy=                    0.071337
 Thermal correction to Enthalpy=                  0.072281
 Thermal correction to Gibbs Free Energy=         0.040553
 Sum of electronic and zero-point Energies=           -229.929212
 Sum of electronic and thermal Energies=              -229.925043
 Sum of electronic and thermal Enthalpies=            -229.924099
 Sum of electronic and thermal Free Energies=         -229.955827

                     E (Thermal)             CV                S
                      KCal/Mol        Cal/Mol-Kelvin    Cal/Mol-Kelvin
 Total                   44.765             14.685             66.778
 Electronic               0.000              0.000              0.000
 Translational            0.889              2.981             38.570
 Rotational               0.889              2.981             24.298
 Vibrational             42.987              8.723              3.910
 Vibration     1          0.721              1.591              1.203
 Vibration     2          0.787              1.416              0.876
 Vibration     3          0.855              1.251              0.660

 Optimization completed.
    -- Stationary point found.
 Normal termination of Gaussian 09 at Sun Mar  4 21:21:54 2018.
