 Gaussian 09, Revision D.01,
 Gaussian 09:  ES64L-G09RevD.01 24-Apr-2013

 ---------------------------
 #p b3lyp/6-311++g(d,p) freq
 ---------------------------

 ---
 min
 ---
 Symbolic Z-matrix:
 Charge =  0 Multiplicity = 1

                         Standard orientation:
 ---------------------------------------------------------------------
 Center     Atomic      Atomic             Coordinates (Angstroms)
 Number     Number       Type             X           Y           Z
 ---------------------------------------------------------------------
      1          8           0       -0.317338   -2.091086   -0.000000
      2          6           0       -0.442913    0.294422   -0.000000
      3          6           0        0.245838    1.493263    0.641749
      4          6           0        0.245838    1.493263   -0.641749
      5          6           0        0.245838   -1.021647   -0.000000
      6          1           0       -1.530428    0.226917   -0.000000
      7          1           0        0.471677    1.951814    1.588268
      8          1           0        0.471677    1.951814   -1.588268
      9          1           0        1.358171   -0.957663    0.000000
 ---------------------------------------------------------------------

 SCF Done:  E(RB3LYP) =  -230.013941566     A.U. after   12 cycles

 The electronic state is 1-A'.
 Alpha  occ. eigenvalues --  -19.12170 -10.25936 -10.22256 -10.22130 -10.21581
 Alpha  occ. eigenvalues --   -1.05185  -0.91068  -0.68480  -0.59918  -0.58005
 Alpha  occ. eigenvalues --   -0.54191  -0.46279  -0.45175  -0.40754  -0.38921
 Alpha  occ. eigenvalues --   -0.31756  -0.30959  -0.25738
 Alpha virt. eigenvalues --   -0.05507  -0.01817  -0.00558   0.01245   0.01260
 Alpha virt. eigenvalues --    0.01804   0.05186   0.06445   0.06858   0.07340
 Alpha virt. eigenvalues --    0.08585   0.09697   0.10890   0.11020   0.11187

 Mulliken charges:
               1
     1  O   -0.266240
     2  C    0.248136
     3  C   -0.233925
     4  C   -0.233925
     5  C   -0.158770
     6  H    0.194850
     7  H    0.182013
     8  H    0.182013
     9  H    0.085848
 Sum of Mulliken charges =   0.00000

 Dipole moment (field-independent basis, Debye):
    X=              1.0697    Y=              3.8059    Z=              0.0000  Tot=              3.9533
 Quadrupole moment (field-independent basis, Debye-Ang):
   XX=            -29.5471   YY=            -35.2329   ZZ=            -26.1300
   XY=             -1.3678   XZ=             -0.0000   YZ=             -0.0000

  Exact polarizability:  41.793   6.719  60.120  -0.000   0.000  41.597
 Approx polarizability:  58.954  13.625  84.382   0.000   0.000  68.615

                      1                      2                      3
                     A"                     A'                     A"
 Frequencies --    132.8996               322.1316               343.8361
 Red. masses --      3.6719                 3.5320                 2.1407
 Frc consts  --      0.0382                 0.2159                 0.1491
 IR Inten    --      4.5401                 4.3551                 2.7430

                      4                      5                      6
                     A'                     A'                     A"
 Frequencies --    518.4584               642.2464               743.0942
 Red. masses --      6.1650                 1.2180                 3.4648
 Frc consts  --      0.9764                 0.2960                 1.1272
 IR Inten    --     10.2940               107.8917                 4.1948

                      7                      8                      9
                     A"                     A'                     A"
 Frequencies --    860.0209               925.2177               999.4040
 Red. masses --      1.4350                 1.1539                 1.4031
 Frc consts  --      0.6253                 0.5820                 0.8257
 IR Inten    --      0.0568                 3.0558                43.3654

                     10                     11                     12
                     A"                     A"                     A'
 Frequencies --   1029.6991              1064.2673              1101.5220
 Red. masses --      1.5395                 1.4408                 4.2611
 Frc consts  --      0.9618                 0.9615                 3.0462
 IR Inten    --      0.8247                 8.6541                 7.4788

                     13                     14                     15
                     A'                     A'                     A'
 Frequencies --   1112.3238              1314.2962              1409.2906
 Red. masses --      4.5569                 1.2075                 1.2293
 Frc consts  --      3.3219                 1.2289                 1.4385
 IR Inten    --     75.0786                 2.6672                 1.3107

                     16                     17                     18
                     A'                     A'                     A'
 Frequencies --   1735.6617              1792.2167              2856.5132
 Red. masses --      5.6396                 8.4754                 1.0829
 Frc consts  --     10.0098                16.0396                 5.2061
 IR Inten    --    134.6710               171.1987               107.6658

                     19                     20                     21
                     A'                     A"                     A'
 Frequencies --   3097.2406              3259.5673              3310.1546
 Red. masses --      1.0865                 1.0843                 1.1520
 Frc consts  --      6.1411                 6.7876                 7.4371
 IR Inten    --     27.0936                 5.9278                 1.8542

 - Thermochemistry -
 -------------------
 Temperature   298.150 Kelvin.  Pressure   1.00000 Atm.
 Atom     1 has atomic number  8 and mass  15.99491

 Molecular mass:    68.02621 amu.
 Principal axes and moments of inertia in atomic units:
                           1         2         3
     Eigenvalues --    86.12678 558.27029 579.05323
           X            0.10936  -0.00000   0.99400
           Y            0.99400  -0.00000  -0.10936
           Z            0.00000   1.00000   0.00000
 This molecule is an asymmetric top.
 Rotational symmetry number  1.
 Rotational temperatures (Kelvin)      1.00565     0.15515     0.14958
 Rotational constants (GHZ):          20.95447     3.23274     3.11671
 Zero-point vibrational energy     170886.9 (Joules/Mol)
                                   40.84295 (Kcal/Mol)
 Warning -- explicit consideration of   4 degrees of freedom as
           vibrations may cause significant error
 Vibrational temperatures:    191.21   463.47   494.70   745.95   924.05
          (Kelvin)           1069.15  1237.38  1331.18  1437.92  1481.51
                             1531.24  1584.84  1600.38  1890.98  2027.65
                             2497.23  2578.60  4109.88  4456.23  4689.78
                             4762.57

 Zero-point correction=                           0.065087 (Hartree/Particle)
 Thermal correction to Energy=                    0.070080
 Thermal correction to Enthalpy=                  0.071024
 Thermal correction to Gibbs Free Energy=         0.037400
 Sum of electronic and zero-point Energies=           -229.948854
 Sum of electronic and thermal Energies=              -229.943861
 Sum of electronic and thermal Enthalpies=            -229.942917
 Sum of electronic and thermal Free Energies=         -229.976541

                     E (Thermal)             CV                S
                      KCal/Mol        Cal/Mol-Kelvin    Cal/Mol-Kelvin
 Total                   43.976             16.913             70.768
 Electronic               0.000              0.000              0.000
 Translational            0.889              2.981             38.570
 Rotational               0.889              2.981             24.835
 Vibrational             42.198             10.951              7.363
 Vibration     1          0.613              1.920              2.904
 Vibration     2          0.707              1.631              1.299
 Vibration     3          0.723              1.588              1.194
 Vibration     4          0.873              1.209              0.614

 Optimization completed.
    -- Stationary point found.
 Normal termination of Gaussian 09 at Sun Mar  4 21:21:30 2018.
