 Gaussian 09, Revision D.01,
 Gaussian 09:  ES64L-G09RevD.01 24-Apr-2013

 ---------------------------
 #p b3lyp/6-311++g(d,p) freq
 ---------------------------

 ---
 min
 ---
 Symbolic Z-matrix:
 Charge =  0 Multiplicity = 1

                         Standard orientation:
 ---------------------------------------------------------------------
 Center     Atomic      Atomic             Coordinates (Angstroms)
 Number     Number       Type             X           Y           Z
 ---------------------------------------------------------------------
      1          8           0        2.356035   -0.495503    0.000020
      2          6           0       -2.534841   -0.126166   -0.000127
      3          6           0       -1.093879    0.058140   -0.000351
      4          6           0        0.107442    0.184306   -0.000082
      5          6           0        1.532117    0.393300    0.000059
      6          1           0       -2.851828   -0.650353    0.906169
      7          1           0       -2.843302   -0.730109   -0.858329
      8          1           0       -3.059890    0.831326   -0.045194
      9          1           0        1.841716    1.455674    0.000196
 ---------------------------------------------------------------------

 SCF Done:  E(RB3LYP) =  -230.047398163     A.U. after   13 cycles

 The electronic state is 1-A.
 Alpha  occ. eigenvalues --  -19.13437 -10.28562 -10.21570 -10.21115 -10.18758
 Alpha  occ. eigenvalues --   -1.06308  -0.81640  -0.75082  -0.66272  -0.53047
 Alpha  occ. eigenvalues --   -0.49063  -0.46235  -0.45954  -0.45575  -0.41514
 Alpha  occ. eigenvalues --   -0.29978  -0.29731  -0.28040
 Alpha virt. eigenvalues --   -0.07737  -0.01788   0.00311   0.01211   0.02570
 Alpha virt. eigenvalues --    0.03717   0.04540   0.05816   0.06052   0.08316
 Alpha virt. eigenvalues --    0.08477   0.08778   0.10080   0.10729   0.11826

 Mulliken charges:
               1
     1  O   -0.231205
     2  C   -0.430944
     3  C    0.027869
     4  C    0.245528
     5  C   -0.215583
     6  H    0.172206
     7  H    0.172483
     8  H    0.166320
     9  H    0.093326
 Sum of Mulliken charges =  -0.00000

 Dipole moment (field-independent basis, Debye):
    X=             -3.8843    Y=              1.5648    Z=              0.0033  Tot=              4.1876
 Quadrupole moment (field-independent basis, Debye-Ang):
   XX=            -28.9771   YY=            -29.5263   ZZ=            -29.1672
   XY=              4.6787   XZ=             -0.0087   YZ=             -0.0000

  Exact polarizability:  83.761   0.322  38.936  -0.025   0.001  30.373
 Approx polarizability: 130.741  -4.108  54.967  -0.049   0.004  40.839

                      1                      2                      3
                      A                      A                      A
 Frequencies --      8.9089               131.7762               169.4253
 Red. masses --      1.2280                 4.7733                 3.0526
 Frc consts  --      0.0001                 0.0488                 0.0516
 IR Inten    --      4.1906                 4.8470                10.5902

                      4                      5                      6
                      A                      A                      A
 Frequencies --    339.0512               393.9843               564.8408
 Red. masses --      4.3434                 4.1898                 6.7570
 Frc consts  --      0.2942                 0.3832                 1.2701
 IR Inten    --      6.4126                 0.3810                 1.4666

                      7                      8                      9
                      A                      A                      A
 Frequencies --    816.9593              1007.4983              1043.7561
 Red. masses --      5.2750                 1.7536                 1.4357
 Frc consts  --      2.0743                 1.0488                 0.9215
 IR Inten    --     70.4371                 0.0750                 2.5833

                     10                     11                     12
                      A                      A                      A
 Frequencies --   1055.3039              1164.8447              1411.4994
 Red. masses --      1.4033                 4.9226                 1.2585
 Frc consts  --      0.9208                 3.9353                 1.4773
 IR Inten    --      1.6724                57.9347                 1.8230

                     13                     14                     15
                      A                      A                      A
 Frequencies --   1414.2403              1470.1469              1473.3571
 Red. masses --      1.1857                 1.0400                 1.0390
 Frc consts  --      1.3972                 1.3243                 1.3288
 IR Inten    --     10.4317                10.6401                 9.3519

                     16                     17                     18
                      A                      A                      A
 Frequencies --   1738.5298              2320.4610              2929.3723
 Red. masses --     10.5496                11.8928                 1.0823
 Frc consts  --     18.7868                37.7298                 5.4722
 IR Inten    --    308.5789               183.1335                87.6803

                     19                     20                     21
                      A                      A                      A
 Frequencies --   3028.2239              3087.1777              3093.6172
 Red. masses --      1.0341                 1.1001                 1.1017
 Frc consts  --      5.5873                 6.1772                 6.2125
 IR Inten    --      9.3892                 2.9229                 5.5319

 - Thermochemistry -
 -------------------
 Temperature   298.150 Kelvin.  Pressure   1.00000 Atm.
 Atom     1 has atomic number  8 and mass  15.99491

 Molecular mass:    68.02621 amu.
 Principal axes and moments of inertia in atomic units:
                           1         2         3
     Eigenvalues --    41.81724 852.43932 883.02827
           X            0.99985   0.01736  -0.00002
           Y           -0.01736   0.99985   0.00000
           Z            0.00002  -0.00000   1.00000
 This molecule is an asymmetric top.
 Rotational symmetry number  1.
 Rotational temperatures (Kelvin)      2.07125     0.10161     0.09809
 Rotational constants (GHZ):          43.15783     2.11715     2.04381
 Zero-point vibrational energy     171442.7 (Joules/Mol)
                                   40.97578 (Kcal/Mol)
 Warning -- explicit consideration of   6 degrees of freedom as
           vibrations may cause significant error
 Vibrational temperatures:     12.82   189.60   243.76   487.82   566.85
          (Kelvin)            812.68  1175.42  1449.56  1501.73  1518.34
                             1675.95  2030.83  2034.77  2115.21  2119.83
                             2501.35  3338.62  4214.71  4356.93  4441.75
                             4451.02

 Zero-point correction=                           0.065299 (Hartree/Particle)
 Thermal correction to Energy=                    0.071427
 Thermal correction to Enthalpy=                  0.072371
 Thermal correction to Gibbs Free Energy=         0.034173
 Sum of electronic and zero-point Energies=           -229.982099
 Sum of electronic and thermal Energies=              -229.975971
 Sum of electronic and thermal Enthalpies=            -229.975027
 Sum of electronic and thermal Free Energies=         -230.013225

                     E (Thermal)             CV                S
                      KCal/Mol        Cal/Mol-Kelvin    Cal/Mol-Kelvin
 Total                   44.821             18.215             80.396
 Electronic               0.000              0.000              0.000
 Translational            0.889              2.981             38.570
 Rotational               0.889              2.981             24.957
 Vibrational             43.044             12.254             16.869
 Vibration     1          0.593              1.987              8.241
 Vibration     2          0.612              1.922              2.920
 Vibration     3          0.625              1.880              2.442
 Vibration     4          0.719              1.597              1.217
 Vibration     5          0.761              1.483              0.985
 Vibration     6          0.921              1.107              0.514

 Optimization completed on the basis of negligible forces.
    -- Stationary point found.
 Normal termination of Gaussian 09 at Sun Mar  4 21:22:42 2018.
