 Gaussian 09, Revision D.01,
 Gaussian 09:  ES64L-G09RevD.01 24-Apr-2013

 ---------------------------
 #p b3lyp/6-311++g(d,p) freq
 ---------------------------

 ---
 min
 ---
 Symbolic Z-matrix:
 Charge =  0 Multiplicity = 1

                         Standard orientation:
 ---------------------------------------------------------------------
 Center     Atomic      Atomic             Coordinates (Angstroms)
 Number     Number       Type             X           Y           Z
 ---------------------------------------------------------------------
      1          6           0        0.967479   -0.393954    0.000281
      2          6           0       -2.564255   -0.178350   -0.000931
      3          8           0        2.291742   -0.112272   -0.000349
      4          6           0       -1.399367    0.135351    0.000819
      5          6           0       -0.031454    0.504041    0.000277
      6          1           0        0.790660   -1.462189    0.000846
      7          1           0        2.431114    0.842853   -0.000997
      8          1           0       -3.590347   -0.452855    0.000242
      9          1           0        0.200218    1.567843    0.000024
 ---------------------------------------------------------------------

 SCF Done:  E(RB3LYP) =  -230.033223685     A.U. after   12 cycles

 The electronic state is 1-A.
 Alpha  occ. eigenvalues --  -19.18073 -10.25465 -10.19629 -10.18019 -10.16625
 Alpha  occ. eigenvalues --   -1.09080  -0.81107  -0.73667  -0.65732  -0.56308
 Alpha  occ. eigenvalues --   -0.53006  -0.50846  -0.43235  -0.42208  -0.39944
 Alpha  occ. eigenvalues --   -0.32982  -0.28495  -0.23327
 Alpha virt. eigenvalues --   -0.02910  -0.01920   0.00574   0.01254   0.02433
 Alpha virt. eigenvalues --    0.03221   0.05189   0.06941   0.06977   0.07686
 Alpha virt. eigenvalues --    0.08338   0.10248   0.10722   0.11844   0.12431

 Mulliken charges:
               1
     1  C   -0.339424
     2  C   -0.355588
     3  O   -0.181778
     4  C    0.509495
     5  C   -0.358461
     6  H    0.165529
     7  H    0.257070
     8  H    0.160008
     9  H    0.143149
 Sum of Mulliken charges =   0.00000

 Dipole moment (field-independent basis, Debye):
    X=              0.6294    Y=              1.0321    Z=              0.0009  Tot=              1.2089
 Quadrupole moment (field-independent basis, Debye-Ang):
   XX=            -27.4253   YY=            -26.5442   ZZ=            -32.4830
   XY=              5.0483   XZ=             -0.0066   YZ=             -0.0036

  Exact polarizability:  90.306   1.042  40.651   0.031   0.003  30.253
 Approx polarizability: 146.163  -0.401  58.963   0.090   0.012  39.835

                      1                      2                      3
                      A                      A                      A
 Frequencies --    173.5174               182.2140               434.5104
 Red. masses --      4.1846                 3.0575                 3.7842
 Frc consts  --      0.0742                 0.0598                 0.4209
 IR Inten    --      3.0999                 9.5594                20.2681

                      4                      5                      6
                      A                      A                      A
 Frequencies --    447.5633               499.0332               549.8836
 Red. masses --      1.4318                 3.7187                 6.2336
 Frc consts  --      0.1690                 0.5456                 1.1105
 IR Inten    --     49.3627                39.7486                 3.2623

                      7                      8                      9
                      A                      A                      A
 Frequencies --    592.6052               704.1526               824.1103
 Red. masses --      1.2333                 1.2652                 1.7314
 Frc consts  --      0.2552                 0.3696                 0.6928
 IR Inten    --     68.0175                48.2904                20.5195

                     10                     11                     12
                      A                      A                      A
 Frequencies --    963.5274              1036.8863              1143.3377
 Red. masses --      1.1728                 3.2732                 2.2422
 Frc consts  --      0.6415                 2.0734                 1.7269
 IR Inten    --     58.6977                17.7513               265.5218

                     13                     14                     15
                      A                      A                      A
 Frequencies --   1247.1541              1328.6088              1384.4131
 Red. masses --      1.7689                 1.3021                 1.3267
 Frc consts  --      1.6210                 1.3542                 1.4981
 IR Inten    --     45.2307                32.9565                10.5517

                     16                     17                     18
                      A                      A                      A
 Frequencies --   1681.4466              2196.3314              3118.7917
 Red. masses --      5.0714                 6.1796                 1.0877
 Frc consts  --      8.4479                17.5632                 6.2337
 IR Inten    --    213.9221                33.1390                21.5204

                     19                     20                     21
                      A                      A                      A
 Frequencies --   3208.4308              3477.1413              3800.7678
 Red. masses --      1.0928                 1.1566                 1.0655
 Frc consts  --      6.6280                 8.2394                 9.0687
 IR Inten    --      4.1812                93.0024                61.9919

 - Thermochemistry -
 -------------------
 Temperature   298.150 Kelvin.  Pressure   1.00000 Atm.
 Atom     1 has atomic number  6 and mass  12.00000

 Molecular mass:    68.02621 amu.
 Principal axes and moments of inertia in atomic units:
                           1         2         3
     Eigenvalues --    40.09300 776.03056 816.12339
           X            0.99991   0.01363  -0.00001
           Y           -0.01363   0.99991  -0.00019
           Z            0.00001   0.00019   1.00000
 This molecule is an asymmetric top.
 Rotational symmetry number  1.
 Rotational temperatures (Kelvin)      2.16032     0.11161     0.10613
 Rotational constants (GHZ):          45.01388     2.32561     2.21136
 Zero-point vibrational energy     173425.2 (Joules/Mol)
                                   41.44961 (Kcal/Mol)
 Warning -- explicit consideration of   7 degrees of freedom as
           vibrations may cause significant error
 Vibrational temperatures:    249.65   262.16   625.16   643.94   718.00
          (Kelvin)            791.16   852.63  1013.12  1185.71  1386.30
                             1491.85  1645.01  1794.37  1911.57  1991.86
                             2419.22  3160.03  4487.24  4616.21  5002.82
                             5468.45

 Zero-point correction=                           0.066054 (Hartree/Particle)
 Thermal correction to Energy=                    0.071513
 Thermal correction to Enthalpy=                  0.072458
 Thermal correction to Gibbs Free Energy=         0.038179
 Sum of electronic and zero-point Energies=           -229.967170
 Sum of electronic and thermal Energies=              -229.961710
 Sum of electronic and thermal Enthalpies=            -229.960766
 Sum of electronic and thermal Free Energies=         -229.995045

                     E (Thermal)             CV                S
                      KCal/Mol        Cal/Mol-Kelvin    Cal/Mol-Kelvin
 Total                   44.875             18.804             72.145
 Electronic               0.000              0.000              0.000
 Translational            0.889              2.981             38.570
 Rotational               0.889              2.981             24.744
 Vibrational             43.098             12.843              8.832
 Vibration     1          0.627              1.875              2.397
 Vibration     2          0.630              1.864              2.306
 Vibration     3          0.795              1.395              0.844
 Vibration     4          0.807              1.366              0.803
 Vibration     5          0.854              1.252              0.661
 Vibration     6          0.905              1.140              0.544
 Vibration     7          0.950              1.048              0.463

 Normal termination of Gaussian 09 at Sun Mar  4 21:22:21 2018.
