 Gaussian 09, Revision D.01,
 Gaussian 09:  ES64L-G09RevD.01 24-Apr-2013

 ---------------------------
 #p b3lyp/6-311++g(d,p) freq
 ---------------------------

 ---
 min
 ---
 Symbolic Z-matrix:
 Charge =  1 Multiplicity = 2

                         Standard orientation:
 ---------------------------------------------------------------------
 Center     Atomic      Atomic             Coordinates (Angstroms)
 Number     Number       Type             X           Y           Z
 ---------------------------------------------------------------------
      1          6           0        1.293931    0.364216    0.000003
      2          6           0       -1.143012    0.213467   -0.000017
      3          8           0        1.539253   -0.899299    0.000000
      4          6           0       -2.181833   -0.429480    0.000003
      5          6           0        0.013370    0.955226    0.000001
      6          1           0        2.191077    0.976556    0.000004
      7          1           0        0.740816   -1.462579   -0.000003
      8          1           0       -3.099678   -0.980346    0.000036
      9          1           0       -0.040969    2.040191    0.000023
 ---------------------------------------------------------------------

 SCF Done:  E(UB3LYP) =  -229.722823807     A.U. after   17 cycles

 The electronic state is 2-A.
 Alpha  occ. eigenvalues --  -19.44026 -10.52412 -10.45932 -10.43903 -10.42472
 Alpha  occ. eigenvalues --   -1.36100  -1.06024  -0.99066  -0.91309  -0.81565
 Alpha  occ. eigenvalues --   -0.75776  -0.75004  -0.68813  -0.68265  -0.62449
 Alpha  occ. eigenvalues --   -0.58322  -0.52566  -0.48412
 Alpha virt. eigenvalues --   -0.28319  -0.21097  -0.17579  -0.14011  -0.13277
 Alpha virt. eigenvalues --   -0.12056  -0.10747  -0.09691  -0.08530  -0.07578
 Alpha virt. eigenvalues --   -0.07071  -0.05094  -0.04265  -0.03568  -0.03284

  Beta  occ. eigenvalues --  -19.43586 -10.52168 -10.45415 -10.43237 -10.42579
  Beta  occ. eigenvalues --   -1.35249  -1.04784  -0.97372  -0.90592  -0.80939
  Beta  occ. eigenvalues --   -0.75359  -0.74407  -0.67984  -0.66084  -0.61936
  Beta  occ. eigenvalues --   -0.55111  -0.52068
  Beta virt. eigenvalues --   -0.39270  -0.24924  -0.20763  -0.17495  -0.13899
  Beta virt. eigenvalues --   -0.11875  -0.11455  -0.10605  -0.09099  -0.08368
  Beta virt. eigenvalues --   -0.07386  -0.06775  -0.04391  -0.04186  -0.03208

 Mulliken charges and spin densities:
               1          2
     1  C   -0.296540   0.170012
     2  C    1.270334  -0.087356
     3  O    0.003424   0.145938
     4  C   -1.714631   0.383249
     5  C    0.666401   0.437848
     6  H    0.275905  -0.010801
     7  H    0.291844  -0.004626
     8  H    0.223186  -0.017399
     9  H    0.280076  -0.016866
 Sum of Mulliken charges =   1.00000   1.00000

 Dipole moment (field-independent basis, Debye):
    X=             -1.0898    Y=              0.1463    Z=              0.0001  Tot=              1.0996
 Quadrupole moment (field-independent basis, Debye-Ang):
   XX=            -11.1093   YY=            -18.8846   ZZ=            -28.0160
   XY=              6.3030   XZ=             -0.0001   YZ=              0.0000

  Exact polarizability:  79.583   8.914  42.720   0.000  -0.000  23.208
 Approx polarizability: 130.910  21.815  67.505  -0.000  -0.000  31.674

                      1                      2                      3
                      A                      A                      A
 Frequencies --    144.5478               216.4823               390.6676
 Red. masses --      4.6274                 2.0383                 5.1294
 Frc consts  --      0.0570                 0.0563                 0.4612
 IR Inten    --      1.6340                 0.0120                23.1177

                      4                      5                      6
                      A                      A                      A
 Frequencies --    425.1963               674.6324               722.1425
 Red. masses --      2.5181                 1.4801                 1.4194
 Frc consts  --      0.2682                 0.3969                 0.4361
 IR Inten    --     28.7073                40.4108                39.7003

                      7                      8                      9
                      A                      A                      A
 Frequencies --    728.0982               730.2115               811.2822
 Red. masses --      1.3362                 2.8535                 1.4656
 Frc consts  --      0.4174                 0.8964                 0.5683
 IR Inten    --     17.7275                20.0343                88.9325

                     10                     11                     12
                      A                      A                      A
 Frequencies --    974.9657              1032.4215              1152.0318
 Red. masses --      4.7373                 1.2869                 1.6165
 Frc consts  --      2.6532                 0.8082                 1.2641
 IR Inten    --     13.8707                26.4964                36.5694

                     13                     14                     15
                      A                      A                      A
 Frequencies --   1230.9673              1396.0377              1462.7829
 Red. masses --      1.1759                 1.5189                 2.4576
 Frc consts  --      1.0498                 1.7442                 3.0983
 IR Inten    --    165.0785                44.9037                18.1613

                     16                     17                     18
                      A                      A                      A
 Frequencies --   1571.9852              2095.6132              3171.5978
 Red. masses --      3.7099                 6.5216                 1.0898
 Frc consts  --      5.4014                16.8744                 6.4587
 IR Inten    --    267.2527               139.9512                24.8171

                     19                     20                     21
                      A                      A                      A
 Frequencies --   3197.3949              3401.7497              3640.3022
 Red. masses --      1.0960                 1.1516                 1.0658
 Frc consts  --      6.6017                 7.8512                 8.3215
 IR Inten    --     16.1157               126.2029                77.2973

 - Thermochemistry -
 -------------------
 Temperature   298.150 Kelvin.  Pressure   1.00000 Atm.
 Atom     1 has atomic number  6 and mass  12.00000

 Molecular mass:    68.02621 amu.
 Principal axes and moments of inertia in atomic units:
                           1         2         3
     Eigenvalues --   129.87640 521.41930 651.29570
           X            0.99934   0.03624  -0.00000
           Y           -0.03624   0.99934   0.00000
           Z            0.00000  -0.00000   1.00000
 This molecule is an asymmetric top.
 Rotational symmetry number  1.
 Rotational temperatures (Kelvin)      0.66689     0.16611     0.13299
 Rotational constants (GHZ):          13.89584     3.46121     2.77100
 Zero-point vibrational energy     174482.0 (Joules/Mol)
                                   41.70220 (Kcal/Mol)
 Warning -- explicit consideration of   4 degrees of freedom as
           vibrations may cause significant error
 Vibrational temperatures:    207.97   311.47   562.08   611.76   970.64
          (Kelvin)           1039.00  1047.57  1050.61  1167.25  1402.76
                             1485.42  1657.51  1771.09  2008.58  2104.62
                             2261.73  3015.12  4563.22  4600.33  4894.35
                             5237.58

 Zero-point correction=                           0.066457 (Hartree/Particle)
 Thermal correction to Energy=                    0.071713
 Thermal correction to Enthalpy=                  0.072657
 Thermal correction to Gibbs Free Energy=         0.037725
 Sum of electronic and zero-point Energies=           -229.656367
 Sum of electronic and thermal Energies=              -229.651111
 Sum of electronic and thermal Enthalpies=            -229.650167
 Sum of electronic and thermal Free Energies=         -229.685099

                     E (Thermal)             CV                S
                      KCal/Mol        Cal/Mol-Kelvin    Cal/Mol-Kelvin
 Total                   45.000             17.870             73.520
 Electronic               0.000              0.000              1.377
 Translational            0.889              2.981             38.570
 Rotational               0.889              2.981             25.292
 Vibrational             43.223             11.909              8.281
 Vibration     1          0.616              1.909              2.743
 Vibration     2          0.645              1.816              1.988
 Vibration     3          0.758              1.490              0.998
 Vibration     4          0.787              1.415              0.874

 Optimization completed.
    -- Stationary point found.
 Normal termination of Gaussian 09 at Thu Jan 24 16:17:23 2019.
