 Gaussian 09, Revision D.01,
 Gaussian 09:  ES64L-G09RevD.01 24-Apr-2013

 ---------------------------
 #p b3lyp/6-311++g(d,p) freq
 ---------------------------

 ---
 min
 ---
 Symbolic Z-matrix:
 Charge =  1 Multiplicity = 2

                         Standard orientation:
 ---------------------------------------------------------------------
 Center     Atomic      Atomic             Coordinates (Angstroms)
 Number     Number       Type             X           Y           Z
 ---------------------------------------------------------------------
      1          6           0        1.431974    0.213664    0.241176
      2          6           0       -2.178113   -0.394537    0.089393
      3          8           0        1.649777   -0.878876   -0.175005
      4          6           0       -1.042967    0.239496   -0.060769
      5          6           0        0.091577    0.881179   -0.139615
      6          1           0        2.137752    0.814047    0.834929
      7          1           0       -2.784682   -0.659925   -0.777070
      8          1           0       -2.552400   -0.662264    1.077520
      9          1           0        0.186291    1.900342   -0.516451
 ---------------------------------------------------------------------

 SCF Done:  E(UB3LYP) =  -229.697470711     A.U. after   18 cycles

 The electronic state is 2-A.
 Alpha  occ. eigenvalues --  -19.41402 -10.52352 -10.47134 -10.46289 -10.44608
 Alpha  occ. eigenvalues --   -1.34005  -1.07024  -0.98816  -0.86890  -0.76996
 Alpha  occ. eigenvalues --   -0.75063  -0.72149  -0.70456  -0.68758  -0.65507
 Alpha  occ. eigenvalues --   -0.56360  -0.54358  -0.50780
 Alpha virt. eigenvalues --   -0.29991  -0.26791  -0.20501  -0.15705  -0.13193
 Alpha virt. eigenvalues --   -0.12139  -0.10172  -0.09908  -0.08623  -0.07089
 Alpha virt. eigenvalues --   -0.06631  -0.04775  -0.04464  -0.03669  -0.02885

  Beta  occ. eigenvalues --  -19.40413 -10.52413 -10.47031 -10.45840 -10.44212
  Beta  occ. eigenvalues --   -1.32204  -1.05808  -0.97395  -0.86112  -0.75916
  Beta  occ. eigenvalues --   -0.73291  -0.71375  -0.69430  -0.67973  -0.64432
  Beta  occ. eigenvalues --   -0.54242  -0.50866
  Beta virt. eigenvalues --   -0.41898  -0.28994  -0.25350  -0.19480  -0.15494
  Beta virt. eigenvalues --   -0.13000  -0.11967  -0.10078  -0.09588  -0.08527
  Beta virt. eigenvalues --   -0.06893  -0.06404  -0.04669  -0.04233  -0.03533

 Mulliken charges and spin densities:
               1          2
     1  C   -0.051796  -0.054411
     2  C   -0.380457   0.295734
     3  O    0.011001   0.354264
     4  C    0.728724   0.070277
     5  C   -0.295483   0.276855
     6  H    0.238877   0.039900
     7  H    0.227649  -0.000509
     8  H    0.231980  -0.002548
     9  H    0.289505   0.020438
 Sum of Mulliken charges =   1.00000   1.00000

 Dipole moment (field-independent basis, Debye):
    X=             -2.2104    Y=              2.1630    Z=              0.8739  Tot=              3.2137
 Quadrupole moment (field-independent basis, Debye-Ang):
   XX=             -8.5041   YY=            -23.4457   ZZ=            -24.4953
   XY=              6.8031   XZ=              1.7870   YZ=             -1.1261

  Exact polarizability: 115.617  -1.154  42.857   1.865   0.028  28.459
 Approx polarizability: 207.285  -7.775  74.847  -2.625   1.948  40.061

                      1                      2                      3
                      A                      A                      A
 Frequencies --    110.5969               160.2174               305.4270
 Red. masses --      2.6203                 3.3219                 1.8277
 Frc consts  --      0.0189                 0.0502                 0.1005
 IR Inten    --      9.0454                11.5129                41.1124

                      4                      5                      6
                      A                      A                      A
 Frequencies --    355.9667               474.2243               611.0120
 Red. masses --      4.0859                 1.7692                 2.0945
 Frc consts  --      0.3050                 0.2344                 0.4607
 IR Inten    --     14.5314                69.3040                40.5009

                      7                      8                      9
                      A                      A                      A
 Frequencies --    729.6146               842.2578               919.6802
 Red. masses --      3.1585                 1.8948                 1.4484
 Frc consts  --      0.9906                 0.7919                 0.7218
 IR Inten    --     25.4990               129.0220                20.8249

                     10                     11                     12
                      A                      A                      A
 Frequencies --    958.8678               987.6368              1092.1098
 Red. masses --      1.4407                 1.8410                 1.5346
 Frc consts  --      0.7804                 1.0580                 1.0784
 IR Inten    --     24.9304                 6.9521                 1.4750

                     13                     14                     15
                      A                      A                      A
 Frequencies --   1190.1025              1290.9446              1403.5029
 Red. masses --      1.7343                 1.2093                 1.3308
 Frc consts  --      1.4473                 1.1874                 1.5445
 IR Inten    --     91.8426               108.9243                16.0254

                     16                     17                     18
                      A                      A                      A
 Frequencies --   1647.1259              1851.9706              3022.9125
 Red. masses --      8.4758                 9.5410                 1.0929
 Frc consts  --     13.5483                19.2803                 5.8840
 IR Inten    --     19.0540                27.4730                17.4578

                     19                     20                     21
                      A                      A                      A
 Frequencies --   3087.8861              3122.0620              3175.9202
 Red. masses --      1.0547                 1.0892                 1.1149
 Frc consts  --      5.9251                 6.2554                 6.6254
 IR Inten    --    111.9080                67.4789                50.1157

 - Thermochemistry -
 -------------------
 Temperature   298.150 Kelvin.  Pressure   1.00000 Atm.
 Atom     1 has atomic number  6 and mass  12.00000

 Molecular mass:    68.02621 amu.
 Principal axes and moments of inertia in atomic units:
                           1         2         3
     Eigenvalues --   121.40752 577.27442 668.03332
           X            0.99904   0.04335   0.00634
           Y           -0.04323   0.99891  -0.01756
           Z           -0.00709   0.01727   0.99983
 This molecule is an asymmetric top.
 Rotational symmetry number  1.
 Rotational temperatures (Kelvin)      0.71341     0.15004     0.12965
 Rotational constants (GHZ):          14.86515     3.12631     2.70157
 Zero-point vibrational energy     163529.7 (Joules/Mol)
                                   39.08455 (Kcal/Mol)
 Warning -- explicit consideration of   6 degrees of freedom as
           vibrations may cause significant error
 Vibrational temperatures:    159.12   230.52   439.44   512.16   682.30
          (Kelvin)            879.11  1049.75  1211.82  1323.21  1379.60
                             1420.99  1571.30  1712.29  1857.38  2019.33
                             2369.84  2664.57  4349.29  4442.77  4491.95
                             4569.44

 Zero-point correction=                           0.062285 (Hartree/Particle)
 Thermal correction to Energy=                    0.067990
 Thermal correction to Enthalpy=                  0.068934
 Thermal correction to Gibbs Free Energy=         0.032949
 Sum of electronic and zero-point Energies=           -229.635186
 Sum of electronic and thermal Energies=              -229.629480
 Sum of electronic and thermal Enthalpies=            -229.628536
 Sum of electronic and thermal Free Energies=         -229.664521

                     E (Thermal)             CV                S
                      KCal/Mol        Cal/Mol-Kelvin    Cal/Mol-Kelvin
 Total                   42.665             18.803             75.737
 Electronic               0.000              0.000              1.377
 Translational            0.889              2.981             38.570
 Rotational               0.889              2.981             25.352
 Vibrational             40.887             12.841             10.438
 Vibration     1          0.606              1.941              3.258
 Vibration     2          0.622              1.891              2.547
 Vibration     3          0.696              1.663              1.387
 Vibration     4          0.731              1.563              1.140
 Vibration     5          0.831              1.307              0.726
 Vibration     6          0.970              1.009              0.431

 Optimization completed.
    -- Stationary point found.
 Normal termination of Gaussian 09 at Thu Jan 24 16:16:23 2019.
