 Gaussian 09, Revision D.01,
 Gaussian 09:  ES64L-G09RevD.01 24-Apr-2013

 ---------------------------
 #p b3lyp/6-311++g(d,p) freq
 ---------------------------

 ---
 min
 ---
 Symbolic Z-matrix:
 Charge =  0 Multiplicity = 1

                         Standard orientation:
 ---------------------------------------------------------------------
 Center     Atomic      Atomic             Coordinates (Angstroms)
 Number     Number       Type             X           Y           Z
 ---------------------------------------------------------------------
      1          6           0       -2.120500   -0.625426    0.000000
      2          6           0        1.356868    0.274608    0.000000
      3          8           0        1.540597   -0.911038    0.000000
      4          6           0        0.000000    0.970345    0.000000
      5          6           0       -1.160635    0.095945    0.000000
      6          1           0       -0.011934    1.639171    0.871878
      7          1           0        2.208946    0.988501    0.000000
      8          1           0       -0.011934    1.639171   -0.871878
      9          1           0       -2.964256   -1.271358    0.000000
 ---------------------------------------------------------------------

 SCF Done:  E(RB3LYP) =  -230.037329338     A.U. after   13 cycles

 The electronic state is 1-A'.
 Alpha  occ. eigenvalues --  -19.14295 -10.28382 -10.22526 -10.18574 -10.17438
 Alpha  occ. eigenvalues --   -1.07549  -0.81745  -0.73916  -0.61825  -0.53957
 Alpha  occ. eigenvalues --   -0.50764  -0.48207  -0.48003  -0.44467  -0.39520
 Alpha  occ. eigenvalues --   -0.29782  -0.28860  -0.27468
 Alpha virt. eigenvalues --   -0.04804  -0.01771   0.00612   0.00738   0.01995
 Alpha virt. eigenvalues --    0.02450   0.03604   0.04106   0.06951   0.08288
 Alpha virt. eigenvalues --    0.08513   0.08583   0.08703   0.11220   0.11575

 Mulliken charges:
               1
     1  C   -1.807987
     2  C   -0.027826
     3  O   -0.215552
     4  C   -0.106334
     5  C    1.569264
     6  H    0.174497
     7  H    0.117278
     8  H    0.174497
     9  H    0.122164
 Sum of Mulliken charges =   0.00000

 Dipole moment (field-independent basis, Debye):
    X=             -0.4567    Y=              2.7978    Z=             -0.0000  Tot=              2.8348
 Quadrupole moment (field-independent basis, Debye-Ang):
   XX=            -28.3483   YY=            -28.9036   ZZ=            -29.4784
   XY=              6.4512   XZ=             -0.0000   YZ=             -0.0000

  Exact polarizability:  59.283  10.269  51.107   0.000   0.000  30.789
 Approx polarizability:  80.206  19.542  81.599   0.000  -0.000  42.101

                      1                      2                      3
                     A"                     A'                     A"
 Frequencies --    142.3316               149.0055               321.1236
 Red. masses --      2.0479                 5.4203                 2.5373
 Frc consts  --      0.0244                 0.0709                 0.1542
 IR Inten    --      5.0983                 5.9447                11.6676

                      4                      5                      6
                     A'                     A"                     A'
 Frequencies --    376.9227               681.4292               692.5744
 Red. masses --      6.9903                 1.2605                 1.2683
 Frc consts  --      0.5851                 0.3448                 0.3584
 IR Inten    --      5.1180                49.9827                48.2296

                      7                      8                      9
                     A"                     A'                     A'
 Frequencies --    713.9432               735.3694               829.9231
 Red. masses --      1.3724                 6.3272                 3.9260
 Frc consts  --      0.4121                 2.0159                 1.5932
 IR Inten    --      0.6461                34.8558                13.4814

                     10                     11                     12
                     A'                     A"                     A"
 Frequencies --   1017.2082              1045.3050              1235.4545
 Red. masses --      2.4172                 1.7248                 1.1646
 Frc consts  --      1.4736                 1.1104                 1.0473
 IR Inten    --     10.8451                 0.0446                 0.6436

                     13                     14                     15
                     A'                     A'                     A'
 Frequencies --   1324.5805              1411.7421              1436.8543
 Red. masses --      1.6777                 1.1448                 1.1374
 Frc consts  --      1.7343                 1.3443                 1.3835
 IR Inten    --     29.4141                12.2973                17.8960

                     16                     17                     18
                     A'                     A'                     A'
 Frequencies --   1822.8954              2230.4144              2879.4466
 Red. masses --     10.1010                 5.9090                 1.0835
 Frc consts  --     19.7760                17.3194                 5.2929
 IR Inten    --    179.0222                 1.5564               136.9988

                     19                     20                     21
                     A'                     A"                     A'
 Frequencies --   3003.1999              3024.5142              3476.9706
 Red. masses --      1.0605                 1.0978                 1.1636
 Frc consts  --      5.6352                 5.9165                 8.2884
 IR Inten    --     24.1918                 1.8544                66.0887

 - Thermochemistry -
 -------------------
 Temperature   298.150 Kelvin.  Pressure   1.00000 Atm.
 Atom     1 has atomic number  6 and mass  12.00000

 Molecular mass:    68.02621 amu.
 Principal axes and moments of inertia in atomic units:
                           1         2         3
     Eigenvalues --   141.60202 519.73198 650.39055
           X            0.99970  -0.02449   0.00000
           Y            0.02449   0.99970   0.00000
           Z           -0.00000  -0.00000   1.00000
 This molecule is an asymmetric top.
 Rotational symmetry number  1.
 Rotational temperatures (Kelvin)      0.61167     0.16665     0.13317
 Rotational constants (GHZ):          12.74517     3.47245     2.77486
 Zero-point vibrational energy     170774.1 (Joules/Mol)
                                   40.81600 (Kcal/Mol)
 Warning -- explicit consideration of   4 degrees of freedom as
           vibrations may cause significant error
 Vibrational temperatures:    204.78   214.39   462.02   542.31   980.42
          (Kelvin)            996.46  1027.20  1058.03  1194.07  1463.53
                             1503.96  1777.54  1905.77  2031.18  2067.31
                             2622.74  3209.06  4142.88  4320.93  4351.60
                             5002.58

 Zero-point correction=                           0.065044 (Hartree/Particle)
 Thermal correction to Energy=                    0.070523
 Thermal correction to Enthalpy=                  0.071468
 Thermal correction to Gibbs Free Energy=         0.036591
 Sum of electronic and zero-point Energies=           -229.972285
 Sum of electronic and thermal Energies=              -229.966806
 Sum of electronic and thermal Enthalpies=            -229.965862
 Sum of electronic and thermal Free Energies=         -230.000738

                     E (Thermal)             CV                S
                      KCal/Mol        Cal/Mol-Kelvin    Cal/Mol-Kelvin
 Total                   44.254             18.038             73.403
 Electronic               0.000              0.000              0.000
 Translational            0.889              2.981             38.570
 Rotational               0.889              2.981             25.374
 Vibrational             42.477             12.076              9.460
 Vibration     1          0.616              1.911              2.772
 Vibration     2          0.618              1.904              2.685
 Vibration     3          0.707              1.633              1.304
 Vibration     4          0.747              1.519              1.051

 Optimization completed.
    -- Stationary point found.
 Normal termination of Gaussian 09 at Sun Mar  4 21:21:45 2018.
