 Gaussian 09, Revision D.01,
 Gaussian 09:  ES64L-G09RevD.01 24-Apr-2013

 ---------------------------
 #p b3lyp/6-311++g(d,p) freq
 ---------------------------

 ---
 min
 ---
 Symbolic Z-matrix:
 Charge =  1 Multiplicity = 2

                         Standard orientation:
 ---------------------------------------------------------------------
 Center     Atomic      Atomic             Coordinates (Angstroms)
 Number     Number       Type             X           Y           Z
 ---------------------------------------------------------------------
      1          6           0       -0.000000    0.431293   -0.000000
      2          6           0        1.102832    1.457522   -0.000000
      3          6           0       -0.267126    1.730146   -0.000000
      4          6           0       -0.253603   -0.918286    0.000000
      5          8           0       -0.436577   -2.025506    0.000000
 ---------------------------------------------------------------------

 SCF Done:  E(UB3LYP) =  -227.093283916     A.U. after   18 cycles

 The electronic state is 2-A'.
 Alpha  occ. eigenvalues --  -19.54953 -10.64993 -10.56706 -10.54848 -10.52253
 Alpha  occ. eigenvalues --   -1.48153  -1.23222  -1.05925  -0.84330  -0.82194
 Alpha  occ. eigenvalues --   -0.79279  -0.77163  -0.72153  -0.67301  -0.56937
 Alpha  occ. eigenvalues --   -0.53445
 Alpha virt. eigenvalues --   -0.42185  -0.34299  -0.28382  -0.21157  -0.20393
 Alpha virt. eigenvalues --   -0.14396  -0.11991  -0.11760  -0.08650  -0.08412
 Alpha virt. eigenvalues --   -0.06761  -0.06178  -0.06062  -0.05200  -0.03111

  Beta  occ. eigenvalues --  -19.54696 -10.64939 -10.56451 -10.53447 -10.52056
  Beta  occ. eigenvalues --   -1.47746  -1.22423  -1.04950  -0.83941  -0.80317
  Beta  occ. eigenvalues --   -0.79149  -0.75583  -0.68350  -0.66665  -0.53268
  Beta virt. eigenvalues --   -0.43621  -0.41551  -0.31822  -0.27071  -0.20390
  Beta virt. eigenvalues --   -0.20080  -0.13816  -0.11731  -0.11683  -0.08471
  Beta virt. eigenvalues --   -0.08006  -0.06437  -0.06095  -0.05425  -0.04242

 Mulliken charges and spin densities:
               1          2
     1  C    0.889713   0.209870
     2  C    0.008914   0.087923
     3  C    0.184291   0.557670
     4  C   -0.224599   0.058082
     5  O    0.141681   0.086455
 Sum of Mulliken charges =   1.00000   1.00000

 Dipole moment (field-independent basis, Debye):
    X=             -1.4227    Y=             -0.1137    Z=              0.0000  Tot=              1.4273
 Quadrupole moment (field-independent basis, Debye-Ang):
   XX=            -25.8201   YY=            -15.8865   ZZ=            -22.9585
   XY=             -0.0948   XZ=              0.0000   YZ=              0.0000

  Exact polarizability:  33.014   7.400  65.259   0.000  -0.000  20.971
 Approx polarizability:  53.382  17.211 141.530  -0.000  -0.000  31.446

                      1                      2                      3
                     A'                     A"                     A'
 Frequencies --    188.2063               227.4739               493.9800
 Red. masses --     12.7389                12.6469                12.2369
 Frc consts  --      0.2659                 0.3856                 1.7593
 IR Inten    --      7.8912                 8.0373                19.4076

                      4                      5                      6
                     A"                     A'                     A'
 Frequencies --    610.8810               641.2149               786.4162
 Red. masses --     12.2268                12.3595                12.7738
 Frc consts  --      2.6883                 2.9940                 4.6545
 IR Inten    --      8.3103                38.3675                49.2926

                      7                      8                      9
                     A'                     A'                     A'
 Frequencies --   1145.4010              1722.6253              2323.2745
 Red. masses --     12.0828                12.0990                13.1075
 Frc consts  --      9.3397                21.1535                41.6840
 IR Inten    --      2.3504               109.8838               643.0759

 - Thermochemistry -
 -------------------
 Temperature   298.150 Kelvin.  Pressure   1.00000 Atm.
 Atom     1 has atomic number  6 and mass  12.00000

 Molecular mass:    63.99491 amu.
 Principal axes and moments of inertia in atomic units:
                           1         2         3
     Eigenvalues --    42.45372 524.12405 566.57777
           X            0.23396   0.97225   0.00000
           Y            0.97225  -0.23396   0.00000
           Z           -0.00000  -0.00000   1.00000
 This molecule is an asymmetric top.
 Rotational symmetry number  1.
 Rotational temperatures (Kelvin)      2.04019     0.16525     0.15287
 Rotational constants (GHZ):          42.51079     3.44335     3.18534
 Zero-point vibrational energy      48684.9 (Joules/Mol)
                                   11.63596 (Kcal/Mol)
 Warning -- explicit consideration of   4 degrees of freedom as
           vibrations may cause significant error
 Vibrational temperatures:    270.79   327.28   710.73   878.92   922.56
          (Kelvin)           1131.48  1647.97  2478.47  3342.67

 Zero-point correction=                           0.018543 (Hartree/Particle)
 Thermal correction to Energy=                    0.023101
 Thermal correction to Enthalpy=                  0.024045
 Thermal correction to Gibbs Free Energy=        -0.009082
 Sum of electronic and zero-point Energies=           -227.074741
 Sum of electronic and thermal Energies=              -227.070183
 Sum of electronic and thermal Enthalpies=            -227.069239
 Sum of electronic and thermal Free Energies=         -227.102366

                     E (Thermal)             CV                S
                      KCal/Mol        Cal/Mol-Kelvin    Cal/Mol-Kelvin
 Total                   14.496             13.789             69.721
 Electronic               0.000              0.000              1.377
 Translational            0.889              2.981             38.388
 Rotational               0.889              2.981             24.048
 Vibrational             12.718              7.827              5.908
 Vibration     1          0.633              1.856              2.245
 Vibration     2          0.651              1.799              1.899
 Vibration     3          0.850              1.263              0.673
 Vibration     4          0.970              1.009              0.431

 Optimization completed.
    -- Stationary point found.
 Normal termination of Gaussian 09 at Thu Jan 24 15:37:53 2019.
