 Gaussian 09, Revision D.01,
 Gaussian 09:  ES64L-G09RevD.01 24-Apr-2013

 ---------------------------
 #p b3lyp/6-311++g(d,p) freq
 ---------------------------

 ---
 min
 ---
 Symbolic Z-matrix:
 Charge =  0 Multiplicity = 1

                         Standard orientation:
 ---------------------------------------------------------------------
 Center     Atomic      Atomic             Coordinates (Angstroms)
 Number     Number       Type             X           Y           Z
 ---------------------------------------------------------------------
      1          6           0       -0.000000    0.785894   -0.612757
      2          6           0       -0.000000    0.000000   -1.798972
      3          6           0        0.000000   -0.000000    0.625687
      4          6           0        0.000000   -0.785894   -0.612757
      5          8           0        0.000000   -0.000000    1.799100
 ---------------------------------------------------------------------

 SCF Done:  E(RB3LYP) =  -227.450110519     A.U. after   11 cycles

 The electronic state is 1-A1.
 Alpha  occ. eigenvalues --  -19.21614 -10.37248 -10.30890 -10.30870 -10.27524
 Alpha  occ. eigenvalues --   -1.15600  -1.03389  -0.74698  -0.61042  -0.54760
 Alpha  occ. eigenvalues --   -0.52024  -0.49946  -0.40819  -0.37771  -0.35479
 Alpha  occ. eigenvalues --   -0.29981
 Alpha virt. eigenvalues --   -0.13698  -0.12799  -0.05866   0.00818   0.03813
 Alpha virt. eigenvalues --    0.03840   0.04346   0.04415   0.06727   0.07704
 Alpha virt. eigenvalues --    0.07812   0.09425   0.09714   0.11881   0.12498

 Mulliken charges:
               1
     1  C    0.299268
     2  C   -0.326241
     3  C   -0.094284
     4  C    0.299268
     5  O   -0.178011
 Sum of Mulliken charges =  -0.00000

 Dipole moment (field-independent basis, Debye):
    X=              0.0000    Y=              0.0000    Z=              0.7417  Tot=              0.7417
 Quadrupole moment (field-independent basis, Debye-Ang):
   XX=            -25.6362   YY=            -29.4006   ZZ=            -37.2026
   XY=              0.0000   XZ=             -0.0000   YZ=              0.0000

  Exact polarizability:  25.390  -0.000  40.463  -0.000   0.000  59.270
 Approx polarizability:  39.657  -0.000  88.100   0.000   0.000 109.313

                      1                      2                      3
                     B1                     B2                     B2
 Frequencies --    263.9356               460.6562               675.6309
 Red. masses --     12.5907                12.7399                12.2291
 Frc consts  --      0.5168                 1.5928                 3.2890
 IR Inten    --     22.4389                 0.2015                47.0470

                      4                      5                      6
                     B1                     A1                     A1
 Frequencies --    679.7260               773.9156               963.2243
 Red. masses --     12.2007                12.8967                12.4189
 Frc consts  --      3.3213                 4.5511                 6.7888
 IR Inten    --      7.0774                 4.1389                34.3852

                      7                      8                      9
                     B2                     A1                     A1
 Frequencies --    977.6914              1409.2523              1985.2887
 Red. masses --     12.0238                12.0093                13.0904
 Frc consts  --      6.7717                14.0522                30.3985
 IR Inten    --     19.6630               136.4312               486.9990

 - Thermochemistry -
 -------------------
 Temperature   298.150 Kelvin.  Pressure   1.00000 Atm.
 Atom     1 has atomic number  6 and mass  12.00000

 Molecular mass:    63.99491 amu.
 Principal axes and moments of inertia in atomic units:
                           1         2         3
     Eigenvalues --    52.93423 372.52073 425.45496
           X            0.00000  -0.00000   1.00000
           Y           -0.00000   1.00000   0.00000
           Z            1.00000   0.00000  -0.00000
 This molecule is an asymmetric top.
 Rotational symmetry number  2.
 Rotational temperatures (Kelvin)      1.63625     0.23251     0.20358
 Rotational constants (GHZ):          34.09403     4.84467     4.24191
 Zero-point vibrational energy      48983.0 (Joules/Mol)
                                   11.70722 (Kcal/Mol)
 Warning -- explicit consideration of   2 degrees of freedom as
           vibrations may cause significant error
 Vibrational temperatures:    379.74   662.78   972.08   977.97  1113.49
          (Kelvin)           1385.86  1406.68  2027.60  2856.38

 Zero-point correction=                           0.018657 (Hartree/Particle)
 Thermal correction to Energy=                    0.022632
 Thermal correction to Enthalpy=                  0.023576
 Thermal correction to Gibbs Free Energy=        -0.006918
 Sum of electronic and zero-point Energies=           -227.431454
 Sum of electronic and thermal Energies=              -227.427479
 Sum of electronic and thermal Enthalpies=            -227.426534
 Sum of electronic and thermal Free Energies=         -227.457028

                     E (Thermal)             CV                S
                      KCal/Mol        Cal/Mol-Kelvin    Cal/Mol-Kelvin
 Total                   14.202             12.414             64.180
 Electronic               0.000              0.000              0.000
 Translational            0.889              2.981             38.388
 Rotational               0.889              2.981             22.266
 Vibrational             12.424              6.453              3.526
 Vibration     1          0.670              1.739              1.636
 Vibration     2          0.818              1.337              0.764

 Optimization completed.
    -- Stationary point found.

 1\1\ CITASK-GV1139\Freq\RB3LYP\6-311++G(d,p)\C4O1\EERD\04-Mar-2018\0\\
 #p b3lyp/6-311++g(d,p) freq\\min\\0,1\C,-0.92979082,0.319659021,0.1371
 803019\C,-0.7529921601,1.592860753,-0.4730948389\C,0.2918794258,-0.489
 8224551,0.1974628529\C,0.4461709865,0.8282413998,-0.4272564633\O,0.797
 5444253,-1.4977357889,0.52197886\\Version=ES64L-G09RevD.01\State=1-A1\
 HF=-227.4501105\RMSD=7.974e-09\RMSF=1.518e-04\ZeroPoint=0.0186566\Ther
 mal=0.0226319\Dipole=0.1257535,-0.2506573,0.0807037\DipoleDeriv=-0.358
 9565,0.298631,-0.0251513,0.0354256,-0.6580683,0.3198421,0.0920308,0.25

 Normal termination of Gaussian 09 at Sun Mar  4 21:13:39 2018.
