 Gaussian 09, Revision D.01,
 Gaussian 09:  ES64L-G09RevD.01 24-Apr-2013

 ---------------------------
 #p b3lyp/6-311++g(d,p) freq
 ---------------------------

 ---
 min
 ---
 Symbolic Z-matrix:
 Charge =  0 Multiplicity = 3

                         Standard orientation:
 ---------------------------------------------------------------------
 Center     Atomic      Atomic             Coordinates (Angstroms)
 Number     Number       Type             X           Y           Z
 ---------------------------------------------------------------------
      1          6           0       -0.000000    0.000000    0.126132
      2          6           0       -0.000000    0.000000    1.410124
      3          6           0        0.000000   -0.000000   -1.157878
      4          6           0       -0.000000    0.000000    2.717804
      5          8           0        0.000000   -0.000000   -2.322137
 ---------------------------------------------------------------------

 SCF Done:  E(UB3LYP) =  -227.489936598     A.U. after   15 cycles

 The electronic state is 3-SG.
 Alpha  occ. eigenvalues --  -19.25485 -10.35438 -10.27280 -10.24986 -10.24774
 Alpha  occ. eigenvalues --   -1.18521  -0.88141  -0.80601  -0.68702  -0.57582
 Alpha  occ. eigenvalues --   -0.52755  -0.52755  -0.40340  -0.40340  -0.32900
 Alpha  occ. eigenvalues --   -0.28383  -0.28383
 Alpha virt. eigenvalues --   -0.06752  -0.06752  -0.01491   0.03162   0.03981
 Alpha virt. eigenvalues --    0.03981   0.06088   0.07410   0.07410   0.08876
 Alpha virt. eigenvalues --    0.11216   0.11216   0.12348   0.14367   0.14367

  Beta  occ. eigenvalues --  -19.24454 -10.35157 -10.26625 -10.24604 -10.23723
  Beta  occ. eigenvalues --   -1.16781  -0.85762  -0.77019  -0.66713  -0.56198
  Beta  occ. eigenvalues --   -0.49743  -0.49743  -0.36822  -0.36822  -0.30508
  Beta virt. eigenvalues --   -0.18684  -0.18684  -0.02876  -0.02876  -0.01242
  Beta virt. eigenvalues --    0.03361   0.04202   0.04202   0.06312   0.07916
  Beta virt. eigenvalues --    0.07916   0.09041   0.12345   0.12345   0.13531

 Mulliken charges and spin densities:
               1          2
     1  C    1.412304   0.484834
     2  C    0.126261   0.210351
     3  C   -1.001515   0.154996
     4  C   -0.431686   0.805891
     5  O   -0.105364   0.343929
 Sum of Mulliken charges =  -0.00000   2.00000

 Dipole moment (field-independent basis, Debye):
    X=              0.0000    Y=             -0.0000    Z=             -2.5809  Tot=              2.5809
 Quadrupole moment (field-independent basis, Debye-Ang):
   XX=            -26.9804   YY=            -26.9804   ZZ=            -41.2312
   XY=              0.0000   XZ=              0.0000   YZ=             -0.0000

  Exact polarizability:  24.731  -0.000  24.731  -0.000   0.000 115.370
 Approx polarizability:  31.164  -0.000  31.164  -0.000   0.000 247.804

                      1                      2                      3
                     PI                     PI                     PI
 Frequencies --    135.8328               135.8328               352.2493
 Red. masses --     12.5868                12.5868                12.0740
 Frc consts  --      0.1368                 0.1368                 0.8827
 IR Inten    --      8.8463                 8.8463                 4.7848

                      4                      5                      6
                     PI                     PI                     PI
 Frequencies --    352.2496               519.9416               519.9416
 Red. masses --     12.0740                12.4274                12.4274
 Frc consts  --      0.8827                 1.9794                 1.9794
 IR Inten    --      4.7848                11.7766                11.7766

                      7                      8                      9
                     SG                     SG                     SG
 Frequencies --    772.2309              1467.7754              1984.9998
 Red. masses --     13.1070                12.5548                12.3789
 Frc consts  --      4.6052                15.9360                28.7377
 IR Inten    --      4.6227                12.0168               393.5526

                     10
                     SG
 Frequencies --   2301.1555
 Red. masses --     12.3466
 Frc consts  --     38.5204
 IR Inten    --    838.4131

 - Thermochemistry -
 -------------------
 Temperature   298.150 Kelvin.  Pressure   1.00000 Atm.
 Atom     1 has atomic number  6 and mass  12.00000

 Molecular mass:    63.99491 amu.
 Principal axes and moments of inertia in atomic units:
                           1         2         3
     Eigenvalues --     0.00000 767.87790 767.87790
           X           -0.00000  -0.26092   0.96536
           Y            0.00000   0.96536   0.26092
           Z            1.00000  -0.00000   0.00000
 This molecule is a prolate symmetric top.
 Rotational symmetry number  1.
 Warning -- assumption of classical behavior for rotation
           may cause significant error
 Rotational temperature (Kelvin)      0.11280
 Rotational constant (GHZ):           2.350297
 Zero-point vibrational energy      51093.8 (Joules/Mol)
                                   12.21170 (Kcal/Mol)
 Warning -- explicit consideration of   6 degrees of freedom as
           vibrations may cause significant error
 Vibrational temperatures:    195.43   195.43   506.81   506.81   748.08
          (Kelvin)            748.08  1111.07  2111.80  2855.97  3310.85

 Zero-point correction=                           0.019461 (Hartree/Particle)
 Thermal correction to Energy=                    0.024388
 Thermal correction to Enthalpy=                  0.025332
 Thermal correction to Gibbs Free Energy=        -0.006843
 Sum of electronic and zero-point Energies=           -227.470476
 Sum of electronic and thermal Energies=              -227.465549
 Sum of electronic and thermal Enthalpies=            -227.464604
 Sum of electronic and thermal Free Energies=         -227.496780

                     E (Thermal)             CV                S
                      KCal/Mol        Cal/Mol-Kelvin    Cal/Mol-Kelvin
 Total                   15.304             15.154             67.719
 Electronic               0.000              0.000              2.183
 Translational            0.889              2.981             38.388
 Rotational               0.592              1.987             17.646
 Vibrational             13.822             10.186              9.502
 Vibration     1          0.614              1.918              2.862
 Vibration     2          0.614              1.918              2.862
 Vibration     3          0.729              1.571              1.156
 Vibration     4          0.729              1.571              1.156
 Vibration     5          0.875              1.206              0.610
 Vibration     6          0.875              1.206              0.610

 Optimization completed.
    -- Stationary point found.
 Normal termination of Gaussian 09 at Sun Mar  4 21:13:55 2018.
