 Gaussian 09, Revision D.01,
 Gaussian 09:  ES64L-G09RevD.01 24-Apr-2013

 ---------------------------
 #p b3lyp/6-311++g(d,p) freq
 ---------------------------

 ---
 min
 ---
 Symbolic Z-matrix:
 Charge =  0 Multiplicity = 1

                         Standard orientation:
 ---------------------------------------------------------------------
 Center     Atomic      Atomic             Coordinates (Angstroms)
 Number     Number       Type             X           Y           Z
 ---------------------------------------------------------------------
      1          6           0       -0.000000    0.716399   -0.065168
      2          6           0       -0.000000   -0.716399   -0.065168
      3          6           0        0.000000   -1.873570   -0.689817
      4          6           0        0.000000    1.873570   -0.689817
      5          8           0       -0.000000    0.000000    1.132477
 ---------------------------------------------------------------------

 SCF Done:  E(RB3LYP) =  -227.295019132     A.U. after   12 cycles

 The electronic state is 1-A1.
 Alpha  occ. eigenvalues --  -19.28196 -10.31333 -10.31296 -10.29109 -10.29108
 Alpha  occ. eigenvalues --   -1.21592  -0.82579  -0.81204  -0.67861  -0.57682
 Alpha  occ. eigenvalues --   -0.52978  -0.45399  -0.35328  -0.35099  -0.32404
 Alpha  occ. eigenvalues --   -0.31713
 Alpha virt. eigenvalues --   -0.20747  -0.15513  -0.06094   0.00091   0.02975
 Alpha virt. eigenvalues --    0.04440   0.04934   0.05018   0.06223   0.06748
 Alpha virt. eigenvalues --    0.09210   0.09569   0.09948   0.11376   0.12764

 Mulliken charges:
               1
     1  C    0.299920
     2  C    0.299920
     3  C   -0.302239
     4  C   -0.302239
     5  O    0.004638
 Sum of Mulliken charges =  -0.00000

 Dipole moment (field-independent basis, Debye):
    X=             -0.0000    Y=              0.0000    Z=              1.1572  Tot=              1.1572
 Quadrupole moment (field-independent basis, Debye-Ang):
   XX=            -29.4071   YY=            -35.2131   ZZ=            -29.1189
   XY=              0.0000   XZ=              0.0000   YZ=             -0.0000

  Exact polarizability:  29.156  -0.000  75.537   0.000  -0.000  38.547
 Approx polarizability:  39.612  -0.000 134.631  -0.000  -0.000  68.706

                      1                      2                      3
                     A1                     B1                     B2
 Frequencies --    162.4676               286.2559               286.9588
 Red. masses --     12.2693                12.3378                12.3882
 Frc consts  --      0.1908                 0.5957                 0.6010
 IR Inten    --     24.9740                 1.5808                13.0799

                      4                      5                      6
                     A2                     B2                     A1
 Frequencies --    393.0065               701.3192               818.0543
 Red. masses --     12.0000                13.5716                12.2635
 Frc consts  --      1.0920                 3.9329                 4.8354
 IR Inten    --      0.0000                 5.7922                40.5420

                      7                      8                      9
                     A1                     B2                     A1
 Frequencies --    961.1039              1571.3516              1906.3743
 Red. masses --     13.8598                12.0042                12.1176
 Frc consts  --      7.5431                17.4635                25.9468
 IR Inten    --     61.7229               185.9292                 0.1969

 - Thermochemistry -
 -------------------
 Temperature   298.150 Kelvin.  Pressure   1.00000 Atm.
 Atom     1 has atomic number  6 and mass  12.00000

 Molecular mass:    63.99491 amu.
 Principal axes and moments of inertia in atomic units:
                           1         2         3
     Eigenvalues --   114.40190 344.83550 459.23740
           X            0.00000  -0.00000   1.00000
           Y            1.00000   0.00000   0.00000
           Z           -0.00000   1.00000   0.00000
 This molecule is an asymmetric top.
 Rotational symmetry number  2.
 Rotational temperatures (Kelvin)      0.75710     0.25117     0.18860
 Rotational constants (GHZ):          15.77545     5.23363     3.92987
 Zero-point vibrational energy      42389.0 (Joules/Mol)
                                   10.13122 (Kcal/Mol)
 Warning -- explicit consideration of   4 degrees of freedom as
           vibrations may cause significant error
 Vibrational temperatures:    233.75   411.86   412.87   565.45  1009.04
          (Kelvin)           1177.00  1382.81  2260.82  2742.84

 Zero-point correction=                           0.016145 (Hartree/Particle)
 Thermal correction to Energy=                    0.021023
 Thermal correction to Enthalpy=                  0.021967
 Thermal correction to Gibbs Free Energy=        -0.010595
 Sum of electronic and zero-point Energies=           -227.278874
 Sum of electronic and thermal Energies=              -227.273996
 Sum of electronic and thermal Enthalpies=            -227.273052
 Sum of electronic and thermal Free Energies=         -227.305615

                     E (Thermal)             CV                S
                      KCal/Mol        Cal/Mol-Kelvin    Cal/Mol-Kelvin
 Total                   13.192             14.678             68.534
 Electronic               0.000              0.000              0.000
 Translational            0.889              2.981             38.388
 Rotational               0.889              2.981             23.031
 Vibrational             11.415              8.716              7.115
 Vibration     1          0.623              1.888              2.521
 Vibration     2          0.684              1.699              1.496
 Vibration     3          0.684              1.698              1.492
 Vibration     4          0.760              1.485              0.989

 Optimization completed.
    -- Stationary point found.

 1\1\ CITASK-GV2237\Freq\RB3LYP\6-311++G(d,p)\C4O1\EERD\04-Mar-2018\0\\
 #p b3lyp/6-311++g(d,p) freq\\min\\0,1\C,0.657768219,-0.278976792,0.062
 7973137\C,-0.7022495571,0.1449231357,-0.0907215712\C,-1.977311479,-0.1
 0703643,-0.2906340689\C,1.5794910726,-1.2156457223,0.1108580081\O,0.31
 64893082,1.0724568559,0.1316112381\\Version=ES64L-G09RevD.01\State=1-A
 1\HF=-227.2950191\RMSD=3.537e-09\RMSF=2.352e-06\ZeroPoint=0.0161451\Th
 ermal=0.021023\Dipole=0.1287682,0.4331747,0.0553397\DipoleDeriv=-0.204
 26,0.5524228,0.0090311,0.703078,0.2364472,0.1124414,0.0220192,0.091387

 Normal termination of Gaussian 09 at Sun Mar  4 21:13:35 2018.
