 Gaussian 09, Revision D.01,
 Gaussian 09:  ES64L-G09RevD.01 24-Apr-2013

 ---------------------------
 #p b3lyp/6-311++g(d,p) freq
 ---------------------------

 ---
 min
 ---
 Symbolic Z-matrix:
 Charge =  0 Multiplicity = 1

                         Standard orientation:
 ---------------------------------------------------------------------
 Center     Atomic      Atomic             Coordinates (Angstroms)
 Number     Number       Type             X           Y           Z
 ---------------------------------------------------------------------
      1          6           0       -0.003733   -0.175282    0.833196
      2          6           0       -0.003733   -0.175282   -0.833196
      3          6           0       -0.003733   -1.385088    0.000000
      4          6           0       -0.970721    0.691804    0.000000
      5          8           0        0.736441    0.782886   -0.000000
 ---------------------------------------------------------------------

 SCF Done:  E(RB3LYP) =  -227.267522178     A.U. after   13 cycles

 The electronic state is 1-A'.
 Alpha  occ. eigenvalues --  -19.29640 -10.32848 -10.32835 -10.32389 -10.29572
 Alpha  occ. eigenvalues --   -1.24036  -0.90546  -0.73382  -0.67919  -0.55584
 Alpha  occ. eigenvalues --   -0.49739  -0.44234  -0.39611  -0.39338  -0.33148
 Alpha  occ. eigenvalues --   -0.31312
 Alpha virt. eigenvalues --   -0.16158  -0.12563  -0.08182   0.02246   0.02284
 Alpha virt. eigenvalues --    0.03474   0.03946   0.04531   0.07171   0.08013
 Alpha virt. eigenvalues --    0.08244   0.08436   0.08766   0.11945   0.12457

 Mulliken charges:
               1
     1  C    0.256289
     2  C    0.256289
     3  C   -0.329124
     4  C   -0.255721
     5  O    0.072266
 Sum of Mulliken charges =  -0.00000

 Dipole moment (field-independent basis, Debye):
    X=              0.8610    Y=              0.3951    Z=             -0.0000  Tot=              0.9473
 Quadrupole moment (field-independent basis, Debye-Ang):
   XX=            -28.2326   YY=            -32.8904   ZZ=            -28.4904
   XY=              0.2415   XZ=             -0.0000   YZ=              0.0000

  Exact polarizability:  37.990  -5.275  49.259   0.000  -0.000  43.632
 Approx polarizability:  76.070 -14.056  99.260   0.000  -0.000 108.915

                      1                      2                      3
                     A'                     A"                     A'
 Frequencies --    281.5877               468.7343               524.4178
 Red. masses --     12.1007                13.0461                13.3733
 Frc consts  --      0.5653                 1.6888                 2.1669
 IR Inten    --      6.2822                 4.2731                32.2764

                      4                      5                      6
                     A"                     A"                     A'
 Frequencies --    596.0517               706.3987               870.0186
 Red. masses --     12.0034                12.0809                12.3870
 Frc consts  --      2.5126                 3.5518                 5.5242
 IR Inten    --     70.7152                 5.2613                14.1843

                      7                      8                      9
                     A'                     A'                     A'
 Frequencies --    902.4797              1162.2704              1221.9023
 Red. masses --     13.6877                12.3728                12.0136
 Frc consts  --      6.5684                 9.8477                10.5681
 IR Inten    --     47.3496                39.1268                11.7750

 - Thermochemistry -
 -------------------
 Temperature   298.150 Kelvin.  Pressure   1.00000 Atm.
 Atom     1 has atomic number  6 and mass  12.00000

 Molecular mass:    63.99491 amu.
 Principal axes and moments of inertia in atomic units:
                           1         2         3
     Eigenvalues --   130.57471 200.14436 211.72280
           X            0.06383   0.99796   0.00000
           Y            0.99796  -0.06383   0.00000
           Z           -0.00000  -0.00000   1.00000
 This molecule is an asymmetric top.
 Rotational symmetry number  1.
 Rotational temperatures (Kelvin)      0.66333     0.43276     0.40909
 Rotational constants (GHZ):          13.82152     9.01720     8.52408
 Zero-point vibrational energy      40277.4 (Joules/Mol)
                                    9.62654 (Kcal/Mol)
 Warning -- explicit consideration of   4 degrees of freedom as
           vibrations may cause significant error
 Vibrational temperatures:    405.14   674.40   754.52   857.58  1016.35
          (Kelvin)           1251.76  1298.47  1672.25  1758.04

 Zero-point correction=                           0.015341 (Hartree/Particle)
 Thermal correction to Energy=                    0.019493
 Thermal correction to Enthalpy=                  0.020437
 Thermal correction to Gibbs Free Energy=        -0.010740
 Sum of electronic and zero-point Energies=           -227.252181
 Sum of electronic and thermal Energies=              -227.248029
 Sum of electronic and thermal Enthalpies=            -227.247085
 Sum of electronic and thermal Free Energies=         -227.278263

                     E (Thermal)             CV                S
                      KCal/Mol        Cal/Mol-Kelvin    Cal/Mol-Kelvin
 Total                   12.232             13.503             65.619
 Electronic               0.000              0.000              0.000
 Translational            0.889              2.981             38.388
 Rotational               0.889              2.981             23.230
 Vibrational             10.455              7.541              4.002
 Vibration     1          0.681              1.708              1.524
 Vibration     2          0.826              1.319              0.741
 Vibration     3          0.879              1.196              0.600
 Vibration     4          0.954              1.040              0.456

 1\1\ CITASK-GV1705\Freq\RB3LYP\6-311++G(d,p)\C4O1\EERD\04-Mar-2018\0\\
 #p b3lyp/6-311++g(d,p) freq\\min\\0,1\C,0.096537058,-0.162051427,-0.83
 7334919\C,0.2623210578,0.1599835731,0.7892170814\C,1.378935766,-0.1245
 18937,-0.1218685951\C,-0.599042095,1.031080161,-0.1490587951\O,-0.8327
 60591,-0.625514528,0.2027456709\\Version=ES64L-G09RevD.01\State=1-A'\H
 F=-227.2675222\RMSD=1.062e-09\RMSF=7.886e-05\ZeroPoint=0.0153409\Therm
 al=0.0194931\Dipole=-0.1825752,-0.3146874,0.0809125\DipoleDeriv=-0.132
 3346,0.1504694,0.0265339,0.2483444,0.0840069,-0.4383338,0.0023777,-0.2

 Normal termination of Gaussian 09 at Sun Mar  4 21:13:53 2018.
