 Gaussian 09, Revision D.01,
 Gaussian 09:  ES64L-G09RevD.01 24-Apr-2013

 ---------------------------
 #p b3lyp/6-311++g(d,p) freq
 ---------------------------

 ---
 min
 ---
 Symbolic Z-matrix:
 Charge =  0 Multiplicity = 1

                         Standard orientation:
 ---------------------------------------------------------------------
 Center     Atomic      Atomic             Coordinates (Angstroms)
 Number     Number       Type             X           Y           Z
 ---------------------------------------------------------------------
      1          6           0        1.686414    2.128630   -0.000000
      2          6           0        0.839881    1.134408   -0.000000
      3          6           0       -0.695379   -0.924796    0.000000
      4          6           0       -0.000000    0.158640    0.000000
      5          8           0       -1.373187   -1.872661    0.000000
 ---------------------------------------------------------------------

 SCF Done:  E(RB3LYP) =  -227.464267965     A.U. after   13 cycles

 The electronic state is 1-A'.
 Alpha  occ. eigenvalues --  -19.24837 -10.35153 -10.27324 -10.25217 -10.24418
 Alpha  occ. eigenvalues --   -1.17440  -0.86931  -0.78856  -0.67827  -0.56734
 Alpha  occ. eigenvalues --   -0.51177  -0.50952  -0.38614  -0.38449  -0.32152
 Alpha  occ. eigenvalues --   -0.26022
 Alpha virt. eigenvalues --   -0.21333  -0.05111  -0.04867  -0.01312   0.03205
 Alpha virt. eigenvalues --    0.03950   0.04257   0.06201   0.07479   0.07643
 Alpha virt. eigenvalues --    0.09016   0.11561   0.11676   0.12556   0.14920

 Mulliken charges:
               1
     1  C   -0.446897
     2  C    0.351818
     3  C   -1.102762
     4  C    1.307089
     5  O   -0.109248
 Sum of Mulliken charges =  -0.00000

 Dipole moment (field-independent basis, Debye):
    X=             -1.4979    Y=             -1.8825    Z=              0.0000  Tot=              2.4057
 Quadrupole moment (field-independent basis, Debye-Ang):
   XX=            -33.4580   YY=            -36.2912   ZZ=            -25.3334
   XY=             -5.8964   XZ=              0.0000   YZ=              0.0000

  Exact polarizability:  56.550  41.527  79.404  -0.000  -0.000  24.524
 Approx polarizability: 118.386 114.064 181.750  -0.000  -0.000  32.670

                      1                      2                      3
                     A'                     A"                     A'
 Frequencies --     61.7127               233.1296               353.7165
 Red. masses --     12.3837                12.0660                12.2338
 Frc consts  --      0.0278                 0.3864                 0.9018
 IR Inten    --      0.7244                48.0631                10.2080

                      4                      5                      6
                     A"                     A'                     A'
 Frequencies --    382.1885               447.4996               772.2346
 Red. masses --     12.6294                12.4715                13.1014
 Frc consts  --      1.0869                 1.4715                 4.6033
 IR Inten    --     16.1522                 5.1082                 5.2677

                      7                      8                      9
                     A'                     A'                     A'
 Frequencies --   1472.8155              1998.3263              2298.6535
 Red. masses --     12.5570                12.3662                12.3524
 Frc consts  --     16.0485                29.0950                38.4546
 IR Inten    --     17.9015               474.5583               681.1450

 - Thermochemistry -
 -------------------
 Temperature   298.150 Kelvin.  Pressure   1.00000 Atm.
 Atom     1 has atomic number  6 and mass  12.00000

 Molecular mass:    63.99491 amu.
 Principal axes and moments of inertia in atomic units:
                           1         2         3
     Eigenvalues --     0.62766 767.25242 767.88008
           X            0.60424   0.79680   0.00000
           Y            0.79680  -0.60424   0.00000
           Z           -0.00000  -0.00000   1.00000
 This molecule is an asymmetric top.
 Rotational symmetry number  1.
 Rotational temperatures (Kelvin)    137.99502     0.11289     0.11280
 Rotational constants (GHZ):        2875.35321     2.35221     2.35029
 Zero-point vibrational energy      47971.9 (Joules/Mol)
                                   11.46556 (Kcal/Mol)
 Warning -- explicit consideration of   5 degrees of freedom as
           vibrations may cause significant error
 Vibrational temperatures:     88.79   335.42   508.92   549.88   643.85
          (Kelvin)           1111.07  2119.05  2875.14  3307.25

 Zero-point correction=                           0.018272 (Hartree/Particle)
 Thermal correction to Energy=                    0.023469
 Thermal correction to Enthalpy=                  0.024413
 Thermal correction to Gibbs Free Energy=        -0.008093
 Sum of electronic and zero-point Energies=           -227.445996
 Sum of electronic and thermal Energies=              -227.440799
 Sum of electronic and thermal Enthalpies=            -227.439855
 Sum of electronic and thermal Free Energies=         -227.472361

                     E (Thermal)             CV                S
                      KCal/Mol        Cal/Mol-Kelvin    Cal/Mol-Kelvin
 Total                   14.727             14.962             68.415
 Electronic               0.000              0.000              0.000
 Translational            0.889              2.981             38.388
 Rotational               0.889              2.981             20.542
 Vibrational             12.949              9.001              9.486
 Vibration     1          0.597              1.973              4.402
 Vibration     2          0.654              1.790              1.855
 Vibration     3          0.730              1.568              1.150
 Vibration     4          0.752              1.508              1.030
 Vibration     5          0.807              1.366              0.803

 1\1\ CITASK-GV1136\Freq\RB3LYP\6-311++G(d,p)\C4O1\EERD\04-Mar-2018\0\\
 #p b3lyp/6-311++g(d,p) freq\\min\\0,1\C,-1.95535771,-1.838231535,0.056
 7556491\C,-1.001032271,-0.94742542,0.0280812958\C,0.983214667,0.681292
 877,-0.0578763281\C,-0.064738,-0.064166,0.0010430001\O,1.897592736,1.4
 02353309,-0.1009622129\\Version=ES64L-G09RevD.01\State=1-A'\HF=-227.46
 4268\RMSD=8.991e-09\RMSF=1.758e-04\ZeroPoint=0.0182715\Thermal=0.02346
 86\Dipole=0.7123606,0.6226265,-0.026392\DipoleDeriv=0.4326784,0.576883
 3,-0.047883,0.5952541,0.3397255,0.0031787,-0.0457177,0.0057517,-0.3875

 Normal termination of Gaussian 09 at Sun Mar  4 21:13:47 2018.
