 Gaussian 09, Revision D.01,
 Gaussian 09:  ES64L-G09RevD.01 24-Apr-2013

 ---------------------------
 #p b3lyp/6-311++g(d,p) freq
 ---------------------------

 ---
 min
 ---
 Symbolic Z-matrix:
 Charge =  1 Multiplicity = 4

                         Standard orientation:
 ---------------------------------------------------------------------
 Center     Atomic      Atomic             Coordinates (Angstroms)
 Number     Number       Type             X           Y           Z
 ---------------------------------------------------------------------
      1          6           0        0.000000    0.000000   -1.076234
      2          8           0        0.000000    0.000000    0.807175
 ---------------------------------------------------------------------

 SCF Done:  E(UB3LYP) =  -112.581370002     A.U. after   12 cycles

 Unable to determine electronic state:  partially filled degenerate orbitals.
 Alpha  occ. eigenvalues --  -19.69103 -10.73043  -1.42135  -0.95437  -0.84437
 Alpha  occ. eigenvalues --   -0.84304  -0.76247  -0.62102
 Alpha virt. eigenvalues --   -0.49402  -0.42657  -0.16805  -0.11296  -0.10960
 Alpha virt. eigenvalues --   -0.10505  -0.03707  -0.02643  -0.02502   0.05962
 Alpha virt. eigenvalues --    0.24127   0.25634   0.28734   0.39926   0.63364

  Beta  occ. eigenvalues --  -19.63448 -10.71405  -1.25832  -0.89054  -0.70568
  Beta virt. eigenvalues --   -0.56291  -0.55411  -0.46006  -0.41026  -0.39983
  Beta virt. eigenvalues --   -0.16038  -0.10304  -0.10210  -0.09616  -0.03295
  Beta virt. eigenvalues --   -0.00902  -0.00638   0.07064   0.26440   0.28935

 Mulliken charges and spin densities:
               1          2
     1  C    0.545663   0.930385
     2  O    0.454337   2.069615
 Sum of Mulliken charges =   1.00000   3.00000

 Dipole moment (field-independent basis, Debye):
    X=              0.0000    Y=              0.0000    Z=             -1.5131  Tot=              1.5131
 Quadrupole moment (field-independent basis, Debye-Ang):
   XX=             -9.2719   YY=             -7.7339   ZZ=             -4.9312
   XY=              0.0000   XZ=              0.0000   YZ=              0.0000

  Exact polarizability:   8.879  -0.000   9.126   0.000   0.000  20.079
 Approx polarizability:   8.455  -0.000  11.892  -0.000  -0.000  32.410

                      1
                     SG
 Frequencies --    465.2498
 Red. masses --     13.4388
 Frc consts  --      1.7139
 IR Inten    --    113.3178

 - Thermochemistry -
 -------------------
 Temperature   298.150 Kelvin.  Pressure   1.00000 Atm.
 Atom     1 has atomic number  6 and mass  12.00000

 Molecular mass:    27.99491 amu.
 Principal axes and moments of inertia in atomic units:
                           1         2         3
     Eigenvalues --     0.00000  86.85024  86.85024
           X            0.00000  -0.00000   1.00000
           Y            0.00000   1.00000   0.00000
           Z            1.00000   0.00000   0.00000
 This molecule is a prolate symmetric top.
 Rotational symmetry number  1.
 Rotational temperature (Kelvin)      0.99728
 Rotational constant (GHZ):          20.779921
 Zero-point vibrational energy       2782.8 (Joules/Mol)
                                    0.66511 (Kcal/Mol)
 Warning -- explicit consideration of   1 degrees of freedom as
           vibrations may cause significant error
 Vibrational temperatures:    669.39
          (Kelvin)

 Zero-point correction=                           0.001060 (Hartree/Particle)
 Thermal correction to Energy=                    0.003671
 Thermal correction to Enthalpy=                  0.004616
 Thermal correction to Gibbs Free Energy=        -0.020445
 Sum of electronic and zero-point Energies=           -112.580310
 Sum of electronic and thermal Energies=              -112.577699
 Sum of electronic and thermal Enthalpies=            -112.576754
 Sum of electronic and thermal Free Energies=         -112.601815

                     E (Thermal)             CV                S
                      KCal/Mol        Cal/Mol-Kelvin    Cal/Mol-Kelvin
 Total                    2.304              6.295             52.744
 Electronic               0.000              0.000              2.755
 Translational            0.889              2.981             35.923
 Rotational               0.592              1.987             13.315
 Vibrational              0.823              1.327              0.751
 Vibration     1          0.823              1.327              0.751

 Optimization completed.
    -- Stationary point found.
 Normal termination of Gaussian 09 at Thu Jan 24 15:29:28 2019.
