 Gaussian 09, Revision D.01,
 Gaussian 09:  ES64L-G09RevD.01 24-Apr-2013

 ---------------------------
 #p b3lyp/6-311++g(d,p) freq
 ---------------------------

 ---
 min
 ---
 Symbolic Z-matrix:
 Charge =  1 Multiplicity = 2

                         Standard orientation:
 ---------------------------------------------------------------------
 Center     Atomic      Atomic             Coordinates (Angstroms)
 Number     Number       Type             X           Y           Z
 ---------------------------------------------------------------------
      1          6           0        0.000000    0.000000   -0.634566
      2          8           0        0.000000    0.000000    0.475924
 ---------------------------------------------------------------------

 SCF Done:  E(UB3LYP) =  -112.827511847     A.U. after   11 cycles

 The electronic state is 2-SG.
 Alpha  occ. eigenvalues --  -19.64887 -10.79435  -1.58023  -0.96840  -0.86889
 Alpha  occ. eigenvalues --   -0.86889  -0.86627
 Alpha virt. eigenvalues --   -0.43305  -0.43305  -0.18194  -0.13912  -0.12553
 Alpha virt. eigenvalues --   -0.12553  -0.03458   0.00539   0.00539   0.04914
 Alpha virt. eigenvalues --    0.10312   0.21580   0.21580   0.27490   0.53726

  Beta  occ. eigenvalues --  -19.64966 -10.76904  -1.57267  -0.93557  -0.86443
  Beta  occ. eigenvalues --   -0.86443
  Beta virt. eigenvalues --   -0.64909  -0.39123  -0.39123  -0.16963  -0.13089
  Beta virt. eigenvalues --   -0.12258  -0.12258  -0.02875   0.00477   0.00477
  Beta virt. eigenvalues --    0.05562   0.12465   0.23038   0.23038   0.34109

 Mulliken charges and spin densities:
               1          2
     1  C    0.700034   1.103034
     2  O    0.299966  -0.103034
 Sum of Mulliken charges =   1.00000   1.00000

 Dipole moment (field-independent basis, Debye):
    X=              0.0000    Y=              0.0000    Z=             -2.7624  Tot=              2.7624
 Quadrupole moment (field-independent basis, Debye-Ang):
   XX=             -7.9573   YY=             -7.9573   ZZ=             -5.5065
   XY=              0.0000   XZ=              0.0000   YZ=              0.0000

  Exact polarizability:   6.398  -0.000   6.398   0.000  -0.000  11.533
 Approx polarizability:   7.666  -0.000   7.666  -0.000  -0.000  24.930

                      1
                     SG
 Frequencies --   2302.3121
 Red. masses --     13.4388
 Frc consts  --     41.9699
 IR Inten    --     16.0060

 - Thermochemistry -
 -------------------
 Temperature   298.150 Kelvin.  Pressure   1.00000 Atm.
 Atom     1 has atomic number  6 and mass  12.00000

 Molecular mass:    27.99491 amu.
 Principal axes and moments of inertia in atomic units:
                           1         2         3
     Eigenvalues --     0.00000  30.19333  30.19333
           X            0.00000  -0.00000   1.00000
           Y            0.00000   1.00000   0.00000
           Z            1.00000   0.00000   0.00000
 This molecule is a prolate symmetric top.
 Rotational symmetry number  1.
 Rotational temperature (Kelvin)      2.86864
 Rotational constant (GHZ):          59.772837
 Zero-point vibrational energy      13770.9 (Joules/Mol)
                                    3.29132 (Kcal/Mol)
 Vibrational temperatures:   3312.51
          (Kelvin)

 Zero-point correction=                           0.005245 (Hartree/Particle)
 Thermal correction to Energy=                    0.007606
 Thermal correction to Enthalpy=                  0.008550
 Thermal correction to Gibbs Free Energy=        -0.014502
 Sum of electronic and zero-point Energies=           -112.822267
 Sum of electronic and thermal Energies=              -112.819906
 Sum of electronic and thermal Enthalpies=            -112.818962
 Sum of electronic and thermal Free Energies=         -112.842014

                     E (Thermal)             CV                S
                      KCal/Mol        Cal/Mol-Kelvin    Cal/Mol-Kelvin
 Total                    4.773              4.972             48.516
 Electronic               0.000              0.000              1.377
 Translational            0.889              2.981             35.923
 Rotational               0.592              1.987             11.215
 Vibrational              3.291              0.004              0.000

 Optimization completed.
    -- Stationary point found.
 Normal termination of Gaussian 09 at Thu Jan 24 15:29:28 2019.
