 Gaussian 09, Revision D.01,
 Gaussian 09:  ES64L-G09RevD.01 24-Apr-2013

 ---------------------------
 #p b3lyp/6-311++g(d,p) freq
 ---------------------------

 ---
 min
 ---
 Symbolic Z-matrix:
 Charge =  0 Multiplicity = 3

                         Standard orientation:
 ---------------------------------------------------------------------
 Center     Atomic      Atomic             Coordinates (Angstroms)
 Number     Number       Type             X           Y           Z
 ---------------------------------------------------------------------
      1          6           0        0.000000    0.000000   -0.687790
      2          8           0        0.000000    0.000000    0.515843
 ---------------------------------------------------------------------

 SCF Done:  E(UB3LYP) =  -113.134185911     A.U. after   12 cycles

 Unable to determine electronic state:  an orbital has unidentified symmetry.
 Alpha  occ. eigenvalues --  -19.21497 -10.33573  -1.12295  -0.60089  -0.47131
 Alpha  occ. eigenvalues --   -0.47023  -0.44876  -0.18500
 Alpha virt. eigenvalues --   -0.09073   0.02292   0.04734   0.05843   0.06342
 Alpha virt. eigenvalues --    0.17958   0.21000   0.21156   0.26343   0.33723
 Alpha virt. eigenvalues --    0.49134   0.50134   0.54752   0.81035   0.98735

  Beta  occ. eigenvalues --  -19.20398 -10.30433  -1.09436  -0.53188  -0.43716
  Beta  occ. eigenvalues --   -0.40618
  Beta virt. eigenvalues --   -0.26526  -0.04731  -0.01832   0.03544   0.05313
  Beta virt. eigenvalues --    0.06935   0.07636   0.18389   0.21102   0.21644
  Beta virt. eigenvalues --    0.27333   0.37299   0.52385   0.54516   0.62653

 Mulliken charges and spin densities:
               1          2
     1  C    0.089951   1.758744
     2  O   -0.089951   0.241256
 Sum of Mulliken charges =  -0.00000   2.00000

 Dipole moment (field-independent basis, Debye):
    X=              0.0000    Y=              0.0000    Z=             -1.5020  Tot=              1.5020
 Quadrupole moment (field-independent basis, Debye-Ang):
   XX=            -11.9443   YY=            -10.1564   ZZ=            -10.3805
   XY=              0.0000   XZ=              0.0000   YZ=              0.0000

  Exact polarizability:  14.457   0.000   9.421   0.000   0.000  18.977
 Approx polarizability:  12.105  -0.000  10.834  -0.000  -0.000  32.057

                      1
                     SG
 Frequencies --   1783.1219
 Red. masses --     13.4388
 Frc consts  --     25.1751
 IR Inten    --     22.3549

 - Thermochemistry -
 -------------------
 Temperature   298.150 Kelvin.  Pressure   1.00000 Atm.
 Atom     1 has atomic number  6 and mass  12.00000

 Molecular mass:    27.99491 amu.
 Principal axes and moments of inertia in atomic units:
                           1         2         3
     Eigenvalues --     0.00000  35.47071  35.47071
           X            0.00000  -0.00000   1.00000
           Y            0.00000   1.00000   0.00000
           Z            1.00000   0.00000   0.00000
 This molecule is a prolate symmetric top.
 Rotational symmetry number  1.
 Rotational temperature (Kelvin)      2.44184
 Rotational constant (GHZ):          50.879753
 Zero-point vibrational energy      10665.4 (Joules/Mol)
                                    2.54910 (Kcal/Mol)
 Vibrational temperatures:   2565.51
          (Kelvin)

 Zero-point correction=                           0.004062 (Hartree/Particle)
 Thermal correction to Energy=                    0.006424
 Thermal correction to Enthalpy=                  0.007368
 Thermal correction to Gibbs Free Energy=        -0.016220
 Sum of electronic and zero-point Energies=           -113.130124
 Sum of electronic and thermal Energies=              -113.127762
 Sum of electronic and thermal Enthalpies=            -113.126818
 Sum of electronic and thermal Free Energies=         -113.150406

                     E (Thermal)             CV                S
                      KCal/Mol        Cal/Mol-Kelvin    Cal/Mol-Kelvin
 Total                    4.031              4.995             49.645
 Electronic               0.000              0.000              2.183
 Translational            0.889              2.981             35.923
 Rotational               0.592              1.987             11.535
 Vibrational              2.550              0.027              0.003

 Optimization completed.
    -- Stationary point found.
 Normal termination of Gaussian 09 at Sun Mar  4 20:54:59 2018.
