 Gaussian 09, Revision D.01,
 Gaussian 09:  ES64L-G09RevD.01 24-Apr-2013

 ---------------------------
 #p b3lyp/6-311++g(d,p) freq
 ---------------------------

 ---
 min
 ---
 Symbolic Z-matrix:
 Charge =  0 Multiplicity = 1

                         Standard orientation:
 ---------------------------------------------------------------------
 Center     Atomic      Atomic             Coordinates (Angstroms)
 Number     Number       Type             X           Y           Z
 ---------------------------------------------------------------------
      1          6           0        0.000000    0.000000   -0.644392
      2          8           0        0.000000    0.000000    0.483294
 ---------------------------------------------------------------------

 SCF Done:  E(RB3LYP) =  -113.349050281     A.U. after    8 cycles

 The electronic state is 1-SG.
 Alpha  occ. eigenvalues --  -19.23871 -10.29709  -1.17868  -0.58659  -0.48684
 Alpha  occ. eigenvalues --   -0.48684  -0.38752
 Alpha virt. eigenvalues --   -0.04245  -0.04245   0.02749   0.05846   0.06919
 Alpha virt. eigenvalues --    0.06919   0.17481   0.20540   0.20540   0.25945
 Alpha virt. eigenvalues --    0.39249   0.52189   0.52189   0.64751   0.84780

 Mulliken charges:
               1
     1  C    0.010169
     2  O   -0.010169
 Sum of Mulliken charges =  -0.00000

 Dipole moment (field-independent basis, Debye):
    X=              0.0000    Y=              0.0000    Z=              0.0716  Tot=              0.0716
 Quadrupole moment (field-independent basis, Debye-Ang):
   XX=            -10.3100   YY=            -10.3100   ZZ=            -12.4862
   XY=              0.0000   XZ=              0.0000   YZ=              0.0000

  Exact polarizability:   9.967   0.000   9.967  -0.000   0.000  15.447
 Approx polarizability:  12.797  -0.000  12.797  -0.000  -0.000  24.864

                      1
                     SG
 Frequencies --   2211.7668
 Red. masses --     13.4388
 Frc consts  --     38.7336
 IR Inten    --     89.2271

 - Thermochemistry -
 -------------------
 Temperature   298.150 Kelvin.  Pressure   1.00000 Atm.
 Atom     1 has atomic number  6 and mass  12.00000

 Molecular mass:    27.99491 amu.
 Principal axes and moments of inertia in atomic units:
                           1         2         3
     Eigenvalues --     0.00000  31.13566  31.13566
           X            0.00000  -0.00000   1.00000
           Y            0.00000   1.00000   0.00000
           Z            1.00000   0.00000   0.00000
 This molecule is a prolate symmetric top.
 Rotational symmetry number  1.
 Rotational temperature (Kelvin)      2.78182
 Rotational constant (GHZ):          57.963793
 Zero-point vibrational energy      13229.3 (Joules/Mol)
                                    3.16188 (Kcal/Mol)
 Vibrational temperatures:   3182.24
          (Kelvin)

 Zero-point correction=                           0.005039 (Hartree/Particle)
 Thermal correction to Energy=                    0.007399
 Thermal correction to Enthalpy=                  0.008344
 Thermal correction to Gibbs Free Energy=        -0.014083
 Sum of electronic and zero-point Energies=           -113.344012
 Sum of electronic and thermal Energies=              -113.341651
 Sum of electronic and thermal Enthalpies=            -113.340707
 Sum of electronic and thermal Free Energies=         -113.363133

                     E (Thermal)             CV                S
                      KCal/Mol        Cal/Mol-Kelvin    Cal/Mol-Kelvin
 Total                    4.643              4.973             47.200
 Electronic               0.000              0.000              0.000
 Translational            0.889              2.981             35.923
 Rotational               0.592              1.987             11.276
 Vibrational              3.162              0.005              0.001

 Optimization completed.
    -- Stationary point found.

 1\1\ CITASK-GV0240\Freq\RB3LYP\6-311++G(d,p)\C1O1\EERD\04-Mar-2018\0\\
 #p b3lyp/6-311++g(d,p) freq\\min\\0,1\C,-0.77586,0.,0.\O,0.351826,0.,0
 .\\Version=ES64L-G09RevD.01\State=1-SG\HF=-113.3490503\RMSD=7.235e-09\
 RMSF=2.890e-06\ZeroPoint=0.0050388\Thermal=0.0073995\Dipole=0.0281536,
 0.,0.\DipoleDeriv=0.7921633,0.,0.,0.,-0.0131818,0.,0.,0.,-0.0131818,-0
 .7921633,0.,0.,0.,0.0131818,0.,0.,0.,0.0131818\Polar=15.4471238,0.,9.9
 674767,0.,0.,9.9674767\PG=C*V [C*(C1O1)]\NImag=0\\1.26927041,0.,0.0000
 6896,0.,0.,0.00006896,-1.26927041,0.,0.,1.26927041,0.,-0.00006896,0.,0

 Normal termination of Gaussian 09 at Sun Mar  4 20:54:57 2018.
