 Gaussian 09, Revision D.01,
 Gaussian 09:  ES64L-G09RevD.01 24-Apr-2013

 ---------------------------
 #p b3lyp/6-311++g(d,p) freq
 ---------------------------

 ---
 min
 ---
 Symbolic Z-matrix:
 Charge =  1 Multiplicity = 2

                         Standard orientation:
 ---------------------------------------------------------------------
 Center     Atomic      Atomic             Coordinates (Angstroms)
 Number     Number       Type             X           Y           Z
 ---------------------------------------------------------------------
      1          1           0        0.000000    0.000000    0.554306
      2          1           0        0.000000    0.000000   -0.554306
 ---------------------------------------------------------------------

 SCF Done:  E(UB3LYP) = -0.609495413580     A.U. after    5 cycles

 The electronic state is 2-SGG.
 Alpha  occ. eigenvalues --   -0.90048
 Alpha virt. eigenvalues --   -0.43848  -0.16410  -0.09561   0.08862   0.16067
 Alpha virt. eigenvalues --    0.59950   0.59950   0.79832   1.10166   1.10166
 Alpha virt. eigenvalues --    1.71967   1.97099   2.11124

 Mulliken charges and spin densities:
               1          2
     1  H    0.500000   0.500000
     2  H    0.500000   0.500000
 Sum of Mulliken charges =   1.00000   1.00000

 Dipole moment (field-independent basis, Debye):
    X=              0.0000    Y=             -0.0000    Z=              0.0000  Tot=              0.0000
 Quadrupole moment (field-independent basis, Debye-Ang):
   XX=             -0.8540   YY=             -0.8540   ZZ=              1.2153
   XY=             -0.0000   XZ=             -0.0000   YZ=              0.0000

  Exact polarizability:   0.664   0.000   0.664  -0.000   0.000   5.493
 Approx polarizability:   0.596  -0.000   0.596  -0.000  -0.000   5.525

                      1
                     SGG
 Frequencies --   2048.4590
 Red. masses --      1.0078
 Frc consts  --      2.4917
 IR Inten    --      0.0000

 - Thermochemistry -
 -------------------
 Temperature   298.150 Kelvin.  Pressure   1.00000 Atm.
 Atom     1 has atomic number  1 and mass   1.00783

 Molecular mass:     2.01565 amu.
 Principal axes and moments of inertia in atomic units:
                           1         2         3
     Eigenvalues --     0.00000   2.21163   2.21163
           X           -0.00000   1.00000  -0.00000
           Y            0.00000   0.00000   1.00000
           Z            1.00000   0.00000  -0.00000
 This molecule is a prolate symmetric top.
 Rotational symmetry number  2.
 Rotational temperature (Kelvin)     39.16293
 Rotational constant (GHZ):         816.023936
 Zero-point vibrational energy      12252.5 (Joules/Mol)
                                    2.92842 (Kcal/Mol)
 Vibrational temperatures:   2947.27
          (Kelvin)

 Zero-point correction=                           0.004667 (Hartree/Particle)
 Thermal correction to Energy=                    0.007028
 Thermal correction to Enthalpy=                  0.007972
 Thermal correction to Gibbs Free Energy=        -0.008231
 Sum of electronic and zero-point Energies=             -0.604829
 Sum of electronic and thermal Energies=                -0.602468
 Sum of electronic and thermal Enthalpies=              -0.601524
 Sum of electronic and thermal Free Energies=           -0.617727

                     E (Thermal)             CV                S
                      KCal/Mol        Cal/Mol-Kelvin    Cal/Mol-Kelvin
 Total                    4.410              4.978             34.102
 Electronic               0.000              0.000              1.377
 Translational            0.889              2.981             28.080
 Rotational               0.592              1.987              4.644
 Vibrational              2.929              0.010              0.001

 Optimization completed.
    -- Stationary point found.
 Normal termination of Gaussian 09 at Thu Jan 24 15:29:25 2019.
