 Gaussian 09, Revision D.01,
 Gaussian 09:  ES64L-G09RevD.01 24-Apr-2013

 ---------------------------
 #p b3lyp/6-311++g(d,p) freq
 ---------------------------

 ---
 min
 ---
 Symbolic Z-matrix:
 Charge =  0 Multiplicity = 1

                         Standard orientation:
 ---------------------------------------------------------------------
 Center     Atomic      Atomic             Coordinates (Angstroms)
 Number     Number       Type             X           Y           Z
 ---------------------------------------------------------------------
      1          1           0        0.000000    0.000000    0.372033
      2          1           0        0.000000    0.000000   -0.372033
 ---------------------------------------------------------------------

 SCF Done:  E(RB3LYP) =  -1.17957152832     A.U. after    5 cycles

 The electronic state is 1-SGG.
 Alpha  occ. eigenvalues --   -0.43393
 Alpha virt. eigenvalues --    0.02019   0.03178   0.14400   0.34511   0.56264
 Alpha virt. eigenvalues --    1.08465   1.08465   1.61120   1.82683   1.82683
 Alpha virt. eigenvalues --    2.04781   2.48634   3.31185

 Mulliken charges:
               1
     1  H   -0.000000
     2  H   -0.000000
 Sum of Mulliken charges =  -0.00000

 Dipole moment (field-independent basis, Debye):
    X=             -0.0000    Y=             -0.0000    Z=             -0.0000  Tot=              0.0000
 Quadrupole moment (field-independent basis, Debye-Ang):
   XX=             -2.1037   YY=             -2.1037   ZZ=             -1.5466
   XY=             -0.0000   XZ=             -0.0000   YZ=              0.0000

  Exact polarizability:   1.096   0.000   1.096  -0.000   0.000   6.910
 Approx polarizability:   1.162  -0.000   1.162  -0.000  -0.000   8.204

                      1
                     SGG
 Frequencies --   4419.3323
 Red. masses --      1.0078
 Frc consts  --     11.5971
 IR Inten    --      0.0000

 - Thermochemistry -
 -------------------
 Temperature   298.150 Kelvin.  Pressure   1.00000 Atm.
 Atom     1 has atomic number  1 and mass   1.00783

 Molecular mass:     2.01565 amu.
 Principal axes and moments of inertia in atomic units:
                           1         2         3
     Eigenvalues --     0.00000   0.99627   0.99627
           X           -0.00000   1.00000  -0.00000
           Y            0.00000   0.00000   1.00000
           Z            1.00000   0.00000  -0.00000
 This molecule is a prolate symmetric top.
 Rotational symmetry number  2.
 Rotational temperature (Kelvin)     86.93834
 Rotational constant (GHZ):        1811.503296
 Zero-point vibrational energy      26433.5 (Joules/Mol)
                                    6.31775 (Kcal/Mol)
 Vibrational temperatures:   6358.43
          (Kelvin)

 Zero-point correction=                           0.010068 (Hartree/Particle)
 Thermal correction to Energy=                    0.012428
 Thermal correction to Enthalpy=                  0.013373
 Thermal correction to Gibbs Free Energy=        -0.001423
 Sum of electronic and zero-point Energies=             -1.169504
 Sum of electronic and thermal Energies=                -1.167143
 Sum of electronic and thermal Enthalpies=              -1.166199
 Sum of electronic and thermal Free Energies=           -1.180994

                     E (Thermal)             CV                S
                      KCal/Mol        Cal/Mol-Kelvin    Cal/Mol-Kelvin
 Total                    7.799              4.968             31.139
 Electronic               0.000              0.000              0.000
 Translational            0.889              2.981             28.080
 Rotational               0.592              1.987              3.059
 Vibrational              6.318              0.000              0.000

 Optimization completed.
    -- Stationary point found.
 Normal termination of Gaussian 09 at Sun Mar  4 20:54:55 2018.
