 Gaussian 09, Revision D.01,
 Gaussian 09:  ES64L-G09RevD.01 24-Apr-2013

 ---------------------------
 #p b3lyp/6-311++g(d,p) freq
 ---------------------------

 ---
 min
 ---
 Symbolic Z-matrix:
 Charge =  0 Multiplicity = 3

                         Standard orientation:
 ---------------------------------------------------------------------
 Center     Atomic      Atomic             Coordinates (Angstroms)
 Number     Number       Type             X           Y           Z
 ---------------------------------------------------------------------
      1          6           0        0.000000    0.000000    0.102509
      2          1           0       -0.000000    0.998946   -0.307526
      3          1           0       -0.000000   -0.998946   -0.307526
 ---------------------------------------------------------------------

 SCF Done:  E(UB3LYP) =  -39.1661175374     A.U. after   10 cycles

 The electronic state is 3-B1.
 Alpha  occ. eigenvalues --  -10.21853  -0.68432  -0.46326  -0.28333  -0.24993
 Alpha virt. eigenvalues --   -0.00130   0.03160   0.06826   0.07084   0.10468
 Alpha virt. eigenvalues --    0.11314   0.13860   0.18783   0.41794   0.47993
 Alpha virt. eigenvalues --    0.52381   0.53168   0.64536   0.74390   1.00449

  Beta  occ. eigenvalues --  -10.18956  -0.60905  -0.44250
  Beta virt. eigenvalues --   -0.09525  -0.07222   0.00320   0.03163   0.08718
  Beta virt. eigenvalues --    0.09567   0.11484   0.11814   0.15290   0.19918
  Beta virt. eigenvalues --    0.43486   0.49921   0.59356   0.59679   0.66517

 Mulliken charges and spin densities:
               1          2
     1  C   -0.266442   2.074840
     2  H    0.133221  -0.037420
     3  H    0.133221  -0.037420
 Sum of Mulliken charges =  -0.00000   2.00000

 Dipole moment (field-independent basis, Debye):
    X=             -0.0000    Y=              0.0000    Z=             -0.6899  Tot=              0.6899
 Quadrupole moment (field-independent basis, Debye-Ang):
   XX=             -8.4422   YY=             -5.9118   ZZ=             -7.9206
   XY=              0.0000   XZ=              0.0000   YZ=             -0.0000

  Exact polarizability:  10.207  -0.000  13.430  -0.000   0.000   9.767
 Approx polarizability:  10.522   0.000  15.413   0.000  -0.000  10.525

                      1                      2                      3
                     A1                     A1                     B2
 Frequencies --   1040.1837              3119.1825              3363.2656
 Red. masses --      1.1375                 1.0260                 1.1390
 Frc consts  --      0.7252                 5.8814                 7.5906
 IR Inten    --     12.9005                 0.6904                 0.2841

 - Thermochemistry -
 -------------------
 Temperature   298.150 Kelvin.  Pressure   1.00000 Atm.
 Atom     1 has atomic number  6 and mass  12.00000

 Molecular mass:    14.01565 amu.
 Principal axes and moments of inertia in atomic units:
                           1         2         3
     Eigenvalues --     1.03615   7.18285   8.21900
           X           -0.00000   0.00000   1.00000
           Y            1.00000   0.00000   0.00000
           Z           -0.00000   1.00000  -0.00000
 This molecule is an asymmetric top.
 Rotational symmetry number  2.
 Rotational temperatures (Kelvin)     83.59235    12.05842    10.53825
 Rotational constants (GHZ):        1741.78407   251.25693   219.58169
 Zero-point vibrational energy      44995.3 (Joules/Mol)
                                   10.75414 (Kcal/Mol)
 Vibrational temperatures:   1496.59  4487.80  4838.98
          (Kelvin)

 Zero-point correction=                           0.017138 (Hartree/Particle)
 Thermal correction to Energy=                    0.020002
 Thermal correction to Enthalpy=                  0.020946
 Thermal correction to Gibbs Free Energy=        -0.001212
 Sum of electronic and zero-point Energies=            -39.148980
 Sum of electronic and thermal Energies=               -39.146116
 Sum of electronic and thermal Enthalpies=             -39.145171
 Sum of electronic and thermal Free Energies=          -39.167330

                     E (Thermal)             CV                S
                      KCal/Mol        Cal/Mol-Kelvin    Cal/Mol-Kelvin
 Total                   12.551              6.297             46.636
 Electronic               0.000              0.000              2.183
 Translational            0.889              2.981             33.861
 Rotational               0.889              2.981             10.513
 Vibrational             10.774              0.335              0.080

 Optimization completed.
    -- Stationary point found.
 Normal termination of Gaussian 09 at Sun Mar  4 20:55:25 2018.
