 Gaussian 09, Revision D.01,
 Gaussian 09:  ES64L-G09RevD.01 24-Apr-2013

 ---------------------------
 #p b3lyp/6-311++g(d,p) freq
 ---------------------------

 ---
 min
 ---
 Symbolic Z-matrix:
 Charge =  1 Multiplicity = 4

                         Standard orientation:
 ---------------------------------------------------------------------
 Center     Atomic      Atomic             Coordinates (Angstroms)
 Number     Number       Type             X           Y           Z
 ---------------------------------------------------------------------
      1          6           0        0.000000    0.000000    0.230261
      2          1           0        0.000000    0.775616   -0.690782
      3          1           0       -0.000000   -0.775616   -0.690782
 ---------------------------------------------------------------------

 SCF Done:  E(UB3LYP) =  -38.6403323262     A.U. after    9 cycles

 The electronic state is 4-A2.
 Alpha  occ. eigenvalues --  -10.66547  -1.09460  -0.78382  -0.73490  -0.62904
 Alpha virt. eigenvalues --   -0.26442  -0.25428  -0.12175  -0.11968  -0.11520
 Alpha virt. eigenvalues --   -0.08943  -0.04799  -0.04125   0.12779   0.21178
 Alpha virt. eigenvalues --    0.23517   0.24714   0.31169   0.41945   0.52123

  Beta  occ. eigenvalues --  -10.62210  -0.96933
  Beta virt. eigenvalues --   -0.59147  -0.48767  -0.40176  -0.22176  -0.17686
  Beta virt. eigenvalues --   -0.10856  -0.09414  -0.09338  -0.06298  -0.04023
  Beta virt. eigenvalues --   -0.02455   0.15601   0.25495   0.30189   0.30264

 Mulliken charges and spin densities:
               1          2
     1  C    0.266822   2.426179
     2  H    0.366589   0.286911
     3  H    0.366589   0.286911
 Sum of Mulliken charges =   1.00000   3.00000

 Dipole moment (field-independent basis, Debye):
    X=             -0.0000    Y=              0.0000    Z=             -1.8066  Tot=              1.8066
 Quadrupole moment (field-independent basis, Debye-Ang):
   XX=             -6.2277   YY=             -2.8593   ZZ=             -3.2783
   XY=              0.0000   XZ=              0.0000   YZ=             -0.0000

  Exact polarizability:   5.895  -0.000   9.951  -0.000  -0.000   8.771
 Approx polarizability:   6.419   0.000  13.118   0.000  -0.000  11.035

                      1                      2                      3
                     A1                     B2                     A1
 Frequencies --   1017.8936              1870.0369              2388.5790
 Red. masses --      1.0485                 1.0718                 1.1111
 Frc consts  --      0.6401                 2.2083                 3.7350
 IR Inten    --      4.8689               485.7613               139.5655

 - Thermochemistry -
 -------------------
 Temperature   298.150 Kelvin.  Pressure   1.00000 Atm.
 Atom     1 has atomic number  6 and mass  12.00000

 Molecular mass:    14.01565 amu.
 Principal axes and moments of inertia in atomic units:
                           1         2         3
     Eigenvalues --     4.33018   5.22805   9.55824
           X            0.00000   0.00000   1.00000
           Y            0.00000   1.00000  -0.00000
           Z            1.00000   0.00000   0.00000
 This molecule is an asymmetric top.
 Rotational symmetry number  2.
 Rotational temperatures (Kelvin)     20.00234    16.56713     9.06169
 Rotational constants (GHZ):         416.78161   345.20329   188.81527
 Zero-point vibrational energy      31560.5 (Joules/Mol)
                                    7.54315 (Kcal/Mol)
 Vibrational temperatures:   1464.52  2690.56  3436.63
          (Kelvin)

 Zero-point correction=                           0.012021 (Hartree/Particle)
 Thermal correction to Energy=                    0.014889
 Thermal correction to Enthalpy=                  0.015833
 Thermal correction to Gibbs Free Energy=        -0.007198
 Sum of electronic and zero-point Energies=            -38.628312
 Sum of electronic and thermal Energies=               -38.625443
 Sum of electronic and thermal Enthalpies=             -38.624499
 Sum of electronic and thermal Free Energies=          -38.647531

                     E (Thermal)             CV                S
                      KCal/Mol        Cal/Mol-Kelvin    Cal/Mol-Kelvin
 Total                    9.343              6.342             48.473
 Electronic               0.000              0.000              2.755
 Translational            0.889              2.981             33.861
 Rotational               0.889              2.981             11.768
 Vibrational              7.565              0.380              0.090

 Optimization completed.
    -- Stationary point found.
 Normal termination of Gaussian 09 at Thu Jan 24 15:32:03 2019.
