 Gaussian 09, Revision D.01,
 Gaussian 09:  ES64L-G09RevD.01 24-Apr-2013

 ---------------------------
 #p b3lyp/6-311++g(d,p) freq
 ---------------------------

 ---
 min
 ---
 Symbolic Z-matrix:
 Charge =  0 Multiplicity = 3

                         Standard orientation:
 ---------------------------------------------------------------------
 Center     Atomic      Atomic             Coordinates (Angstroms)
 Number     Number       Type             X           Y           Z
 ---------------------------------------------------------------------
      1          6           0       -0.000000    0.000000    0.308905
      2          1           0        0.000000    0.453692   -0.926715
      3          1           0       -0.000000   -0.453692   -0.926715
 ---------------------------------------------------------------------

 SCF Done:  E(UB3LYP) =  -39.0485591166     A.U. after   10 cycles

 The electronic state is 3-A2.
 Alpha  occ. eigenvalues --  -10.25536  -0.73840  -0.38297  -0.29853  -0.25329
 Alpha virt. eigenvalues --   -0.03847   0.02305   0.05808   0.06919   0.07387
 Alpha virt. eigenvalues --    0.07795   0.11102   0.13083   0.34108   0.41725
 Alpha virt. eigenvalues --    0.51893   0.54082   0.58574   0.70306   0.90262

  Beta  occ. eigenvalues --  -10.23111  -0.67189  -0.32961
  Beta virt. eigenvalues --   -0.14682  -0.08147  -0.02695   0.04288   0.07081
  Beta virt. eigenvalues --    0.08012   0.08828   0.09102   0.11785   0.16032
  Beta virt. eigenvalues --    0.35520   0.43903   0.55399   0.58260   0.63483

 Mulliken charges and spin densities:
               1          2
     1  C   -0.276523   1.735451
     2  H    0.138261   0.132274
     3  H    0.138261   0.132274
 Sum of Mulliken charges =  -0.00000   2.00000

 Dipole moment (field-independent basis, Debye):
    X=             -0.0000    Y=              0.0000    Z=             -2.4532  Tot=              2.4532
 Quadrupole moment (field-independent basis, Debye-Ang):
   XX=             -9.0746   YY=             -8.0130   ZZ=             -7.4813
   XY=              0.0000   XZ=              0.0000   YZ=             -0.0000

  Exact polarizability:  12.937   0.000  15.170  -0.000   0.000  22.254
 Approx polarizability:  12.689   0.000  17.910   0.000  -0.000  31.536

                      1                      2                      3
                     A1                     B2                     A1
 Frequencies --    906.1378              1458.0370              2645.1729
 Red. masses --      1.1387                 1.0262                 1.0250
 Frc consts  --      0.5509                 1.2854                 4.2256
 IR Inten    --     88.8161                 0.0449                62.6271

 - Thermochemistry -
 -------------------
 Temperature   298.150 Kelvin.  Pressure   1.00000 Atm.
 Atom     1 has atomic number  6 and mass  12.00000

 Molecular mass:    14.01565 amu.
 Principal axes and moments of inertia in atomic units:
                           1         2         3
     Eigenvalues --     1.48161   9.40916  10.89078
           X            0.00000   0.00000   1.00000
           Y           -0.00000   1.00000  -0.00000
           Z            1.00000   0.00000  -0.00000
 This molecule is an asymmetric top.
 Rotational symmetry number  2.
 Rotational temperatures (Kelvin)     58.45916     9.20526     7.95295
 Rotational constants (GHZ):        1218.09264   191.80674   165.71280
 Zero-point vibrational energy      29962.6 (Joules/Mol)
                                    7.16122 (Kcal/Mol)
 Vibrational temperatures:   1303.73  2097.79  3805.81
          (Kelvin)

 Zero-point correction=                           0.011412 (Hartree/Particle)
 Thermal correction to Energy=                    0.014303
 Thermal correction to Enthalpy=                  0.015248
 Thermal correction to Gibbs Free Energy=        -0.007374
 Sum of electronic and zero-point Energies=            -39.037147
 Sum of electronic and thermal Energies=               -39.034256
 Sum of electronic and thermal Enthalpies=             -39.033312
 Sum of electronic and thermal Free Energies=          -39.055933

                     E (Thermal)             CV                S
                      KCal/Mol        Cal/Mol-Kelvin    Cal/Mol-Kelvin
 Total                    8.975              6.541             47.610
 Electronic               0.000              0.000              2.183
 Translational            0.889              2.981             33.861
 Rotational               0.889              2.981             11.416
 Vibrational              7.198              0.579              0.150

 Optimization completed.
    -- Stationary point found.
 Normal termination of Gaussian 09 at Sun Mar  4 20:55:25 2018.
