 Gaussian 09, Revision D.01,
 Gaussian 09:  ES64L-G09RevD.01 24-Apr-2013

 ---------------------------
 #p b3lyp/6-311++g(d,p) freq
 ---------------------------

 ---
 min
 ---
 Symbolic Z-matrix:
 Charge =  0 Multiplicity = 1

                         Standard orientation:
 ---------------------------------------------------------------------
 Center     Atomic      Atomic             Coordinates (Angstroms)
 Number     Number       Type             X           Y           Z
 ---------------------------------------------------------------------
      1          6           0        0.000000   -0.000000    0.176197
      2          1           0       -0.000000    0.862374   -0.528591
      3          1           0       -0.000000   -0.862374   -0.528591
 ---------------------------------------------------------------------

 SCF Done:  E(RB3LYP) =  -39.1467444417     A.U. after    8 cycles

 The electronic state is 1-A1.
 Alpha  occ. eigenvalues --  -10.24762  -0.67855  -0.41689  -0.26104
 Alpha virt. eigenvalues --   -0.14241  -0.00803   0.03208   0.07427   0.07831
 Alpha virt. eigenvalues --    0.09858   0.12186   0.16101   0.17183   0.40667
 Alpha virt. eigenvalues --    0.48499   0.54224   0.58198   0.63381   0.74349

 Mulliken charges:
               1
     1  C   -0.218541
     2  H    0.109270
     3  H    0.109270
 Sum of Mulliken charges =   0.00000

 Dipole moment (field-independent basis, Debye):
    X=             -0.0000    Y=             -0.0000    Z=             -2.0615  Tot=              2.0615
 Quadrupole moment (field-independent basis, Debye-Ang):
   XX=             -6.4731   YY=             -7.3184   ZZ=             -9.8990
   XY=              0.0000   XZ=              0.0000   YZ=              0.0000

  Exact polarizability:   9.905  -0.000  16.666  -0.000  -0.000  15.065
 Approx polarizability:  13.970   0.000  19.915   0.000   0.000  16.015

                      1                      2                      3
                     A1                     A1                     B2
 Frequencies --   1385.8433              2894.8845              2960.0117
 Red. masses --      1.1016                 1.0571                 1.1000
 Frc consts  --      1.2465                 5.2196                 5.6785
 IR Inten    --      1.0343               101.0179                86.8338

 - Thermochemistry -
 -------------------
 Temperature   298.150 Kelvin.  Pressure   1.00000 Atm.
 Atom     1 has atomic number  6 and mass  12.00000

 Molecular mass:    14.01565 amu.
 Principal axes and moments of inertia in atomic units:
                           1         2         3
     Eigenvalues --     3.06125   5.35309   8.41434
           X            0.00000   0.00000   1.00000
           Y            1.00000  -0.00000  -0.00000
           Z            0.00000   1.00000  -0.00000
 This molecule is an asymmetric top.
 Rotational symmetry number  2.
 Rotational temperatures (Kelvin)     28.29362    16.18016    10.29360
 Rotational constants (GHZ):         589.54401   337.14032   214.48410
 Zero-point vibrational energy      43309.2 (Joules/Mol)
                                   10.35116 (Kcal/Mol)
 Vibrational temperatures:   1993.92  4165.09  4258.79
          (Kelvin)

 Zero-point correction=                           0.016496 (Hartree/Particle)
 Thermal correction to Energy=                    0.019336
 Thermal correction to Enthalpy=                  0.020280
 Thermal correction to Gibbs Free Energy=        -0.001196
 Sum of electronic and zero-point Energies=            -39.130249
 Sum of electronic and thermal Energies=               -39.127408
 Sum of electronic and thermal Enthalpies=             -39.126464
 Sum of electronic and thermal Free Energies=          -39.147940

                     E (Thermal)             CV                S
                      KCal/Mol        Cal/Mol-Kelvin    Cal/Mol-Kelvin
 Total                   12.134              6.073             45.200
 Electronic               0.000              0.000              0.000
 Translational            0.889              2.981             33.861
 Rotational               0.889              2.981             11.320
 Vibrational             10.356              0.112              0.019

 Optimization completed.
    -- Stationary point found.

 1\1\ CITASK-GV0905\Freq\RB3LYP\6-311++G(d,p)\C1H2\EERD\04-Mar-2018\0\\
 #p b3lyp/6-311++g(d,p) freq\\min\\0,1\C,-0.734003,-0.103168,0.\H,-0.75
 5696583,1.010360384,0.\H,-1.820919417,-0.3461263836,0.\\Version=ES64L-
 G09RevD.01\State=1-A1\HF=-39.1467444\RMSD=1.817e-09\RMSF=4.794e-05\Zer
 oPoint=0.0164956\Thermal=0.0193361\Dipole=-0.6378694,0.5009065,0.\Dipo
 leDeriv=0.2116842,-0.0946494,0.,-0.0946494,0.1654812,0.,0.,0.,-0.60869
 82,0.1156573,0.1594921,0.,0.0432821,-0.3042401,0.,0.,0.,0.3043491,-0.3
 273416,-0.0648427,0.,0.0513673,0.1387589,0.,0.,0.,0.3043491\Polar=15.6

 Normal termination of Gaussian 09 at Sun Mar  4 20:55:23 2018.
