 Gaussian 09, Revision D.01,
 Gaussian 09:  ES64L-G09RevD.01 24-Apr-2013

 ---------------------------
 #p b3lyp/6-311++g(d,p) freq
 ---------------------------

 ---
 min
 ---
 Symbolic Z-matrix:
 Charge =  1 Multiplicity = 2

                         Standard orientation:
 ---------------------------------------------------------------------
 Center     Atomic      Atomic             Coordinates (Angstroms)
 Number     Number       Type             X           Y           Z
 ---------------------------------------------------------------------
      1          6           0       -0.000000    0.000000    0.090571
      2          1           0       -0.000000    1.037620   -0.271713
      3          1           0       -0.000000   -1.037620   -0.271713
 ---------------------------------------------------------------------

 SCF Done:  E(UB3LYP) =  -38.7830010256     A.U. after    9 cycles

 The electronic state is 2-A1.
 Alpha  occ. eigenvalues --  -10.69353  -1.05673  -0.84275  -0.66346
 Alpha virt. eigenvalues --   -0.51446  -0.23088  -0.16026  -0.14416  -0.11715
 Alpha virt. eigenvalues --   -0.11046  -0.07275  -0.04226  -0.02634   0.15188
 Alpha virt. eigenvalues --    0.23341   0.23586   0.24620   0.33690   0.44323

  Beta  occ. eigenvalues --  -10.67557  -1.01261  -0.82952
  Beta virt. eigenvalues --   -0.48987  -0.46025  -0.22118  -0.15552  -0.14025
  Beta virt. eigenvalues --   -0.10786  -0.10092  -0.06675  -0.03922  -0.02233
  Beta virt. eigenvalues --    0.15694   0.24826   0.25541   0.28269   0.34507

 Mulliken charges and spin densities:
               1          2
     1  C    0.433269   1.010777
     2  H    0.283366  -0.005388
     3  H    0.283366  -0.005388
 Sum of Mulliken charges =   1.00000   1.00000

 Dipole moment (field-independent basis, Debye):
    X=             -0.0000    Y=             -0.0000    Z=             -0.5440  Tot=              0.5440
 Quadrupole moment (field-independent basis, Debye-Ang):
   XX=             -4.3702   YY=             -2.2168   ZZ=             -5.5831
   XY=              0.0000   XZ=              0.0000   YZ=              0.0000

  Exact polarizability:   5.819  -0.000   9.320   0.000   0.000   6.119
 Approx polarizability:   7.145   0.000  10.822   0.000  -0.000   6.780

                      1                      2                      3
                     A1                     A1                     B2
 Frequencies --    909.5907              2973.9061              3230.2679
 Red. masses --      1.1417                 1.0226                 1.1443
 Frc consts  --      0.5565                 5.3287                 7.0352
 IR Inten    --     46.1690                27.4429               178.7023

 - Thermochemistry -
 -------------------
 Temperature   298.150 Kelvin.  Pressure   1.00000 Atm.
 Atom     1 has atomic number  6 and mass  12.00000

 Molecular mass:    14.01565 amu.
 Principal axes and moments of inertia in atomic units:
                           1         2         3
     Eigenvalues --     0.80887   7.74979   8.55866
           X           -0.00000   0.00000   1.00000
           Y            1.00000  -0.00000   0.00000
           Z            0.00000   1.00000  -0.00000
 This molecule is an asymmetric top.
 Rotational symmetry number  2.
 Rotational temperatures (Kelvin)    107.07994    11.17628    10.12002
 Rotational constants (GHZ):        2231.18654   232.87620   210.86730
 Zero-point vibrational energy      42549.8 (Joules/Mol)
                                   10.16964 (Kcal/Mol)
 Vibrational temperatures:   1308.70  4278.78  4647.63
          (Kelvin)

 Zero-point correction=                           0.016206 (Hartree/Particle)
 Thermal correction to Energy=                    0.019091
 Thermal correction to Enthalpy=                  0.020035
 Thermal correction to Gibbs Free Energy=        -0.001705
 Sum of electronic and zero-point Energies=            -38.766795
 Sum of electronic and thermal Energies=               -38.763910
 Sum of electronic and thermal Enthalpies=             -38.762966
 Sum of electronic and thermal Free Energies=          -38.784706

                     E (Thermal)             CV                S
                      KCal/Mol        Cal/Mol-Kelvin    Cal/Mol-Kelvin
 Total                   11.980              6.449             45.755
 Electronic               0.000              0.000              1.377
 Translational            0.889              2.981             33.861
 Rotational               0.889              2.981             10.382
 Vibrational             10.202              0.487              0.134

 Optimization completed.
    -- Stationary point found.
 Normal termination of Gaussian 09 at Thu Jan 24 15:32:03 2019.
