 Gaussian 09, Revision D.01,
 Gaussian 09:  ES64L-G09RevD.01 24-Apr-2013

 ---------------------------
 #p b3lyp/6-311++g(d,p) freq
 ---------------------------

 ---
 min
 ---
 Symbolic Z-matrix:
 Charge =  1 Multiplicity = 4

                         Standard orientation:
 ---------------------------------------------------------------------
 Center     Atomic      Atomic             Coordinates (Angstroms)
 Number     Number       Type             X           Y           Z
 ---------------------------------------------------------------------
      1          6           0       -0.000000    0.713736   -0.000000
      2          6           0        0.000000   -0.713736   -0.000000
      3          1           0        0.811840    1.445197   -0.000000
      4          1           0       -0.811840   -1.445197   -0.000000
 ---------------------------------------------------------------------

 SCF Done:  E(UB3LYP) =  -76.8136711073     A.U. after    9 cycles

 The electronic state is 4-BG.
 Alpha  occ. eigenvalues --  -10.60134 -10.60086  -1.12231  -0.90510  -0.77836
 Alpha  occ. eigenvalues --   -0.70519  -0.65284  -0.53543
 Alpha virt. eigenvalues --   -0.38360  -0.18510  -0.17162  -0.11864  -0.11275
 Alpha virt. eigenvalues --   -0.10148  -0.07620  -0.06775  -0.05296  -0.03109
 Alpha virt. eigenvalues --   -0.02116  -0.00470  -0.00408   0.03780   0.22665

  Beta  occ. eigenvalues --  -10.57574 -10.57537  -1.03948  -0.85834  -0.75167
  Beta virt. eigenvalues --   -0.49310  -0.48370  -0.32377  -0.28826  -0.16656
  Beta virt. eigenvalues --   -0.16396  -0.10223  -0.10158  -0.09350  -0.06209
  Beta virt. eigenvalues --   -0.04734  -0.04316  -0.02608  -0.00920   0.00321

 Mulliken charges and spin densities:
               1          2
     1  C    0.241587   1.502151
     2  C    0.241587   1.502151
     3  H    0.258413  -0.002151
     4  H    0.258413  -0.002151
 Sum of Mulliken charges =   1.00000   3.00000

 Dipole moment (field-independent basis, Debye):
    X=              0.0000    Y=             -0.0000    Z=             -0.0000  Tot=              0.0000
 Quadrupole moment (field-independent basis, Debye-Ang):
   XX=             -9.0726   YY=             -4.8091   ZZ=             -9.9002
   XY=              3.1076   XZ=              0.0000   YZ=              0.0000

  Exact polarizability:  12.208   3.126  24.585   0.000  -0.000   9.842
 Approx polarizability:  14.366   3.096  31.880   0.000   0.000  12.998

                      1                      2                      3
                     BU                     AU                     AG
 Frequencies --    718.5387               801.3712              1030.3826
 Red. masses --      1.0848                 1.0848                 1.3519
 Frc consts  --      0.3300                 0.4105                 0.8457
 IR Inten    --     48.7902                17.4726                 0.0000

                      4                      5                      6
                     AG                     BU                     AG
 Frequencies --   1341.8774              3131.8454              3139.6130
 Red. masses --      7.2194                 1.0848                 1.1034
 Frc consts  --      7.6591                 6.2691                 6.4085
 IR Inten    --      0.0000               152.2779                 0.0000

 - Thermochemistry -
 -------------------
 Temperature   298.150 Kelvin.  Pressure   1.00000 Atm.
 Atom     1 has atomic number  6 and mass  12.00000

 Molecular mass:    26.01565 amu.
 Principal axes and moments of inertia in atomic units:
                           1         2         3
     Eigenvalues --     3.45300  59.98493  63.43792
           X            0.15112   0.98851   0.00000
           Y            0.98851  -0.15112   0.00000
           Z            0.00000   0.00000   1.00000
 This molecule is an asymmetric top.
 Rotational symmetry number  2.
 Rotational temperatures (Kelvin)     25.08367     1.44393     1.36533
 Rotational constants (GHZ):         522.65950    30.08658    28.44893
 Zero-point vibrational energy      60792.0 (Joules/Mol)
                                   14.52964 (Kcal/Mol)
 Vibrational temperatures:   1033.82  1152.99  1482.49  1930.66  4506.02
          (Kelvin)           4517.20

 Zero-point correction=                           0.023154 (Hartree/Particle)
 Thermal correction to Energy=                    0.026213
 Thermal correction to Enthalpy=                  0.027157
 Thermal correction to Gibbs Free Energy=         0.001070
 Sum of electronic and zero-point Energies=            -76.790517
 Sum of electronic and thermal Energies=               -76.787458
 Sum of electronic and thermal Enthalpies=             -76.786514
 Sum of electronic and thermal Free Energies=          -76.812601

                     E (Thermal)             CV                S
                      KCal/Mol        Cal/Mol-Kelvin    Cal/Mol-Kelvin
 Total                   16.449              7.878             54.904
 Electronic               0.000              0.000              2.755
 Translational            0.889              2.981             35.704
 Rotational               0.889              2.981             15.848
 Vibrational             14.671              1.917              0.597

 Optimization completed.
    -- Stationary point found.
 Normal termination of Gaussian 09 at Thu Jan 24 15:34:14 2019.
