 Gaussian 09, Revision D.01,
 Gaussian 09:  ES64L-G09RevD.01 24-Apr-2013

 ---------------------------
 #p b3lyp/6-311++g(d,p) freq
 ---------------------------

 ---
 min
 ---
 Symbolic Z-matrix:
 Charge =  0 Multiplicity = 1

                         Standard orientation:
 ---------------------------------------------------------------------
 Center     Atomic      Atomic             Coordinates (Angstroms)
 Number     Number       Type             X           Y           Z
 ---------------------------------------------------------------------
      1          6           0        1.321745    0.014236   -0.000029
      2          6           0        0.122432   -0.005332    0.000025
      3          1           0        2.382173    0.039718    0.000067
      4          1           0       -1.590762    0.767538   -0.000005
      5          8           0       -1.182059   -0.107585   -0.000005
 ---------------------------------------------------------------------

 SCF Done:  E(RB3LYP) =  -152.592576050     A.U. after   11 cycles

 The electronic state is 1-A.
 Alpha  occ. eigenvalues --  -19.20659 -10.23287 -10.16513  -1.11640  -0.75667
 Alpha  occ. eigenvalues --   -0.63737  -0.52449  -0.47646  -0.43628  -0.28313
 Alpha  occ. eigenvalues --   -0.26240
 Alpha virt. eigenvalues --   -0.02889   0.01197   0.03506   0.05013   0.05777
 Alpha virt. eigenvalues --    0.07066   0.07336   0.09013   0.10607   0.12581
 Alpha virt. eigenvalues --    0.12602   0.16198   0.17528   0.19704   0.24154

 Mulliken charges:
               1
     1  C   -0.170182
     2  C    0.036671
     3  H    0.152803
     4  H    0.296136
     5  O   -0.315428
 Sum of Mulliken charges =  -0.00000

 Dipole moment (field-independent basis, Debye):
    X=             -0.6821    Y=              1.6437    Z=              0.0001  Tot=              1.7796
 Quadrupole moment (field-independent basis, Debye-Ang):
   XX=            -12.7223   YY=            -17.2971   ZZ=            -19.0625
   XY=             -3.0030   XZ=              0.0003   YZ=             -0.0000

  Exact polarizability:  40.771  -0.682  16.916  -0.001   0.000  16.413
 Approx polarizability:  68.199  -0.349  21.030  -0.003  -0.000  19.441

                      1                      2                      3
                      A                      A                      A
 Frequencies --    395.5425               443.9812               553.6248
 Red. masses --      5.0674                 9.8409                 1.1580
 Frc consts  --      0.4671                 1.1429                 0.2091
 IR Inten    --     13.4250                 3.6470                75.4986

                      4                      5                      6
                      A                      A                      A
 Frequencies --    651.2914              1084.6606              1242.6425
 Red. masses --      1.1846                 9.4207                 1.1769
 Frc consts  --      0.2961                 6.5301                 1.0707
 IR Inten    --     55.8865               100.0660                85.1169

                      7                      8                      9
                      A                      A                      A
 Frequencies --   2278.4261              3492.8055              3784.1596
 Red. masses --      6.1056                 1.1614                 1.0662
 Frc consts  --     18.6746                 8.3478                 8.9958
 IR Inten    --    163.2683               102.7103               119.3552

 - Thermochemistry -
 -------------------
 Temperature   298.150 Kelvin.  Pressure   1.00000 Atm.
 Atom     1 has atomic number  6 and mass  12.00000

 Molecular mass:    42.01056 amu.
 Principal axes and moments of inertia in atomic units:
                           1         2         3
     Eigenvalues --     2.65744 184.88102 187.53846
           X            0.99977  -0.02160   0.00000
           Y            0.02160   0.99977  -0.00000
           Z           -0.00000   0.00000   1.00000
 This molecule is an asymmetric top.
 Rotational symmetry number  1.
 Rotational temperatures (Kelvin)     32.59293     0.46848     0.46185
 Rotational constants (GHZ):         679.12732     9.76164     9.62331
 Zero-point vibrational energy      83302.8 (Joules/Mol)
                                   19.90984 (Kcal/Mol)
 Warning -- explicit consideration of   3 degrees of freedom as
           vibrations may cause significant error
 Vibrational temperatures:    569.10   638.79   796.54   937.06  1560.58
          (Kelvin)           1787.88  3278.14  5025.36  5444.55

 Zero-point correction=                           0.031728 (Hartree/Particle)
 Thermal correction to Energy=                    0.035506
 Thermal correction to Enthalpy=                  0.036450
 Thermal correction to Gibbs Free Energy=         0.008372
 Sum of electronic and zero-point Energies=           -152.560848
 Sum of electronic and thermal Energies=              -152.557070
 Sum of electronic and thermal Enthalpies=            -152.556126
 Sum of electronic and thermal Free Energies=         -152.584204

                     E (Thermal)             CV                S
                      KCal/Mol        Cal/Mol-Kelvin    Cal/Mol-Kelvin
 Total                   22.280             11.349             59.095
 Electronic               0.000              0.000              0.000
 Translational            0.889              2.981             37.133
 Rotational               0.889              2.981             19.161
 Vibrational             20.503              5.387              2.801
 Vibration     1          0.762              1.480              0.979
 Vibration     2          0.803              1.374              0.814
 Vibration     3          0.909              1.132              0.537

 Optimization completed.
    -- Stationary point found.
 Normal termination of Gaussian 09 at Sun Mar  4 21:13:33 2018.
