 Gaussian 09, Revision D.01,
 Gaussian 09:  ES64L-G09RevD.01 24-Apr-2013

 ---------------------------
 #p b3lyp/6-311++g(d,p) freq
 ---------------------------

 ---
 min
 ---
 Symbolic Z-matrix:
 Charge =  1 Multiplicity = 2

                         Standard orientation:
 ---------------------------------------------------------------------
 Center     Atomic      Atomic             Coordinates (Angstroms)
 Number     Number       Type             X           Y           Z
 ---------------------------------------------------------------------
      1          6           0        0.024797    0.840152    0.000000
      2          6           0        0.024797   -0.497359   -0.000000
      3          1           0       -0.148781   -1.028379    0.953046
      4          1           0       -0.148781   -1.028379   -0.953046
 ---------------------------------------------------------------------

 SCF Done:  E(UB3LYP) =  -76.8725442253     A.U. after   18 cycles

 The electronic state is 2-A'.
 Alpha  occ. eigenvalues --  -10.64393 -10.56018  -1.14632  -0.87475  -0.78795
 Alpha  occ. eigenvalues --   -0.68440  -0.64448
 Alpha virt. eigenvalues --   -0.44195  -0.34953  -0.19201  -0.14876  -0.13305
 Alpha virt. eigenvalues --   -0.11619  -0.09599  -0.07276  -0.06095  -0.04680
 Alpha virt. eigenvalues --   -0.03187  -0.02028  -0.01182   0.00494   0.06268

  Beta  occ. eigenvalues --  -10.63295 -10.55325  -1.11348  -0.85480  -0.78240
  Beta  occ. eigenvalues --   -0.63008
  Beta virt. eigenvalues --   -0.52212  -0.42638  -0.30096  -0.18773  -0.14741
  Beta virt. eigenvalues --   -0.12902  -0.11022  -0.09336  -0.06873  -0.05937
  Beta virt. eigenvalues --   -0.04192  -0.02953  -0.01928  -0.01018   0.00916

 Mulliken charges and spin densities:
               1          2
     1  C    0.567575   0.558518
     2  C   -0.151671   0.475212
     3  H    0.292048  -0.016865
     4  H    0.292048  -0.016865
 Sum of Mulliken charges =   1.00000   1.00000

 Dipole moment (field-independent basis, Debye):
    X=              0.3146    Y=             -1.4489    Z=             -0.0000  Tot=              1.4826
 Quadrupole moment (field-independent basis, Debye-Ang):
   XX=            -10.6256   YY=             -7.1218   ZZ=             -7.3068
   XY=              1.1010   XZ=              0.0000   YZ=              0.0000

  Exact polarizability:  11.284   1.837  37.085  -0.000  -0.000  14.825
 Approx polarizability:  14.536  -1.437  49.282  -0.000   0.000  20.699

                      1                      2                      3
                     A"                     A'                     A'
 Frequencies --    479.3368               737.7791               969.7593
 Red. masses --      1.3138                 1.7332                 1.9877
 Frc consts  --      0.1778                 0.5558                 1.1013
 IR Inten    --      3.5082               356.1661               261.2654

                      4                      5                      6
                     A'                     A'                     A"
 Frequencies --   1285.0379              2965.5749              3048.8588
 Red. masses --      1.3981                 1.0485                 1.1096
 Frc consts  --      1.3603                 5.4330                 6.0770
 IR Inten    --      2.0122               140.0186               187.1837

 - Thermochemistry -
 -------------------
 Temperature   298.150 Kelvin.  Pressure   1.00000 Atm.
 Atom     1 has atomic number  6 and mass  12.00000

 Molecular mass:    26.01565 amu.
 Principal axes and moments of inertia in atomic units:
                           1         2         3
     Eigenvalues --     6.69794  48.08895  54.46689
           X            0.02896   0.00000   0.99958
           Y            0.99958  -0.00000  -0.02896
           Z            0.00000   1.00000  -0.00000
 This molecule is an asymmetric top.
 Rotational symmetry number  1.
 Rotational temperatures (Kelvin)     12.93141     1.80112     1.59021
 Rotational constants (GHZ):         269.44710    37.52923    33.13465
 Zero-point vibrational energy      56741.0 (Joules/Mol)
                                   13.56141 (Kcal/Mol)
 Warning -- explicit consideration of   1 degrees of freedom as
           vibrations may cause significant error
 Vibrational temperatures:    689.66  1061.50  1395.27  1848.88  4266.80
          (Kelvin)           4386.62

 Zero-point correction=                           0.021611 (Hartree/Particle)
 Thermal correction to Energy=                    0.024836
 Thermal correction to Enthalpy=                  0.025780
 Thermal correction to Gibbs Free Energy=        -0.000688
 Sum of electronic and zero-point Energies=            -76.850933
 Sum of electronic and thermal Energies=               -76.847709
 Sum of electronic and thermal Enthalpies=             -76.846764
 Sum of electronic and thermal Free Energies=          -76.873232

                     E (Thermal)             CV                S
                      KCal/Mol        Cal/Mol-Kelvin    Cal/Mol-Kelvin
 Total                   15.585              8.584             55.706
 Electronic               0.000              0.000              1.377
 Translational            0.889              2.981             35.704
 Rotational               0.889              2.981             17.513
 Vibrational             13.807              2.622              1.111
 Vibration     1          0.836              1.296              0.712

 Optimization completed.
    -- Stationary point found.
 Normal termination of Gaussian 09 at Thu Jan 24 15:34:19 2019.
