 Gaussian 09, Revision D.01,
 Gaussian 09:  ES64L-G09RevD.01 24-Apr-2013

 ---------------------------
 #p b3lyp/6-311++g(d,p) freq
 ---------------------------

 ---
 min
 ---
 Symbolic Z-matrix:
 Charge =  1 Multiplicity = 2

                         Standard orientation:
 ---------------------------------------------------------------------
 Center     Atomic      Atomic             Coordinates (Angstroms)
 Number     Number       Type             X           Y           Z
 ---------------------------------------------------------------------
      1          6           0        0.139796   -0.000408    0.000032
      2          8           0        1.264242    0.000154    0.000001
      3          6           0       -1.237986    0.000112   -0.000129
      4          1           0       -1.762699   -0.954185    0.000284
      5          1           0       -1.762092    0.954731    0.000284
 ---------------------------------------------------------------------

 SCF Done:  E(UB3LYP) =  -152.296265283     A.U. after   12 cycles

 The electronic state is 2-A.
 Alpha  occ. eigenvalues --  -19.53657 -10.62824 -10.54487  -1.47104  -1.10880
 Alpha  occ. eigenvalues --   -0.85405  -0.80639  -0.80150  -0.79199  -0.72690
 Alpha  occ. eigenvalues --   -0.59041
 Alpha virt. eigenvalues --   -0.33381  -0.27431  -0.21194  -0.13872  -0.13596
 Alpha virt. eigenvalues --   -0.11483  -0.10679  -0.07686  -0.07449  -0.06507
 Alpha virt. eigenvalues --   -0.05781  -0.01750  -0.01291   0.01590   0.04083

  Beta  occ. eigenvalues --  -19.52970 -10.62890 -10.53299  -1.46001  -1.07628
  Beta  occ. eigenvalues --   -0.84229  -0.79585  -0.79544  -0.75936  -0.71944
  Beta virt. eigenvalues --   -0.45379  -0.33200  -0.23140  -0.20548  -0.13618
  Beta virt. eigenvalues --   -0.13466  -0.10681  -0.10375  -0.07440  -0.06420
  Beta virt. eigenvalues --   -0.06259  -0.05296  -0.01496  -0.01167   0.01801

 Mulliken charges and spin densities:
               1          2
     1  C    0.423609  -0.018664
     2  O    0.066335   0.247457
     3  C   -0.021663   0.847233
     4  H    0.265811  -0.038017
     5  H    0.265908  -0.038009
 Sum of Mulliken charges =   1.00000   1.00000

 Dipole moment (field-independent basis, Debye):
    X=             -3.3321    Y=             -0.0006    Z=              0.0006  Tot=              3.3321
 Quadrupole moment (field-independent basis, Debye-Ang):
   XX=             -7.9245   YY=            -12.3764   ZZ=            -14.9905
   XY=             -0.0009   XZ=             -0.0011   YZ=              0.0000

  Exact polarizability:  32.550   0.001  13.889   0.000  -0.000  11.409
 Approx polarizability:  54.871   0.005  18.032   0.001  -0.000  14.657

                      1                      2                      3
                      A                      A                      A
 Frequencies --    412.9126               463.4596               769.5715
 Red. masses --      2.6668                 5.9096                 1.3611
 Frc consts  --      0.2679                 0.7479                 0.4749
 IR Inten    --      1.8164                 2.2295                59.8422

                      4                      5                      6
                      A                      A                      A
 Frequencies --   1013.2729              1052.1801              1372.3731
 Red. masses --      1.6568                 4.8668                 1.1676
 Frc consts  --      1.0023                 3.1745                 1.2957
 IR Inten    --      6.0295                 1.5037                45.0082

                      7                      8                      9
                      A                      A                      A
 Frequencies --   2287.7511              3097.8728              3218.7606
 Red. masses --     12.8381                 1.0473                 1.1241
 Frc consts  --     39.5886                 5.9216                 6.8618
 IR Inten    --    187.4020               114.8052               110.8995

 - Thermochemistry -
 -------------------
 Temperature   298.150 Kelvin.  Pressure   1.00000 Atm.
 Atom     1 has atomic number  6 and mass  12.00000

 Molecular mass:    42.01056 amu.
 Principal axes and moments of inertia in atomic units:
                           1         2         3
     Eigenvalues --     6.55733 179.12908 185.68641
           X            1.00000  -0.00001  -0.00002
           Y            0.00001   1.00000   0.00000
           Z            0.00002  -0.00000   1.00000
 This molecule is an asymmetric top.
 Rotational symmetry number  1.
 Rotational temperatures (Kelvin)     13.20870     0.48353     0.46645
 Rotational constants (GHZ):         275.22488    10.07509     9.71930
 Zero-point vibrational energy      81873.3 (Joules/Mol)
                                   19.56820 (Kcal/Mol)
 Warning -- explicit consideration of   2 degrees of freedom as
           vibrations may cause significant error
 Vibrational temperatures:    594.09   666.81  1107.24  1457.87  1513.85
          (Kelvin)           1974.54  3291.56  4457.14  4631.07

 Zero-point correction=                           0.031184 (Hartree/Particle)
 Thermal correction to Energy=                    0.034727
 Thermal correction to Enthalpy=                  0.035671
 Thermal correction to Gibbs Free Energy=         0.006870
 Sum of electronic and zero-point Energies=           -152.265081
 Sum of electronic and thermal Energies=              -152.261538
 Sum of electronic and thermal Enthalpies=            -152.260594
 Sum of electronic and thermal Free Energies=         -152.289396

                     E (Thermal)             CV                S
                      KCal/Mol        Cal/Mol-Kelvin    Cal/Mol-Kelvin
 Total                   21.792             10.244             60.618
 Electronic               0.000              0.000              1.377
 Translational            0.889              2.981             37.133
 Rotational               0.889              2.981             20.017
 Vibrational             20.014              4.282              2.091
 Vibration     1          0.777              1.442              0.916
 Vibration     2          0.821              1.331              0.756

 Optimization completed.
    -- Stationary point found.
 Normal termination of Gaussian 09 at Thu Jan 24 15:37:27 2019.
