 Gaussian 09, Revision D.01,
 Gaussian 09:  ES64L-G09RevD.01 24-Apr-2013

 ---------------------------
 #p b3lyp/6-311++g(d,p) freq
 ---------------------------

 ---
 min
 ---
 Symbolic Z-matrix:
 Charge =  1 Multiplicity = 4

                         Standard orientation:
 ---------------------------------------------------------------------
 Center     Atomic      Atomic             Coordinates (Angstroms)
 Number     Number       Type             X           Y           Z
 ---------------------------------------------------------------------
      1          6           0        0.000000    0.380351    0.000000
      2          6           0        1.240992   -0.251062    0.000000
      3          1           0        1.649857   -1.257574   -0.000000
      4          1           0       -0.044493    1.502262    0.000000
      5          8           0       -1.131415   -0.127553   -0.000000
 ---------------------------------------------------------------------

 SCF Done:  E(UB3LYP) =  -152.147665672     A.U. after   13 cycles

 The electronic state is 4-A".
 Alpha  occ. eigenvalues --  -19.56928 -10.59539 -10.55403  -1.45360  -1.08750
 Alpha  occ. eigenvalues --   -0.91155  -0.83402  -0.81207  -0.77916  -0.68468
 Alpha  occ. eigenvalues --   -0.58884  -0.58072
 Alpha virt. eigenvalues --   -0.31248  -0.18612  -0.16111  -0.13573  -0.11375
 Alpha virt. eigenvalues --   -0.09970  -0.08866  -0.06205  -0.05526  -0.04546
 Alpha virt. eigenvalues --   -0.01379  -0.00830  -0.00428   0.02989   0.04159

  Beta  occ. eigenvalues --  -19.53669 -10.59542 -10.52575  -1.38826  -1.02074
  Beta  occ. eigenvalues --   -0.86005  -0.78633  -0.76269  -0.72033
  Beta virt. eigenvalues --   -0.49050  -0.44138  -0.37957  -0.25173  -0.17664
  Beta virt. eigenvalues --   -0.15180  -0.12522  -0.10834  -0.08977  -0.07398
  Beta virt. eigenvalues --   -0.05071  -0.04734  -0.04230  -0.00859   0.00048

 Mulliken charges and spin densities:
               1          2
     1  C   -0.039092   0.072084
     2  C    0.216296   1.669018
     3  H    0.258370  -0.012633
     4  H    0.314401   0.159662
     5  O    0.250025   1.111869
 Sum of Mulliken charges =   1.00000   3.00000

 Dipole moment (field-independent basis, Debye):
    X=              1.9277    Y=              0.5804    Z=              0.0000  Tot=              2.0132
 Quadrupole moment (field-independent basis, Debye-Ang):
   XX=            -10.9745   YY=             -9.8234   ZZ=            -15.3311
   XY=             -3.0097   XZ=              0.0000   YZ=             -0.0000

  Exact polarizability:  30.814  -2.665  19.986  -0.000  -0.000  12.215
 Approx polarizability:  49.416  -0.637  26.575   0.000   0.000  15.897

                      1                      2                      3
                     A'                     A"                     A'
 Frequencies --    468.3058               667.4554               771.8586
 Red. masses --      2.8595                 1.3617                 1.5387
 Frc consts  --      0.3695                 0.3574                 0.5401
 IR Inten    --     27.8714                31.1281                12.2112

                      4                      5                      6
                     A"                     A'                     A'
 Frequencies --    812.7665              1137.0292              1189.3499
 Red. masses --      1.5738                 1.1003                 6.9589
 Frc consts  --      0.6125                 0.8381                 5.7998
 IR Inten    --     18.0018                19.9983                 4.5620

                      7                      8                      9
                     A'                     A'                     A'
 Frequencies --   1460.5347              2777.9535              3203.1315
 Red. masses --     10.8797                 1.0725                 1.0979
 Frc consts  --     13.6739                 4.8764                 6.6367
 IR Inten    --     33.9947               164.1819               125.1656

 - Thermochemistry -
 -------------------
 Temperature   298.150 Kelvin.  Pressure   1.00000 Atm.
 Atom     1 has atomic number  6 and mass  12.00000

 Molecular mass:    42.01056 amu.
 Principal axes and moments of inertia in atomic units:
                           1         2         3
     Eigenvalues --    22.33241 150.00978 172.34219
           X            0.99487   0.10115   0.00000
           Y           -0.10115   0.99487   0.00000
           Z            0.00000  -0.00000   1.00000
 This molecule is an asymmetric top.
 Rotational symmetry number  1.
 Rotational temperatures (Kelvin)      3.87839     0.57739     0.50257
 Rotational constants (GHZ):          80.81266    12.03082    10.47185
 Zero-point vibrational energy      74697.1 (Joules/Mol)
                                   17.85304 (Kcal/Mol)
 Warning -- explicit consideration of   1 degrees of freedom as
           vibrations may cause significant error
 Vibrational temperatures:    673.79   960.32  1110.53  1169.39  1635.93
          (Kelvin)           1711.21  2101.38  3996.85  4608.59

 Zero-point correction=                           0.028451 (Hartree/Particle)
 Thermal correction to Energy=                    0.031865
 Thermal correction to Enthalpy=                  0.032809
 Thermal correction to Gibbs Free Energy=         0.003113
 Sum of electronic and zero-point Energies=           -152.119215
 Sum of electronic and thermal Energies=              -152.115801
 Sum of electronic and thermal Enthalpies=            -152.114857
 Sum of electronic and thermal Free Energies=         -152.144553

                     E (Thermal)             CV                S
                      KCal/Mol        Cal/Mol-Kelvin    Cal/Mol-Kelvin
 Total                   19.995             10.051             62.501
 Electronic               0.000              0.000              2.755
 Translational            0.889              2.981             37.133
 Rotational               0.889              2.981             20.984
 Vibrational             18.218              4.090              1.629
 Vibration     1          0.825              1.320              0.742

 Optimization completed.
    -- Stationary point found.
 Normal termination of Gaussian 09 at Thu Jan 24 15:37:44 2019.
