 Gaussian 09, Revision D.01,
 Gaussian 09:  ES64L-G09RevD.01 24-Apr-2013

 ---------------------------
 #p b3lyp/6-311++g(d,p) freq
 ---------------------------

 ---
 min
 ---
 Symbolic Z-matrix:
 Charge =  1 Multiplicity = 2

                         Standard orientation:
 ---------------------------------------------------------------------
 Center     Atomic      Atomic             Coordinates (Angstroms)
 Number     Number       Type             X           Y           Z
 ---------------------------------------------------------------------
      1          6           0        0.000000    0.000000    0.622853
      2          6           0        0.000000    0.000000   -0.622853
      3          1           0        0.000000    0.000000    1.703249
      4          1           0        0.000000    0.000000   -1.703249
 ---------------------------------------------------------------------

 SCF Done:  E(UB3LYP) =  -76.9421042620     A.U. after    8 cycles

 Unable to determine electronic state:  partially filled degenerate orbitals.
 Alpha  occ. eigenvalues --  -10.57873 -10.57700  -1.13658  -0.89673  -0.82993
 Alpha  occ. eigenvalues --   -0.67593  -0.63956
 Alpha virt. eigenvalues --   -0.33175  -0.30417  -0.19241  -0.16568  -0.14917
 Alpha virt. eigenvalues --   -0.11503  -0.11028  -0.09132  -0.05103  -0.04687
 Alpha virt. eigenvalues --   -0.02331  -0.00825   0.05606   0.07276   0.22738

  Beta  occ. eigenvalues --  -10.57069 -10.56908  -1.09475  -0.88297  -0.82324
  Beta  occ. eigenvalues --   -0.62712
  Beta virt. eigenvalues --   -0.52752  -0.29514  -0.26933  -0.18215  -0.16354
  Beta virt. eigenvalues --   -0.14490  -0.10974  -0.10687  -0.08704  -0.04588
  Beta virt. eigenvalues --   -0.04299  -0.02199  -0.00787   0.06000   0.07510

 Mulliken charges and spin densities:
               1          2
     1  C    0.164377   0.519221
     2  C    0.164377   0.519221
     3  H    0.335623  -0.019221
     4  H    0.335623  -0.019221
 Sum of Mulliken charges =   1.00000   1.00000

 Dipole moment (field-independent basis, Debye):
    X=              0.0000    Y=              0.0000    Z=             -0.0000  Tot=              0.0000
 Quadrupole moment (field-independent basis, Debye-Ang):
   XX=            -11.3449   YY=             -9.5645   ZZ=             -0.6098
   XY=             -0.0000   XZ=             -0.0000   YZ=             -0.0000

  Exact polarizability:   9.520   0.000   8.743   0.000   0.000  23.850
 Approx polarizability:  11.556  -0.000  11.531  -0.000  -0.000  40.060

                      1                      2                      3
                     PIG                    PIU                    PIU
 Frequencies --    651.1348               725.0553               762.6274
 Red. masses --      1.5586                 1.0848                 1.0848
 Frc consts  --      0.3893                 0.3360                 0.3717
 IR Inten    --      0.0000                33.2073               121.4514

                      4                      5                      6
                     PIG                    SGG                    SGU
 Frequencies --    804.3859              1889.6544              3258.6604
 Red. masses --      1.5586                 3.9149                 1.0848
 Frc consts  --      0.5942                 8.2364                 6.7871
 IR Inten    --      0.0000                 0.0000               450.5409

                      7
                     SGG
 Frequencies --   3362.0317
 Red. masses --      1.2193
 Frc consts  --      8.1202
 IR Inten    --      0.0000

 - Thermochemistry -
 -------------------
 Temperature   298.150 Kelvin.  Pressure   1.00000 Atm.
 Atom     1 has atomic number  6 and mass  12.00000

 Molecular mass:    26.01565 amu.
 Principal axes and moments of inertia in atomic units:
                           1         2         3
     Eigenvalues --     0.00000  54.13097  54.13097
           X           -0.00000   1.00000  -0.00000
           Y            0.00000   0.00000   1.00000
           Z            1.00000   0.00000  -0.00000
 This molecule is a prolate symmetric top.
 Rotational symmetry number  2.
 Rotational temperature (Kelvin)      1.60008
 Rotational constant (GHZ):          33.340268
 Zero-point vibrational energy      68507.4 (Joules/Mol)
                                   16.37367 (Kcal/Mol)
 Vibrational temperatures:    936.84  1043.19  1097.25  1157.33  2718.79
          (Kelvin)           4688.48  4837.21

 Zero-point correction=                           0.026093 (Hartree/Particle)
 Thermal correction to Energy=                    0.028858
 Thermal correction to Enthalpy=                  0.029803
 Thermal correction to Gibbs Free Energy=         0.006439
 Sum of electronic and zero-point Energies=            -76.916011
 Sum of electronic and thermal Energies=               -76.913246
 Sum of electronic and thermal Enthalpies=             -76.912302
 Sum of electronic and thermal Free Energies=          -76.935665

                     E (Thermal)             CV                S
                      KCal/Mol        Cal/Mol-Kelvin    Cal/Mol-Kelvin
 Total                   18.109              8.052             49.173
 Electronic               0.000              0.000              1.377
 Translational            0.889              2.981             35.704
 Rotational               0.592              1.987             10.998
 Vibrational             16.628              3.084              1.093

 Optimization completed.
    -- Stationary point found.
 Normal termination of Gaussian 09 at Thu Jan 24 15:34:13 2019.
