 Gaussian 09, Revision D.01,
 Gaussian 09:  ES64L-G09RevD.01 24-Apr-2013

 ---------------------------
 #p b3lyp/6-311++g(d,p) freq
 ---------------------------

 ---
 min
 ---
 Symbolic Z-matrix:
 Charge =  0 Multiplicity = 3

                         Standard orientation:
 ---------------------------------------------------------------------
 Center     Atomic      Atomic             Coordinates (Angstroms)
 Number     Number       Type             X           Y           Z
 ---------------------------------------------------------------------
      1          6           0       -0.000000    0.664093   -0.121775
      2          6           0        0.000000   -0.664093   -0.121775
      3          1           0       -0.000000    1.350324    0.730647
      4          1           0        0.000000   -1.350324    0.730647
 ---------------------------------------------------------------------

 SCF Done:  E(UB3LYP) =  -77.2182722496     A.U. after   10 cycles

 The electronic state is 3-B2.
 Alpha  occ. eigenvalues --  -10.22878 -10.22789  -0.79031  -0.57756  -0.48799
 Alpha  occ. eigenvalues --   -0.35433  -0.30871  -0.22486
 Alpha virt. eigenvalues --   -0.02730  -0.00151   0.01854   0.05563   0.06446
 Alpha virt. eigenvalues --    0.08750   0.08962   0.11858   0.12703   0.13725
 Alpha virt. eigenvalues --    0.14416   0.16402   0.23565   0.34939   0.43272

  Beta  occ. eigenvalues --  -10.21296 -10.21213  -0.74633  -0.53830  -0.46396
  Beta  occ. eigenvalues --   -0.28863
  Beta virt. eigenvalues --   -0.17174  -0.05165  -0.00524   0.00173   0.02099
  Beta virt. eigenvalues --    0.06523   0.06995   0.08852   0.10348   0.12379
  Beta virt. eigenvalues --    0.12834   0.14287   0.16064   0.16973   0.25271

 Mulliken charges and spin densities:
               1          2
     1  C   -0.124162   0.927154
     2  C   -0.124162   0.927154
     3  H    0.124162   0.072846
     4  H    0.124162   0.072846
 Sum of Mulliken charges =  -0.00000   2.00000

 Dipole moment (field-independent basis, Debye):
    X=              0.0000    Y=             -0.0000    Z=              1.2972  Tot=              1.2972
 Quadrupole moment (field-independent basis, Debye-Ang):
   XX=            -14.3217   YY=            -11.5242   ZZ=            -12.5589
   XY=              0.0000   XZ=             -0.0000   YZ=              0.0000

  Exact polarizability:  19.563  -0.000  33.656   0.000   0.000  18.054
 Approx polarizability:  20.949  -0.000  50.811  -0.000  -0.000  21.095

                      1                      2                      3
                     A2                     A1                     B2
 Frequencies --    794.8701               818.0481              1088.5432
 Red. masses --      1.3193                 1.0396                 1.4278
 Frc consts  --      0.4911                 0.4099                 0.9968
 IR Inten    --      0.0000                 2.0037                17.1766

                      4                      5                      6
                     A1                     B2                     A1
 Frequencies --   1627.1050              3027.7306              3068.4854
 Red. masses --      7.6329                 1.0786                 1.1056
 Frc consts  --     11.9062                 5.8256                 6.1332
 IR Inten    --      5.7568                29.2553                 7.2211

 - Thermochemistry -
 -------------------
 Temperature   298.150 Kelvin.  Pressure   1.00000 Atm.
 Atom     1 has atomic number  6 and mass  12.00000

 Molecular mass:    26.01565 amu.
 Principal axes and moments of inertia in atomic units:
                           1         2         3
     Eigenvalues --     4.82501  50.92246  55.74748
           X           -0.00000  -0.00000   1.00000
           Y            1.00000   0.00000   0.00000
           Z           -0.00000   1.00000   0.00000
 This molecule is an asymmetric top.
 Rotational symmetry number  2.
 Rotational temperatures (Kelvin)     17.95100     1.70090     1.55368
 Rotational constants (GHZ):         374.03850    35.44096    32.37350
 Zero-point vibrational energy      62354.0 (Joules/Mol)
                                   14.90297 (Kcal/Mol)
 Vibrational temperatures:   1143.64  1176.99  1566.17  2341.04  4356.22
          (Kelvin)           4414.86

 Zero-point correction=                           0.023749 (Hartree/Particle)
 Thermal correction to Energy=                    0.026764
 Thermal correction to Enthalpy=                  0.027708
 Thermal correction to Gibbs Free Energy=         0.001931
 Sum of electronic and zero-point Energies=            -77.194523
 Sum of electronic and thermal Energies=               -77.191508
 Sum of electronic and thermal Enthalpies=             -77.190564
 Sum of electronic and thermal Free Energies=          -77.216342

                     E (Thermal)             CV                S
                      KCal/Mol        Cal/Mol-Kelvin    Cal/Mol-Kelvin
 Total                   16.795              7.580             54.254
 Electronic               0.000              0.000              2.183
 Translational            0.889              2.981             35.704
 Rotational               0.889              2.981             15.890
 Vibrational             15.017              1.619              0.477

 Optimization completed.
    -- Stationary point found.
 Normal termination of Gaussian 09 at Sun Mar  4 20:56:16 2018.
