 Gaussian 09, Revision D.01,
 Gaussian 09:  ES64L-G09RevD.01 24-Apr-2013

 ---------------------------
 #p b3lyp/6-311++g(d,p) freq
 ---------------------------

 ---
 min
 ---
 Symbolic Z-matrix:
 Charge =  0 Multiplicity = 1

                         Standard orientation:
 ---------------------------------------------------------------------
 Center     Atomic      Atomic             Coordinates (Angstroms)
 Number     Number       Type             X           Y           Z
 ---------------------------------------------------------------------
      1          6           0       -0.000000    0.000000    0.599734
      2          6           0        0.000000   -0.000000   -0.599734
      3          1           0        0.000000   -0.000000   -1.662782
      4          1           0       -0.000000    0.000000    1.662782
 ---------------------------------------------------------------------

 SCF Done:  E(RB3LYP) =  -77.3566624786     A.U. after    8 cycles

 The electronic state is 1-SG.
 Alpha  occ. eigenvalues --  -10.18319 -10.18073  -0.76169  -0.57522  -0.50667
 Alpha  occ. eigenvalues --   -0.30138  -0.30138
 Alpha virt. eigenvalues --    0.00392   0.01165   0.01250   0.01250   0.06672
 Alpha virt. eigenvalues --    0.06672   0.07112   0.10139   0.12958   0.13330
 Alpha virt. eigenvalues --    0.13330   0.15554   0.24117   0.27137   0.44559

 Mulliken charges:
               1
     1  C   -0.171004
     2  C   -0.171004
     3  H    0.171004
     4  H    0.171004
 Sum of Mulliken charges =  -0.00000

 Dipole moment (field-independent basis, Debye):
    X=              0.0000    Y=              0.0000    Z=              0.0000  Tot=              0.0000
 Quadrupole moment (field-independent basis, Debye-Ang):
   XX=            -13.8245   YY=            -13.8245   ZZ=             -7.0375
   XY=             -0.0000   XZ=              0.0000   YZ=              0.0000

  Exact polarizability:  13.458  -0.000  13.458   0.000   0.000  30.963
 Approx polarizability:  15.827  -0.000  15.827  -0.000   0.000  54.763

                      1                      2                      3
                     PI                     PI                     PI
 Frequencies --    646.9713               646.9713               772.2621
 Red. masses --      1.5732                 1.5732                 1.0848
 Frc consts  --      0.3880                 0.3880                 0.3812
 IR Inten    --      0.0000                 0.0000               112.0473

                      4                      5                      6
                     PI                     SG                     SG
 Frequencies --    772.2621              2061.5991              3420.4061
 Red. masses --      1.0848                 3.8013                 1.0848
 Frc consts  --      0.3812                 9.5190                 7.4776
 IR Inten    --    112.0473                 0.0000                93.8995

                      7
                     SG
 Frequencies --   3523.1048
 Red. masses --      1.2308
 Frc consts  --      9.0007
 IR Inten    --      0.0000

 - Thermochemistry -
 -------------------
 Temperature   298.150 Kelvin.  Pressure   1.00000 Atm.
 Atom     1 has atomic number  6 and mass  12.00000

 Molecular mass:    26.01565 amu.
 Principal axes and moments of inertia in atomic units:
                           1         2         3
     Eigenvalues --     0.00000  50.72808  50.72808
           X           -0.00000   0.84811  -0.52981
           Y            0.00000   0.52981   0.84811
           Z            1.00000   0.00000  -0.00000
 This molecule is a prolate symmetric top.
 Rotational symmetry number  1.
 Rotational temperature (Kelvin)      1.70741
 Rotational constant (GHZ):          35.576767
 Zero-point vibrational energy      70840.3 (Joules/Mol)
                                   16.93124 (Kcal/Mol)
 Vibrational temperatures:    930.85   930.85  1111.11  1111.11  2966.18
          (Kelvin)           4921.20  5068.96

 Zero-point correction=                           0.026982 (Hartree/Particle)
 Thermal correction to Energy=                    0.029788
 Thermal correction to Enthalpy=                  0.030732
 Thermal correction to Gibbs Free Energy=         0.007372
 Sum of electronic and zero-point Energies=            -77.329681
 Sum of electronic and thermal Energies=               -77.326875
 Sum of electronic and thermal Enthalpies=             -77.325930
 Sum of electronic and thermal Free Energies=          -77.349290

                     E (Thermal)             CV                S
                      KCal/Mol        Cal/Mol-Kelvin    Cal/Mol-Kelvin
 Total                   18.692              8.241             49.165
 Electronic               0.000              0.000              0.000
 Translational            0.889              2.981             35.704
 Rotational               0.592              1.987             12.246
 Vibrational             17.211              3.273              1.214

 Optimization completed.
    -- Stationary point found.

 1\1\ CITASK-GV1335\Freq\RB3LYP\6-311++G(d,p)\C2H2\EERD\04-Mar-2018\0\\
 #p b3lyp/6-311++g(d,p) freq\\min\\0,1\C,0.1609084648,-0.4280242976,0.5
 079898233\C,-0.3962009159,0.5866586461,0.1937087679\H,-0.8899479498,1.
 485937515,-0.0848278073\H,0.6546554994,-1.3273031678,0.7865263989\\Ver
 sion=ES64L-G09RevD.01\State=1-SG\HF=-77.3566625\RMSD=4.779e-09\RMSF=1.
 305e-04\ZeroPoint=0.0269817\Thermal=0.0297879\Dipole=0.0000002,-0.0000
 003,0.\DipoleDeriv=-0.2269318,-0.0076795,0.0023786,-0.0076795,-0.21716
 12,-0.0043322,0.0023786,-0.0043322,-0.2298064,-0.2269321,-0.0076796,0.

 Normal termination of Gaussian 09 at Sun Mar  4 20:56:10 2018.
