 Gaussian 09, Revision D.01,
 Gaussian 09:  ES64L-G09RevD.01 24-Apr-2013

 ---------------------------
 #p b3lyp/6-311++g(d,p) freq
 ---------------------------

 ---
 min
 ---
 Symbolic Z-matrix:
 Charge =  0 Multiplicity = 3

                         Standard orientation:
 ---------------------------------------------------------------------
 Center     Atomic      Atomic             Coordinates (Angstroms)
 Number     Number       Type             X           Y           Z
 ---------------------------------------------------------------------
      1          6           0       -0.000000   -0.000000    0.831648
      2          6           0        0.000000    0.000000   -0.481845
      3          1           0        0.000000    0.933783   -1.049407
      4          1           0       -0.000000   -0.933783   -1.049407
 ---------------------------------------------------------------------

 SCF Done:  E(UB3LYP) =  -77.2122164840     A.U. after   12 cycles

 The electronic state is 3-B2.
 Alpha  occ. eigenvalues --  -10.24751 -10.20548  -0.78951  -0.55887  -0.46698
 Alpha  occ. eigenvalues --   -0.39350  -0.30950  -0.22891
 Alpha virt. eigenvalues --   -0.02312   0.00247   0.02653   0.04268   0.06537
 Alpha virt. eigenvalues --    0.08596   0.09548   0.12032   0.12049   0.14831
 Alpha virt. eigenvalues --    0.15252   0.16618   0.22003   0.33321   0.44802

  Beta  occ. eigenvalues --  -10.21390 -10.20564  -0.75542  -0.51303  -0.44531
  Beta  occ. eigenvalues --   -0.29132
  Beta virt. eigenvalues --   -0.18263  -0.05327   0.00331   0.00551   0.02833
  Beta virt. eigenvalues --    0.05384   0.06503   0.08916   0.11263   0.12231
  Beta virt. eigenvalues --    0.12688   0.14923   0.15634   0.17473   0.23826

 Mulliken charges and spin densities:
               1          2
     1  C    0.063432   1.967936
     2  C   -0.320757  -0.156468
     3  H    0.128662   0.094266
     4  H    0.128662   0.094266
 Sum of Mulliken charges =  -0.00000   2.00000

 Dipole moment (field-independent basis, Debye):
    X=             -0.0000    Y=             -0.0000    Z=             -0.6668  Tot=              0.6668
 Quadrupole moment (field-independent basis, Debye-Ang):
   XX=            -14.1832   YY=            -12.2517   ZZ=            -11.4811
   XY=             -0.0000   XZ=              0.0000   YZ=              0.0000

  Exact polarizability:  21.976   0.000  17.847  -0.000   0.000  31.534
 Approx polarizability:  20.631   0.000  21.124  -0.000   0.000  49.774

                      1                      2                      3
                     B1                     B2                     A1
 Frequencies --    738.8122               986.2526              1394.2353
 Red. masses --      1.3442                 1.3279                 1.0717
 Frc consts  --      0.4323                 0.7610                 1.2274
 IR Inten    --      0.0882                 5.6566                 2.0728

                      4                      5                      6
                     A1                     A1                     B2
 Frequencies --   1576.8130              3019.9131              3088.7303
 Red. masses --      9.1586                 1.0470                 1.1150
 Frc consts  --     13.4165                 5.6258                 6.2676
 IR Inten    --      5.5565                 5.1684                 4.5590

 - Thermochemistry -
 -------------------
 Temperature   298.150 Kelvin.  Pressure   1.00000 Atm.
 Atom     1 has atomic number  6 and mass  12.00000

 Molecular mass:    26.01565 amu.
 Principal axes and moments of inertia in atomic units:
                           1         2         3
     Eigenvalues --     6.27631  46.91956  53.19588
           X            0.00000   0.00000   1.00000
           Y            0.00000   1.00000  -0.00000
           Z            1.00000   0.00000   0.00000
 This molecule is an asymmetric top.
 Rotational symmetry number  2.
 Rotational temperatures (Kelvin)     13.80011     1.84601     1.62821
 Rotational constants (GHZ):         287.54791    38.46458    33.92634
 Zero-point vibrational energy      64626.8 (Joules/Mol)
                                   15.44617 (Kcal/Mol)
 Vibrational temperatures:   1062.98  1419.00  2005.99  2268.68  4344.98
          (Kelvin)           4443.99

 Zero-point correction=                           0.024615 (Hartree/Particle)
 Thermal correction to Energy=                    0.027596
 Thermal correction to Enthalpy=                  0.028540
 Thermal correction to Gibbs Free Energy=         0.002740
 Sum of electronic and zero-point Energies=            -77.187601
 Sum of electronic and thermal Energies=               -77.184621
 Sum of electronic and thermal Enthalpies=             -77.183677
 Sum of electronic and thermal Free Energies=          -77.209476

                     E (Thermal)             CV                S
                      KCal/Mol        Cal/Mol-Kelvin    Cal/Mol-Kelvin
 Total                   17.317              7.276             54.300
 Electronic               0.000              0.000              2.183
 Translational            0.889              2.981             35.704
 Rotational               0.889              2.981             16.023
 Vibrational             15.539              1.315              0.389

 Normal termination of Gaussian 09 at Sun Mar  4 20:56:15 2018.
