 Gaussian 09, Revision D.01,
 Gaussian 09:  ES64L-G09RevD.01 24-Apr-2013

 ---------------------------
 #p b3lyp/6-311++g(d,p) freq
 ---------------------------

 ---
 min
 ---
 Symbolic Z-matrix:
 Charge =  1 Multiplicity = 4

                         Standard orientation:
 ---------------------------------------------------------------------
 Center     Atomic      Atomic             Coordinates (Angstroms)
 Number     Number       Type             X           Y           Z
 ---------------------------------------------------------------------
      1          6           0        1.278924   -0.147431   -0.000000
      2          6           0       -0.000000    0.455018    0.000000
      3          1           0        2.310843    0.187036   -0.000000
      4          1           0       -1.174696   -1.106624    0.000000
      5          8           0       -1.101211   -0.115742    0.000000
 ---------------------------------------------------------------------

 SCF Done:  E(UB3LYP) =  -152.120675356     A.U. after   13 cycles

 The electronic state is 4-A".
 Alpha  occ. eigenvalues --  -19.52049 -10.61134 -10.54886  -1.44490  -1.07912
 Alpha  occ. eigenvalues --   -0.97131  -0.81897  -0.76461  -0.75754  -0.64353
 Alpha  occ. eigenvalues --   -0.57983  -0.51788
 Alpha virt. eigenvalues --   -0.31160  -0.21346  -0.15773  -0.12285  -0.11222
 Alpha virt. eigenvalues --   -0.11008  -0.08948  -0.06587  -0.05156  -0.05142
 Alpha virt. eigenvalues --   -0.03030  -0.00764   0.00392   0.01873   0.03943

  Beta  occ. eigenvalues --  -19.51164 -10.59205 -10.52029  -1.42520  -1.01229
  Beta  occ. eigenvalues --   -0.93838  -0.78614  -0.72463  -0.71156
  Beta virt. eigenvalues --   -0.45006  -0.43186  -0.32791  -0.23133  -0.19238
  Beta virt. eigenvalues --   -0.14610  -0.11046  -0.10221  -0.10122  -0.07629
  Beta virt. eigenvalues --   -0.06069  -0.04366  -0.04270  -0.01789  -0.00212

 Mulliken charges and spin densities:
               1          2
     1  C    0.101611   1.765710
     2  C    0.218288   0.980596
     3  H    0.255171  -0.020687
     4  H    0.354933   0.074615
     5  O    0.069998   0.199766
 Sum of Mulliken charges =   1.00000   3.00000

 Dipole moment (field-independent basis, Debye):
    X=              1.6062    Y=             -1.3817    Z=             -0.0000  Tot=              2.1187
 Quadrupole moment (field-independent basis, Debye-Ang):
   XX=             -6.7608   YY=            -12.6709   ZZ=            -15.3707
   XY=              3.5410   XZ=             -0.0000   YZ=              0.0000

  Exact polarizability:  33.740   1.858  18.372   0.000   0.000  12.645
 Approx polarizability:  48.584   2.866  24.663  -0.000  -0.000  16.333

                      1                      2                      3
                     A'                     A"                     A"
 Frequencies --    429.6562               550.3519               587.1598
 Red. masses --      2.3758                 1.4983                 1.1484
 Frc consts  --      0.2584                 0.2674                 0.2333
 IR Inten    --     14.1625               133.9465                28.4876

                      4                      5                      6
                     A'                     A'                     A'
 Frequencies --    801.3459               956.8315              1226.5084
 Red. masses --      1.3482                 1.4477                 5.9138
 Frc consts  --      0.5101                 0.7809                 5.2415
 IR Inten    --     21.6053               240.7207                12.4647

                      7                      8                      9
                     A'                     A'                     A'
 Frequencies --   1634.8929              3215.1259              3375.7662
 Red. masses --     11.1087                 1.0953                 1.0637
 Frc consts  --     17.4941                 6.6708                 7.1416
 IR Inten    --    182.6670               122.5760               222.1214

 - Thermochemistry -
 -------------------
 Temperature   298.150 Kelvin.  Pressure   1.00000 Atm.
 Atom     1 has atomic number  6 and mass  12.00000

 Molecular mass:    42.01056 amu.
 Principal axes and moments of inertia in atomic units:
                           1         2         3
     Eigenvalues --    14.82626 163.64124 178.46750
           X            0.99931  -0.03713   0.00000
           Y            0.03713   0.99931   0.00000
           Z           -0.00000   0.00000   1.00000
 This molecule is an asymmetric top.
 Rotational symmetry number  1.
 Rotational temperatures (Kelvin)      5.84192     0.52929     0.48532
 Rotational constants (GHZ):         121.72601    11.02865    10.11244
 Zero-point vibrational energy      76427.3 (Joules/Mol)
                                   18.26655 (Kcal/Mol)
 Warning -- explicit consideration of   3 degrees of freedom as
           vibrations may cause significant error
 Vibrational temperatures:    618.18   791.83   844.79  1152.96  1376.67
          (Kelvin)           1764.67  2352.24  4625.84  4856.97

 Zero-point correction=                           0.029110 (Hartree/Particle)
 Thermal correction to Energy=                    0.032720
 Thermal correction to Enthalpy=                  0.033664
 Thermal correction to Gibbs Free Energy=         0.003815
 Sum of electronic and zero-point Energies=           -152.091566
 Sum of electronic and thermal Energies=              -152.087956
 Sum of electronic and thermal Enthalpies=            -152.087011
 Sum of electronic and thermal Free Energies=         -152.116861

                     E (Thermal)             CV                S
                      KCal/Mol        Cal/Mol-Kelvin    Cal/Mol-Kelvin
 Total                   20.532             10.876             62.823
 Electronic               0.000              0.000              2.755
 Translational            0.889              2.981             37.133
 Rotational               0.889              2.981             20.698
 Vibrational             18.754              4.914              2.237
 Vibration     1          0.791              1.406              0.860
 Vibration     2          0.906              1.139              0.543
 Vibration     3          0.944              1.059              0.472

 Optimization completed.
    -- Stationary point found.
 Normal termination of Gaussian 09 at Thu Jan 24 15:37:43 2019.
