 Gaussian 09, Revision D.01,
 Gaussian 09:  ES64L-G09RevD.01 24-Apr-2013

 ---------------------------
 #p b3lyp/6-311++g(d,p) freq
 ---------------------------

 ---
 min
 ---
 Symbolic Z-matrix:
 Charge =  0 Multiplicity = 3

                         Standard orientation:
 ---------------------------------------------------------------------
 Center     Atomic      Atomic             Coordinates (Angstroms)
 Number     Number       Type             X           Y           Z
 ---------------------------------------------------------------------
      1          6           0        1.075392   -0.496651   -0.000000
      2          6           0        0.000000    0.454422   -0.000000
      3          1           0        2.101620   -0.155554   -0.000000
      4          1           0        0.866861   -1.566145    0.000000
      5          8           0       -1.177604    0.246884    0.000000
 ---------------------------------------------------------------------

 SCF Done:  E(UB3LYP) =  -152.568894816     A.U. after   13 cycles

 The electronic state is 3-A".
 Alpha  occ. eigenvalues --  -19.18196 -10.27043 -10.24790  -1.10525  -0.78608
 Alpha  occ. eigenvalues --   -0.57132  -0.50150  -0.49308  -0.45206  -0.41363
 Alpha  occ. eigenvalues --   -0.29741  -0.21631
 Alpha virt. eigenvalues --   -0.01057  -0.00526   0.02009   0.03983   0.05451
 Alpha virt. eigenvalues --    0.07300   0.08385   0.10130   0.10381   0.13236
 Alpha virt. eigenvalues --    0.13682   0.15957   0.17912   0.22784   0.23114

  Beta  occ. eigenvalues --  -19.16698 -10.26123 -10.23311  -1.07743  -0.74095
  Beta  occ. eigenvalues --   -0.54515  -0.47975  -0.46674  -0.41134  -0.36697
  Beta virt. eigenvalues --   -0.15862  -0.07876   0.00019   0.02131   0.02744
  Beta virt. eigenvalues --    0.04332   0.06541   0.07499   0.08671   0.11117
  Beta virt. eigenvalues --    0.11141   0.13727   0.14109   0.16514   0.18603

 Mulliken charges and spin densities:
               1          2
     1  C   -0.129885   0.884633
     2  C    0.013664   0.634111
     3  H    0.152566  -0.049149
     4  H    0.128372   0.029227
     5  O   -0.164716   0.501178
 Sum of Mulliken charges =  -0.00000   2.00000

 Dipole moment (field-independent basis, Debye):
    X=              2.5217    Y=             -1.3173    Z=             -0.0000  Tot=              2.8450
 Quadrupole moment (field-independent basis, Debye-Ang):
   XX=            -17.8176   YY=            -17.7088   ZZ=            -17.7975
   XY=             -0.3586   XZ=              0.0000   YZ=              0.0000

  Exact polarizability:  36.531  -3.283  28.049  -0.000   0.000  18.068
 Approx polarizability:  55.384  -3.673  34.028  -0.000  -0.000  22.840

                      1                      2                      3
                     A"                     A'                     A"
 Frequencies --    390.4671               463.4288               798.0797
 Red. masses --      1.3842                 2.9915                 1.3717
 Frc consts  --      0.1243                 0.3785                 0.5148
 IR Inten    --      0.3136                 5.1760                37.5162

                      4                      5                      6
                     A'                     A'                     A'
 Frequencies --    992.8503              1061.6469              1437.0878
 Red. masses --      2.2368                 2.5755                 1.1541
 Frc consts  --      1.2991                 1.7103                 1.4043
 IR Inten    --      3.0017                17.1829                 5.1431

                      7                      8                      9
                     A'                     A'                     A'
 Frequencies --   1779.6960              3089.8009              3245.0057
 Red. masses --     12.4250                 1.0554                 1.1117
 Frc consts  --     23.1867                 5.9364                 6.8969
 IR Inten    --    110.9173                 9.7170                 1.2882

 - Thermochemistry -
 -------------------
 Temperature   298.150 Kelvin.  Pressure   1.00000 Atm.
 Atom     1 has atomic number  6 and mass  12.00000

 Molecular mass:    42.01056 amu.
 Principal axes and moments of inertia in atomic units:
                           1         2         3
     Eigenvalues --    15.97932 162.22219 178.20151
           X            0.94520   0.32649   0.00000
           Y           -0.32649   0.94520   0.00000
           Z           -0.00000   0.00000   1.00000
 This molecule is an asymmetric top.
 Rotational symmetry number  1.
 Rotational temperatures (Kelvin)      5.42037     0.53392     0.48604
 Rotational constants (GHZ):         112.94232    11.12512    10.12753
 Zero-point vibrational energy      79300.8 (Joules/Mol)
                                   18.95335 (Kcal/Mol)
 Warning -- explicit consideration of   2 degrees of freedom as
           vibrations may cause significant error
 Vibrational temperatures:    561.79   666.77  1148.26  1428.49  1527.47
          (Kelvin)           2067.65  2560.58  4445.53  4668.83

 Zero-point correction=                           0.030204 (Hartree/Particle)
 Thermal correction to Energy=                    0.033762
 Thermal correction to Enthalpy=                  0.034706
 Thermal correction to Gibbs Free Energy=         0.005138
 Sum of electronic and zero-point Energies=           -152.538691
 Sum of electronic and thermal Energies=              -152.535133
 Sum of electronic and thermal Enthalpies=            -152.534189
 Sum of electronic and thermal Free Energies=         -152.563757

                     E (Thermal)             CV                S
                      KCal/Mol        Cal/Mol-Kelvin    Cal/Mol-Kelvin
 Total                   21.186             10.258             62.230
 Electronic               0.000              0.000              2.183
 Translational            0.889              2.981             37.133
 Rotational               0.889              2.981             20.763
 Vibrational             19.408              4.296              2.152
 Vibration     1          0.758              1.491              0.998
 Vibration     2          0.821              1.331              0.756

 Normal termination of Gaussian 09 at Sun Mar  4 21:13:37 2018.
