 Gaussian 09, Revision D.01,
 Gaussian 09:  ES64L-G09RevD.01 24-Apr-2013

 ---------------------------
 #p b3lyp/6-311++g(d,p) freq
 ---------------------------

 ---
 min
 ---
 Symbolic Z-matrix:
 Charge =  0 Multiplicity = 1

                         Standard orientation:
 ---------------------------------------------------------------------
 Center     Atomic      Atomic             Coordinates (Angstroms)
 Number     Number       Type             X           Y           Z
 ---------------------------------------------------------------------
      1          6           0        1.291129    0.593771    0.000000
      2          6           0       -0.000000    0.354322    0.000000
      3          1           0       -0.466772    1.354176   -0.000000
      4          1           0       -0.369539   -1.518785   -0.000000
      5          8           0       -0.863808   -0.690493   -0.000000
 ---------------------------------------------------------------------

 SCF Done:  E(RB3LYP) =  -152.514246689     A.U. after   12 cycles

 The electronic state is 1-A'.
 Alpha  occ. eigenvalues --  -19.20052 -10.25038 -10.23753  -1.10499  -0.79088
 Alpha  occ. eigenvalues --   -0.63705  -0.50875  -0.43608  -0.43219  -0.30599
 Alpha  occ. eigenvalues --   -0.27216
 Alpha virt. eigenvalues --   -0.12871  -0.01204   0.00813   0.01647   0.05496
 Alpha virt. eigenvalues --    0.06003   0.07908   0.09034   0.09414   0.11266
 Alpha virt. eigenvalues --    0.11832   0.14379   0.16156   0.19722   0.20675

 Mulliken charges:
               1
     1  C   -0.144955
     2  C   -0.063095
     3  H    0.165020
     4  H    0.265137
     5  O   -0.222108
 Sum of Mulliken charges =   0.00000

 Dipole moment (field-independent basis, Debye):
    X=             -1.3397    Y=             -1.3814    Z=             -0.0000  Tot=              1.9243
 Quadrupole moment (field-independent basis, Debye-Ang):
   XX=            -24.3609   YY=            -13.3112   ZZ=            -19.8797
   XY=             -3.6139   XZ=             -0.0000   YZ=              0.0000

  Exact polarizability:  35.066   3.894  26.995   0.000  -0.000  20.586
 Approx polarizability:  55.366   4.501  37.256   0.000   0.000  25.859

                      1                      2                      3
                     A'                     A"                     A"
 Frequencies --    225.1466               345.8887               692.3280
 Red. masses --      4.6068                 1.2492                 1.8664
 Frc consts  --      0.1376                 0.0881                 0.5271
 IR Inten    --     55.9791               137.0736                18.0495

                      4                      5                      6
                     A'                     A'                     A'
 Frequencies --    960.6398              1092.7242              1343.0742
 Red. masses --      2.3593                 1.7288                 1.2148
 Frc consts  --      1.2828                 1.2162                 1.2911
 IR Inten    --     17.5676               152.9472                 7.6351

                      7                      8                      9
                     A'                     A'                     A'
 Frequencies --   1743.3456              3012.0406              3816.8828
 Red. masses --      8.1267                 1.0776                 1.0667
 Frc consts  --     14.5522                 5.7602                 9.1557
 IR Inten    --     48.5147                31.6988                75.8456

 - Thermochemistry -
 -------------------
 Temperature   298.150 Kelvin.  Pressure   1.00000 Atm.
 Atom     1 has atomic number  6 and mass  12.00000

 Molecular mass:    42.01056 amu.
 Principal axes and moments of inertia in atomic units:
                           1         2         3
     Eigenvalues --    17.28179 160.61173 177.89352
           X            0.82685  -0.56243   0.00000
           Y            0.56243   0.82685   0.00000
           Z           -0.00000   0.00000   1.00000
 This molecule is an asymmetric top.
 Rotational symmetry number  1.
 Rotational temperatures (Kelvin)      5.01186     0.53927     0.48689
 Rotational constants (GHZ):         104.43024    11.23667    10.14506
 Zero-point vibrational energy      79145.4 (Joules/Mol)
                                   18.91619 (Kcal/Mol)
 Warning -- explicit consideration of   2 degrees of freedom as
           vibrations may cause significant error
 Vibrational temperatures:    323.94   497.66   996.10  1382.14  1572.18
          (Kelvin)           1932.38  2508.28  4333.65  5491.64

 Zero-point correction=                           0.030145 (Hartree/Particle)
 Thermal correction to Energy=                    0.034061
 Thermal correction to Enthalpy=                  0.035005
 Thermal correction to Gibbs Free Energy=         0.005747
 Sum of electronic and zero-point Energies=           -152.484102
 Sum of electronic and thermal Energies=              -152.480186
 Sum of electronic and thermal Enthalpies=            -152.479241
 Sum of electronic and thermal Free Energies=         -152.508500

                     E (Thermal)             CV                S
                      KCal/Mol        Cal/Mol-Kelvin    Cal/Mol-Kelvin
 Total                   21.374             11.060             61.580
 Electronic               0.000              0.000              0.000
 Translational            0.889              2.981             37.133
 Rotational               0.889              2.981             20.829
 Vibrational             19.596              5.099              3.618
 Vibration     1          0.650              1.803              1.917
 Vibration     2          0.724              1.584              1.185

 Optimization completed.
    -- Stationary point found.
 Normal termination of Gaussian 09 at Sun Mar  4 21:13:25 2018.
