 Gaussian 09, Revision D.01,
 Gaussian 09:  ES64L-G09RevD.01 24-Apr-2013

 ---------------------------
 #p b3lyp/6-311++g(d,p) freq
 ---------------------------

 ---
 min
 ---
 Symbolic Z-matrix:
 Charge =  1 Multiplicity = 2

                         Standard orientation:
 ---------------------------------------------------------------------
 Center     Atomic      Atomic             Coordinates (Angstroms)
 Number     Number       Type             X           Y           Z
 ---------------------------------------------------------------------
      1          6           0        1.323995    0.007505    0.000556
      2          6           0        0.084853    0.017126   -0.001139
      3          1           0        2.398270    0.040079    0.000132
      4          1           0       -1.675707    0.718545    0.000562
      5          8           0       -1.146956   -0.113301    0.000350
 ---------------------------------------------------------------------

 SCF Done:  E(UB3LYP) =  -152.229954624     A.U. after   14 cycles

 The electronic state is 2-A.
 Alpha  occ. eigenvalues --  -19.52954 -10.57980 -10.52440  -1.44685  -1.09356
 Alpha  occ. eigenvalues --   -0.95811  -0.82034  -0.77898  -0.76995  -0.59318
 Alpha  occ. eigenvalues --   -0.58307
 Alpha virt. eigenvalues --   -0.25448  -0.24882  -0.23370  -0.15358  -0.13580
 Alpha virt. eigenvalues --   -0.10843  -0.10831  -0.08865  -0.06794  -0.05369
 Alpha virt. eigenvalues --   -0.02899  -0.01245   0.00354   0.01988   0.06288

  Beta  occ. eigenvalues --  -19.52309 -10.57753 -10.51433  -1.43494  -1.06040
  Beta  occ. eigenvalues --   -0.95022  -0.80962  -0.77317  -0.72918  -0.57224
  Beta virt. eigenvalues --   -0.46284  -0.24872  -0.22946  -0.20002  -0.14767
  Beta virt. eigenvalues --   -0.13115  -0.10627  -0.10282  -0.08498  -0.06720
  Beta virt. eigenvalues --   -0.04684  -0.02735  -0.01082   0.00632   0.02046

 Mulliken charges and spin densities:
               1          2
     1  C    0.223860   0.654680
     2  C    0.155197   0.160484
     3  H    0.304212  -0.027391
     4  H    0.382414  -0.008005
     5  O   -0.065683   0.220232
 Sum of Mulliken charges =   1.00000   1.00000

 Dipole moment (field-independent basis, Debye):
    X=              0.8035    Y=              1.7546    Z=             -0.0006  Tot=              1.9299
 Quadrupole moment (field-independent basis, Debye-Ang):
   XX=             -1.1299   YY=            -14.8363   ZZ=            -14.8849
   XY=             -3.1221   XZ=              0.0002   YZ=              0.0019

  Exact polarizability:  37.469  -0.915  12.734   0.008  -0.002  11.011
 Approx polarizability:  63.689  -0.715  16.093   0.028  -0.003  14.030

                      1                      2                      3
                      A                      A                      A
 Frequencies --    379.8776               449.5201               612.9919
 Red. masses --      5.5980                 3.5743                 1.1529
 Frc consts  --      0.4760                 0.4255                 0.2553
 IR Inten    --     13.2266                 7.1907                62.5201

                      4                      5                      6
                      A                      A                      A
 Frequencies --    627.3274              1160.0284              1210.5502
 Red. masses --      1.3917                 1.2938                 5.4700
 Frc consts  --      0.3227                 1.0258                 4.7228
 IR Inten    --     14.2834               227.4768                38.0966

                      7                      8                      9
                      A                      A                      A
 Frequencies --   2203.7581              3358.2696              3541.8388
 Red. masses --      6.8730                 1.1523                 1.0674
 Frc consts  --     19.6663                 7.6567                 7.8894
 IR Inten    --     36.8194               272.2279               423.9260

 - Thermochemistry -
 -------------------
 Temperature   298.150 Kelvin.  Pressure   1.00000 Atm.
 Atom     1 has atomic number  6 and mass  12.00000

 Molecular mass:    42.01056 amu.
 Principal axes and moments of inertia in atomic units:
                           1         2         3
     Eigenvalues --     2.48012 181.41580 183.89576
           X            0.99977  -0.02168  -0.00003
           Y            0.02168   0.99976   0.00062
           Z            0.00001  -0.00062   1.00000
 This molecule is an asymmetric top.
 Rotational symmetry number  1.
 Rotational temperatures (Kelvin)     34.92330     0.47743     0.47099
 Rotational constants (GHZ):         727.68440     9.94809     9.81394
 Zero-point vibrational energy      81012.1 (Joules/Mol)
                                   19.36235 (Kcal/Mol)
 Warning -- explicit consideration of   3 degrees of freedom as
           vibrations may cause significant error
 Vibrational temperatures:    546.56   646.76   881.96   902.58  1669.02
          (Kelvin)           1741.71  3170.71  4831.79  5095.91

 Zero-point correction=                           0.030856 (Hartree/Particle)
 Thermal correction to Energy=                    0.034617
 Thermal correction to Enthalpy=                  0.035561
 Thermal correction to Gibbs Free Energy=         0.006899
 Sum of electronic and zero-point Energies=           -152.199099
 Sum of electronic and thermal Energies=              -152.195338
 Sum of electronic and thermal Enthalpies=            -152.194394
 Sum of electronic and thermal Free Energies=         -152.223055

                     E (Thermal)             CV                S
                      KCal/Mol        Cal/Mol-Kelvin    Cal/Mol-Kelvin
 Total                   21.722             11.251             60.323
 Electronic               0.000              0.000              1.377
 Translational            0.889              2.981             37.133
 Rotational               0.889              2.981             19.054
 Vibrational             19.945              5.290              2.759
 Vibration     1          0.750              1.513              1.040
 Vibration     2          0.808              1.362              0.797
 Vibration     3          0.972              1.004              0.428

 Normal termination of Gaussian 09 at Thu Jan 24 15:37:28 2019.
