 Gaussian 09, Revision D.01,
 Gaussian 09:  ES64L-G09RevD.01 24-Apr-2013

 ---------------------------
 #p b3lyp/6-311++g(d,p) freq
 ---------------------------

 ---
 min
 ---
 Symbolic Z-matrix:
 Charge =  1 Multiplicity = 4

                         Standard orientation:
 ---------------------------------------------------------------------
 Center     Atomic      Atomic             Coordinates (Angstroms)
 Number     Number       Type             X           Y           Z
 ---------------------------------------------------------------------
      1          6           0        0.000000   -0.712084   -0.120515
      2          6           0        0.000000    0.712084   -0.120515
      3          1           0       -0.000000    1.415781    0.723089
      4          1           0       -0.000000   -1.415781    0.723089
 ---------------------------------------------------------------------

 SCF Done:  E(UB3LYP) =  -76.8262146602     A.U. after   10 cycles

 The electronic state is 4-A2.
 Alpha  occ. eigenvalues --  -10.60450 -10.60403  -1.12553  -0.90274  -0.80161
 Alpha  occ. eigenvalues --   -0.67169  -0.65402  -0.55698
 Alpha virt. eigenvalues --   -0.38437  -0.18523  -0.16077  -0.13235  -0.11246
 Alpha virt. eigenvalues --   -0.09850  -0.07136  -0.06065  -0.05201  -0.05158
 Alpha virt. eigenvalues --   -0.02750  -0.00267   0.03255   0.05222   0.19641

  Beta  occ. eigenvalues --  -10.57914 -10.57878  -1.04433  -0.84652  -0.76890
  Beta virt. eigenvalues --   -0.49433  -0.46441  -0.34787  -0.28887  -0.17516
  Beta virt. eigenvalues --   -0.14748  -0.11679  -0.10203  -0.08701  -0.05448
  Beta virt. eigenvalues --   -0.04839  -0.04281  -0.02558  -0.02331   0.00538

 Mulliken charges and spin densities:
               1          2
     1  C    0.246636   1.468754
     2  C    0.246636   1.468754
     3  H    0.253364   0.031246
     4  H    0.253364   0.031246
 Sum of Mulliken charges =   1.00000   3.00000

 Dipole moment (field-independent basis, Debye):
    X=             -0.0000    Y=              0.0000    Z=              1.2676  Tot=              1.2676
 Quadrupole moment (field-independent basis, Debye-Ang):
   XX=             -9.9141   YY=             -4.7354   ZZ=             -9.4592
   XY=              0.0000   XZ=             -0.0000   YZ=             -0.0000

  Exact polarizability:  10.190   0.000  24.994   0.000   0.000  12.457
 Approx polarizability:  13.486   0.000  33.953  -0.000   0.000  15.099

                      1                      2                      3
                     A1                     A2                     B2
 Frequencies --    815.0413               983.0675              1055.1371
 Red. masses --      1.0471                 1.3060                 1.3934
 Frc consts  --      0.4098                 0.7436                 0.9140
 IR Inten    --      4.8380                 0.0000                30.1332

                      4                      5                      6
                     A1                     B2                     A1
 Frequencies --   1364.5975              3063.0971              3080.2753
 Red. masses --      7.4218                 1.0827                 1.1018
 Frc consts  --      8.1427                 5.9851                 6.1594
 IR Inten    --      6.2553                48.9541                49.5250

 - Thermochemistry -
 -------------------
 Temperature   298.150 Kelvin.  Pressure   1.00000 Atm.
 Atom     1 has atomic number  6 and mass  12.00000

 Molecular mass:    26.01565 amu.
 Principal axes and moments of inertia in atomic units:
                           1         2         3
     Eigenvalues --     4.72571  57.88613  62.61183
           X            0.00000  -0.00000   1.00000
           Y            1.00000  -0.00000  -0.00000
           Z            0.00000   1.00000   0.00000
 This molecule is an asymmetric top.
 Rotational symmetry number  2.
 Rotational temperatures (Kelvin)     18.32823     1.49628     1.38335
 Rotational constants (GHZ):         381.89879    31.17744    28.82428
 Zero-point vibrational energy      61973.8 (Joules/Mol)
                                   14.81210 (Kcal/Mol)
 Vibrational temperatures:   1172.66  1414.41  1518.11  1963.35  4407.11
          (Kelvin)           4431.82

 Zero-point correction=                           0.023605 (Hartree/Particle)
 Thermal correction to Energy=                    0.026589
 Thermal correction to Enthalpy=                  0.027533
 Thermal correction to Gibbs Free Energy=         0.001419
 Sum of electronic and zero-point Energies=            -76.802610
 Sum of electronic and thermal Energies=               -76.799626
 Sum of electronic and thermal Enthalpies=             -76.798681
 Sum of electronic and thermal Free Energies=          -76.824796

                     E (Thermal)             CV                S
                      KCal/Mol        Cal/Mol-Kelvin    Cal/Mol-Kelvin
 Total                   16.685              7.424             54.962
 Electronic               0.000              0.000              2.755
 Translational            0.889              2.981             35.704
 Rotational               0.889              2.981             16.112
 Vibrational             14.907              1.463              0.391

 Optimization completed.
    -- Stationary point found.
 Normal termination of Gaussian 09 at Thu Jan 24 15:34:15 2019.
