 Gaussian 09, Revision D.01,
 Gaussian 09:  ES64L-G09RevD.01 24-Apr-2013

 ---------------------------
 #p b3lyp/6-311++g(d,p) freq
 ---------------------------

 ---
 min
 ---
 Symbolic Z-matrix:
 Charge =  1 Multiplicity = 4

                         Standard orientation:
 ---------------------------------------------------------------------
 Center     Atomic      Atomic             Coordinates (Angstroms)
 Number     Number       Type             X           Y           Z
 ---------------------------------------------------------------------
      1          6           0        1.342503    0.026945    0.000000
      2          6           0        0.000000    0.480681   -0.000000
      3          1           0        1.792536   -0.969020    0.000000
      4          1           0       -1.155378   -1.107967    0.000000
      5          8           0       -1.086522   -0.121096   -0.000000
 ---------------------------------------------------------------------

 SCF Done:  E(UB3LYP) =  -152.130881071     A.U. after   13 cycles

 The electronic state is 4-A".
 Alpha  occ. eigenvalues --  -19.52220 -10.61169 -10.55240  -1.44630  -1.08050
 Alpha  occ. eigenvalues --   -0.97584  -0.81492  -0.77501  -0.76473  -0.60378
 Alpha  occ. eigenvalues --   -0.58061  -0.54226
 Alpha virt. eigenvalues --   -0.31156  -0.22263  -0.15730  -0.13358  -0.10948
 Alpha virt. eigenvalues --   -0.09391  -0.07909  -0.07054  -0.05114  -0.04884
 Alpha virt. eigenvalues --   -0.02761   0.00160   0.01053   0.02307   0.02514

  Beta  occ. eigenvalues --  -19.51313 -10.59243 -10.52351  -1.42574  -1.01451
  Beta  occ. eigenvalues --   -0.94270  -0.77667  -0.72955  -0.72574
  Beta virt. eigenvalues --   -0.43183  -0.42010  -0.34290  -0.23071  -0.20704
  Beta virt. eigenvalues --   -0.14555  -0.12447  -0.10174  -0.08597  -0.06775
  Beta virt. eigenvalues --   -0.05861  -0.04354  -0.04122  -0.01254   0.01522

 Mulliken charges and spin densities:
               1          2
     1  C    0.125571   1.733988
     2  C    0.241547   0.978920
     3  H    0.222772   0.021541
     4  H    0.361566   0.064434
     5  O    0.048544   0.201116
 Sum of Mulliken charges =   1.00000   3.00000

 Dipole moment (field-independent basis, Debye):
    X=              1.1363    Y=             -2.5708    Z=              0.0000  Tot=              2.8107
 Quadrupole moment (field-independent basis, Debye-Ang):
   XX=             -9.3027   YY=            -11.3625   ZZ=            -15.3447
   XY=              0.9073   XZ=             -0.0000   YZ=             -0.0000

  Exact polarizability:  32.842   0.339  19.312  -0.000   0.000  12.724
 Approx polarizability:  48.869   1.604  25.838   0.000  -0.000  16.642

                      1                      2                      3
                     A'                     A"                     A"
 Frequencies --    453.3024               534.7182               750.7639
 Red. masses --      2.4323                 1.3891                 1.4732
 Frc consts  --      0.2945                 0.2340                 0.4892
 IR Inten    --      3.2104               134.8826                14.1247

                      4                      5                      6
                     A'                     A'                     A'
 Frequencies --    893.4767               971.8044              1212.0975
 Red. masses --      1.2047                 1.6357                 5.2830
 Frc consts  --      0.5666                 0.9102                 4.5731
 IR Inten    --    107.0736               133.2885                 4.9681

                      7                      8                      9
                     A'                     A'                     A'
 Frequencies --   1642.2093              3122.9908              3448.1658
 Red. masses --     10.9843                 1.0925                 1.0652
 Frc consts  --     17.4533                 6.2781                 7.4618
 IR Inten    --    221.1177                47.9862               253.7760

 - Thermochemistry -
 -------------------
 Temperature   298.150 Kelvin.  Pressure   1.00000 Atm.
 Atom     1 has atomic number  6 and mass  12.00000

 Molecular mass:    42.01056 amu.
 Principal axes and moments of inertia in atomic units:
                           1         2         3
     Eigenvalues --    17.81035 161.39598 179.20634
           X            0.99862  -0.05252   0.00000
           Y            0.05252   0.99862   0.00000
           Z            0.00000  -0.00000   1.00000
 This molecule is an asymmetric top.
 Rotational symmetry number  1.
 Rotational temperatures (Kelvin)      4.86312     0.53665     0.48332
 Rotational constants (GHZ):         101.33102    11.18207    10.07074
 Zero-point vibrational energy      77933.9 (Joules/Mol)
                                   18.62665 (Kcal/Mol)
 Warning -- explicit consideration of   2 degrees of freedom as
           vibrations may cause significant error
 Vibrational temperatures:    652.20   769.34  1080.18  1285.51  1398.21
          (Kelvin)           1743.94  2362.77  4493.28  4961.14

 Zero-point correction=                           0.029683 (Hartree/Particle)
 Thermal correction to Energy=                    0.033186
 Thermal correction to Enthalpy=                  0.034130
 Thermal correction to Gibbs Free Energy=         0.004355
 Sum of electronic and zero-point Energies=           -152.101198
 Sum of electronic and thermal Energies=              -152.097695
 Sum of electronic and thermal Enthalpies=            -152.096751
 Sum of electronic and thermal Free Energies=         -152.126526

                     E (Thermal)             CV                S
                      KCal/Mol        Cal/Mol-Kelvin    Cal/Mol-Kelvin
 Total                   20.824             10.384             62.667
 Electronic               0.000              0.000              2.755
 Translational            0.889              2.981             37.133
 Rotational               0.889              2.981             20.871
 Vibrational             19.047              4.423              1.908
 Vibration     1          0.812              1.354              0.786
 Vibration     2          0.890              1.173              0.577

 Optimization completed.
    -- Stationary point found.
 Normal termination of Gaussian 09 at Thu Jan 24 15:37:44 2019.
