 Gaussian 09, Revision D.01,
 Gaussian 09:  ES64L-G09RevD.01 24-Apr-2013

 ---------------------------
 #p b3lyp/6-311++g(d,p) freq
 ---------------------------

 ---
 min
 ---
 Symbolic Z-matrix:
 Charge =  0 Multiplicity = 3

                         Standard orientation:
 ---------------------------------------------------------------------
 Center     Atomic      Atomic             Coordinates (Angstroms)
 Number     Number       Type             X           Y           Z
 ---------------------------------------------------------------------
      1          6           0       -0.000000    0.686947    0.000000
      2          6           0        0.000000   -0.686947    0.000000
      3          1           0        0.931111    1.264966   -0.000000
      4          1           0       -0.931111   -1.264966   -0.000000
 ---------------------------------------------------------------------

 SCF Done:  E(UB3LYP) =  -77.2001296736     A.U. after   10 cycles

 The electronic state is 3-AU.
 Alpha  occ. eigenvalues --  -10.24058 -10.23992  -0.79881  -0.59243  -0.45034
 Alpha  occ. eigenvalues --   -0.35897  -0.34145  -0.20373
 Alpha virt. eigenvalues --   -0.06104   0.00305   0.01221   0.05428   0.05909
 Alpha virt. eigenvalues --    0.08603   0.09853   0.11116   0.11761   0.13165
 Alpha virt. eigenvalues --    0.15651   0.17090   0.17769   0.31918   0.45810

  Beta  occ. eigenvalues --  -10.22621 -10.22563  -0.74874  -0.56058  -0.43067
  Beta  occ. eigenvalues --   -0.28720
  Beta virt. eigenvalues --   -0.20250  -0.08002   0.00202   0.00585   0.01488
  Beta virt. eigenvalues --    0.05849   0.06813   0.08690   0.10691   0.12601
  Beta virt. eigenvalues --    0.12602   0.13734   0.16312   0.17718   0.18851

 Mulliken charges and spin densities:
               1          2
     1  C   -0.150148   0.999169
     2  C   -0.150148   0.999169
     3  H    0.150148   0.000831
     4  H    0.150148   0.000831
 Sum of Mulliken charges =  -0.00000   2.00000

 Dipole moment (field-independent basis, Debye):
    X=             -0.0000    Y=             -0.0000    Z=             -0.0000  Tot=              0.0000
 Quadrupole moment (field-independent basis, Debye-Ang):
   XX=            -13.4920   YY=            -13.7567   ZZ=            -12.4232
   XY=              3.5695   XZ=              0.0000   YZ=              0.0000

  Exact polarizability:  24.171  -1.782  41.179  -0.000   0.000  14.645
 Approx polarizability:  27.760  -3.057  61.408   0.000  -0.000  18.909

                      1                      2                      3
                     BU                     AU                     AG
 Frequencies --    800.7554               848.4666              1105.0798
 Red. masses --      1.0848                 1.0848                 1.3599
 Frc consts  --      0.4098                 0.4601                 0.9784
 IR Inten    --    273.1904                 4.2647                 0.0000

                      4                      5                      6
                     AG                     BU                     AG
 Frequencies --   1420.5648              3049.2316              3058.4449
 Red. masses --      7.1742                 1.0848                 1.0920
 Frc consts  --      8.5300                 5.9427                 6.0184
 IR Inten    --      0.0000                32.7277                 0.0000

 - Thermochemistry -
 -------------------
 Temperature   298.150 Kelvin.  Pressure   1.00000 Atm.
 Atom     1 has atomic number  6 and mass  12.00000

 Molecular mass:    26.01565 amu.
 Principal axes and moments of inertia in atomic units:
                           1         2         3
     Eigenvalues --     4.71903  53.48334  58.20236
           X            0.17663   0.98428   0.00000
           Y            0.98428  -0.17663   0.00000
           Z           -0.00000  -0.00000   1.00000
 This molecule is an asymmetric top.
 Rotational symmetry number  2.
 Rotational temperatures (Kelvin)     18.35416     1.61945     1.48815
 Rotational constants (GHZ):         382.43905    33.74399    31.00804
 Zero-point vibrational energy      61503.3 (Joules/Mol)
                                   14.69963 (Kcal/Mol)
 Vibrational temperatures:   1152.11  1220.75  1589.96  2043.87  4387.16
          (Kelvin)           4400.41

 Zero-point correction=                           0.023425 (Hartree/Particle)
 Thermal correction to Energy=                    0.026433
 Thermal correction to Enthalpy=                  0.027377
 Thermal correction to Gibbs Free Energy=         0.001576
 Sum of electronic and zero-point Energies=            -77.176704
 Sum of electronic and thermal Energies=               -77.173697
 Sum of electronic and thermal Enthalpies=             -77.172753
 Sum of electronic and thermal Free Energies=          -77.198553

                     E (Thermal)             CV                S
                      KCal/Mol        Cal/Mol-Kelvin    Cal/Mol-Kelvin
 Total                   16.587              7.560             54.302
 Electronic               0.000              0.000              2.183
 Translational            0.889              2.981             35.704
 Rotational               0.889              2.981             15.959
 Vibrational             14.809              1.598              0.456

 Optimization completed.
    -- Stationary point found.
 Normal termination of Gaussian 09 at Sun Mar  4 20:56:16 2018.
