 Gaussian 09, Revision D.01,
 Gaussian 09:  ES64L-G09RevD.01 24-Apr-2013

 ---------------------------
 #p b3lyp/6-311++g(d,p) freq
 ---------------------------

 ---
 min
 ---
 Symbolic Z-matrix:
 Charge =  0 Multiplicity = 1

                         Standard orientation:
 ---------------------------------------------------------------------
 Center     Atomic      Atomic             Coordinates (Angstroms)
 Number     Number       Type             X           Y           Z
 ---------------------------------------------------------------------
      1          6           0        1.429893   -0.226343    0.014931
      2          6           0        0.203358    0.224642   -0.003882
      3          1           0        0.443231    1.310185   -0.066141
      4          1           0       -1.679462    0.499872    0.154694
      5          8           0       -1.070410   -0.224982   -0.019356
 ---------------------------------------------------------------------

 SCF Done:  E(RB3LYP) =  -152.512272822     A.U. after   11 cycles

 The electronic state is 1-A.
 Alpha  occ. eigenvalues --  -19.20167 -10.25065 -10.23294  -1.10732  -0.79707
 Alpha  occ. eigenvalues --   -0.61844  -0.54363  -0.43857  -0.40852  -0.30442
 Alpha  occ. eigenvalues --   -0.27151
 Alpha virt. eigenvalues --   -0.11511  -0.02606   0.01377   0.01963   0.05053
 Alpha virt. eigenvalues --    0.05815   0.07890   0.08747   0.09947   0.11541
 Alpha virt. eigenvalues --    0.12550   0.13149   0.16085   0.18892   0.20816

 Mulliken charges:
               1
     1  C   -0.139891
     2  C   -0.075299
     3  H    0.146489
     4  H    0.277542
     5  O   -0.208841
 Sum of Mulliken charges =   0.00000

 Dipole moment (field-independent basis, Debye):
    X=             -2.9570    Y=              2.4503    Z=              0.2512  Tot=              3.8485
 Quadrupole moment (field-independent basis, Debye-Ang):
   XX=            -21.0247   YY=            -15.6924   ZZ=            -19.7671
   XY=             -1.5057   XZ=             -0.7097   YZ=              0.0403

  Exact polarizability:  38.455  -3.539  24.638  -0.056  -0.009  20.918
 Approx polarizability:  57.475  -8.025  37.187   0.108  -0.067  26.474

                      1                      2                      3
                      A                      A                      A
 Frequencies --     97.5020               234.8532               618.1367
 Red. masses --      1.1155                 4.3381                 2.1571
 Frc consts  --      0.0062                 0.1410                 0.4856
 IR Inten    --     92.2100                12.8813                25.9169

                      4                      5                      6
                      A                      A                      A
 Frequencies --    937.7379              1113.4748              1274.0263
 Red. masses --      2.2048                 1.7379                 1.3038
 Frc consts  --      1.1423                 1.2695                 1.2469
 IR Inten    --     72.0737                19.4514               145.0114

                      7                      8                      9
                      A                      A                      A
 Frequencies --   1820.6757              2924.1337              3841.9664
 Red. masses --      6.8726                 1.0766                 1.0673
 Frc consts  --     13.4227                 5.4236                 9.2824
 IR Inten    --     32.2586                32.2734               110.3657

 - Thermochemistry -
 -------------------
 Temperature   298.150 Kelvin.  Pressure   1.00000 Atm.
 Atom     1 has atomic number  6 and mass  12.00000

 Molecular mass:    42.01056 amu.
 Principal axes and moments of inertia in atomic units:
                           1         2         3
     Eigenvalues --    14.17096 165.70435 179.62260
           X            0.99995  -0.00727  -0.00624
           Y            0.00726   0.99997  -0.00091
           Z            0.00625   0.00087   0.99998
 This molecule is an asymmetric top.
 Rotational symmetry number  1.
 Rotational temperatures (Kelvin)      6.11207     0.52270     0.48220
 Rotational constants (GHZ):         127.35494    10.89133    10.04741
 Zero-point vibrational energy      76934.9 (Joules/Mol)
                                   18.38788 (Kcal/Mol)
 Warning -- explicit consideration of   3 degrees of freedom as
           vibrations may cause significant error
 Vibrational temperatures:    140.28   337.90   889.36  1349.19  1602.04
          (Kelvin)           1833.04  2619.54  4207.17  5527.73

 Zero-point correction=                           0.029303 (Hartree/Particle)
 Thermal correction to Energy=                    0.033617
 Thermal correction to Enthalpy=                  0.034562
 Thermal correction to Gibbs Free Energy=         0.004256
 Sum of electronic and zero-point Energies=           -152.482970
 Sum of electronic and thermal Energies=              -152.478655
 Sum of electronic and thermal Enthalpies=            -152.477711
 Sum of electronic and thermal Free Energies=         -152.508016

                     E (Thermal)             CV                S
                      KCal/Mol        Cal/Mol-Kelvin    Cal/Mol-Kelvin
 Total                   21.095             11.598             63.783
 Electronic               0.000              0.000              0.000
 Translational            0.889              2.981             37.133
 Rotational               0.889              2.981             20.672
 Vibrational             19.318              5.636              5.977
 Vibration     1          0.603              1.951              3.504
 Vibration     2          0.655              1.787              1.842
 Vibration     3          0.978              0.994              0.419

 Normal termination of Gaussian 09 at Sun Mar  4 21:13:35 2018.
