 Gaussian 09, Revision D.01,
 Gaussian 09:  ES64L-G09RevD.01 24-Apr-2013

 ---------------------------
 #p b3lyp/6-311++g(d,p) freq
 ---------------------------

 ---
 min
 ---
 Symbolic Z-matrix:
 Charge =  1 Multiplicity = 4

                         Standard orientation:
 ---------------------------------------------------------------------
 Center     Atomic      Atomic             Coordinates (Angstroms)
 Number     Number       Type             X           Y           Z
 ---------------------------------------------------------------------
      1          6           0        1.089024   -0.325968    0.000000
      2          6           0       -0.000000    0.518147    0.000000
      3          1           0        2.103321    0.096019    0.000000
      4          1           0        0.989376   -1.422229    0.000000
      5          8           0       -1.203355    0.021642    0.000000
 ---------------------------------------------------------------------

 SCF Done:  E(UB3LYP) =  -152.111225427     A.U. after   14 cycles

 The electronic state is 4-A".
 Alpha  occ. eigenvalues --  -19.57666 -10.61430 -10.54098  -1.43718  -1.09685
 Alpha  occ. eigenvalues --   -0.88649  -0.82385  -0.80260  -0.76971  -0.72775
 Alpha  occ. eigenvalues --   -0.59600  -0.58549
 Alpha virt. eigenvalues --   -0.32390  -0.17797  -0.15756  -0.13307  -0.11402
 Alpha virt. eigenvalues --   -0.11254  -0.08632  -0.08047  -0.05457  -0.03230
 Alpha virt. eigenvalues --   -0.02820  -0.01334   0.00255   0.02388   0.02851

  Beta  occ. eigenvalues --  -19.54161 -10.59581 -10.52878  -1.35576  -1.04249
  Beta  occ. eigenvalues --   -0.83708  -0.76729  -0.73562  -0.70107
  Beta virt. eigenvalues --   -0.54764  -0.45587  -0.37381  -0.25417  -0.16828
  Beta virt. eigenvalues --   -0.14358  -0.12791  -0.10501  -0.10369  -0.07392
  Beta virt. eigenvalues --   -0.07149  -0.04867  -0.02453  -0.01888  -0.00948

 Mulliken charges and spin densities:
               1          2
     1  C   -0.128859   0.776470
     2  C    0.314212   0.942690
     3  H    0.283439   0.036696
     4  H    0.275640   0.047279
     5  O    0.255568   1.196866
 Sum of Mulliken charges =   1.00000   3.00000

 Dipole moment (field-independent basis, Debye):
    X=              2.7115    Y=             -0.4220    Z=             -0.0000  Tot=              2.7441
 Quadrupole moment (field-independent basis, Debye-Ang):
   XX=             -7.8590   YY=            -12.3413   ZZ=            -15.3981
   XY=             -1.9661   XZ=              0.0000   YZ=             -0.0000

  Exact polarizability:  35.031  -3.864  20.052   0.000   0.000  13.092
 Approx polarizability:  61.064  -7.807  28.773  -0.000  -0.000  16.986

                      1                      2                      3
                     A'                     A"                     A'
 Frequencies --    383.1408               575.2289               800.8478
 Red. masses --      2.9458                 1.2641                 1.6554
 Frc consts  --      0.2548                 0.2464                 0.6255
 IR Inten    --      2.5503                 1.2190                 7.9639

                      4                      5                      6
                     A"                     A'                     A'
 Frequencies --    882.9953              1235.1174              1303.4208
 Red. masses --      1.3750                 3.2967                 1.3881
 Frc consts  --      0.6317                 2.9631                 1.3895
 IR Inten    --     51.1188                13.4820                76.8830

                      7                      8                      9
                     A'                     A'                     A'
 Frequencies --   1466.1629              2971.3531              3070.0416
 Red. masses --      6.7953                 1.0514                 1.1108
 Frc consts  --      8.6064                 5.4695                 6.1683
 IR Inten    --     37.3606               249.1537               152.1754

 - Thermochemistry -
 -------------------
 Temperature   298.150 Kelvin.  Pressure   1.00000 Atm.
 Atom     1 has atomic number  6 and mass  12.00000

 Molecular mass:    42.01056 amu.
 Principal axes and moments of inertia in atomic units:
                           1         2         3
     Eigenvalues --    20.01066 155.42188 175.43253
           X            0.98796   0.15469   0.00000
           Y           -0.15469   0.98796   0.00000
           Z           -0.00000   0.00000   1.00000
 This molecule is an asymmetric top.
 Rotational symmetry number  1.
 Rotational temperatures (Kelvin)      4.32838     0.55728     0.49372
 Rotational constants (GHZ):          90.18901    11.61189    10.28738
 Zero-point vibrational energy      75892.9 (Joules/Mol)
                                   18.13885 (Kcal/Mol)
 Warning -- explicit consideration of   2 degrees of freedom as
           vibrations may cause significant error
 Vibrational temperatures:    551.25   827.63  1152.24  1270.43  1777.06
          (Kelvin)           1875.33  2109.48  4275.11  4417.10

 Zero-point correction=                           0.028906 (Hartree/Particle)
 Thermal correction to Energy=                    0.032406
 Thermal correction to Enthalpy=                  0.033350
 Thermal correction to Gibbs Free Energy=         0.003526
 Sum of electronic and zero-point Energies=           -152.082319
 Sum of electronic and thermal Energies=              -152.078820
 Sum of electronic and thermal Enthalpies=            -152.077875
 Sum of electronic and thermal Free Energies=         -152.107699

                     E (Thermal)             CV                S
                      KCal/Mol        Cal/Mol-Kelvin    Cal/Mol-Kelvin
 Total                   20.335             10.140             62.769
 Electronic               0.000              0.000              2.755
 Translational            0.889              2.981             37.133
 Rotational               0.889              2.981             20.928
 Vibrational             18.558              4.178              1.953
 Vibration     1          0.752              1.506              1.027
 Vibration     2          0.932              1.085              0.494

 Optimization completed.
    -- Stationary point found.
 Normal termination of Gaussian 09 at Thu Jan 24 15:37:13 2019.
