 Gaussian 09, Revision D.01,
 Gaussian 09:  ES64L-G09RevD.01 24-Apr-2013

 ---------------------------
 #p b3lyp/6-311++g(d,p) freq
 ---------------------------

 ---
 min
 ---
 Symbolic Z-matrix:
 Charge =  0 Multiplicity = 1

                         Standard orientation:
 ---------------------------------------------------------------------
 Center     Atomic      Atomic             Coordinates (Angstroms)
 Number     Number       Type             X           Y           Z
 ---------------------------------------------------------------------
      1          6           0       -0.000000   -0.000000   -1.207380
      2          6           0        0.000000    0.000000    0.102674
      3          1           0        0.000000    0.938431   -1.742458
      4          1           0       -0.000000   -0.938431   -1.742458
      5          8           0        0.000000    0.000000    1.264144
 ---------------------------------------------------------------------

 SCF Done:  E(RB3LYP) =  -152.651598537     A.U. after   10 cycles

 The electronic state is 1-A1.
 Alpha  occ. eigenvalues --  -19.19741 -10.30253 -10.18524  -1.13178  -0.78845
 Alpha  occ. eigenvalues --   -0.55059  -0.50042  -0.49749  -0.46298  -0.41771
 Alpha  occ. eigenvalues --   -0.25569
 Alpha virt. eigenvalues --   -0.04946  -0.00993   0.02564   0.03205   0.03259
 Alpha virt. eigenvalues --    0.06823   0.08261   0.08808   0.10555   0.10951
 Alpha virt. eigenvalues --    0.14061   0.14086   0.15050   0.22872   0.24357

 Mulliken charges:
               1
     1  C   -0.372274
     2  C    0.295659
     3  H    0.151361
     4  H    0.151361
     5  O   -0.226107
 Sum of Mulliken charges =   0.00000

 Dipole moment (field-independent basis, Debye):
    X=             -0.0000    Y=             -0.0000    Z=             -1.5571  Tot=              1.5571
 Quadrupole moment (field-independent basis, Debye-Ang):
   XX=            -19.2392   YY=            -15.4065   ZZ=            -18.4057
   XY=             -0.0000   XZ=              0.0000   YZ=             -0.0000

  Exact polarizability:  18.767  -0.000  16.710  -0.000  -0.000  41.886
 Approx polarizability:  22.483   0.000  21.584  -0.000  -0.000  72.569

                      1                      2                      3
                     B2                     B1                     B1
 Frequencies --    444.7114               555.4552               600.8028
 Red. masses --      2.2031                10.1097                 1.2419
 Frc consts  --      0.2567                 1.8377                 0.2641
 IR Inten    --      2.2284                34.5308               107.2921

                      4                      5                      6
                     B2                     A1                     A1
 Frequencies --    987.8137              1169.5241              1405.4627
 Red. masses --      1.9250                 2.5561                 1.4871
 Frc consts  --      1.1067                 2.0599                 1.7307
 IR Inten    --      7.9762                 6.4243                18.6464

                      7                      8                      9
                     A1                     A1                     B2
 Frequencies --   2221.1250              3176.4196              3269.9322
 Red. masses --     11.9283                 1.0558                 1.1170
 Frc consts  --     34.6718                 6.2765                 7.0370
 IR Inten    --    692.8056                29.7390                 9.7453

 - Thermochemistry -
 -------------------
 Temperature   298.150 Kelvin.  Pressure   1.00000 Atm.
 Atom     1 has atomic number  6 and mass  12.00000

 Molecular mass:    42.01056 amu.
 Principal axes and moments of inertia in atomic units:
                           1         2         3
     Eigenvalues --     6.33896 175.04240 181.38136
           X            0.00000   0.00000   1.00000
           Y            0.00000   1.00000  -0.00000
           Z            1.00000  -0.00000  -0.00000
 This molecule is an asymmetric top.
 Rotational symmetry number  2.
 Rotational temperatures (Kelvin)     13.66373     0.49482     0.47752
 Rotational constants (GHZ):         284.70622    10.31031     9.94998
 Zero-point vibrational energy      82729.2 (Joules/Mol)
                                   19.77276 (Kcal/Mol)
 Warning -- explicit consideration of   3 degrees of freedom as
           vibrations may cause significant error
 Vibrational temperatures:    639.84   799.18   864.42  1421.24  1682.68
          (Kelvin)           2022.14  3195.70  4570.15  4704.70

 Zero-point correction=                           0.031510 (Hartree/Particle)
 Thermal correction to Energy=                    0.035022
 Thermal correction to Enthalpy=                  0.035966
 Thermal correction to Gibbs Free Energy=         0.008575
 Sum of electronic and zero-point Energies=           -152.620089
 Sum of electronic and thermal Energies=              -152.616577
 Sum of electronic and thermal Enthalpies=            -152.615633
 Sum of electronic and thermal Free Energies=         -152.643024

                     E (Thermal)             CV                S
                      KCal/Mol        Cal/Mol-Kelvin    Cal/Mol-Kelvin
 Total                   21.976             10.218             57.649
 Electronic               0.000              0.000              0.000
 Translational            0.889              2.981             37.133
 Rotational               0.889              2.981             18.560
 Vibrational             20.199              4.256              1.956
 Vibration     1          0.804              1.373              0.812
 Vibration     2          0.911              1.128              0.533
 Vibration     3          0.959              1.030              0.448

 Optimization completed.
    -- Stationary point found.
 Normal termination of Gaussian 09 at Sun Mar  4 21:13:18 2018.
