 Gaussian 09, Revision D.01,
 Gaussian 09:  ES64L-G09RevD.01 24-Apr-2013

 ---------------------------
 #p b3lyp/6-311++g(d,p) freq
 ---------------------------

 ---
 min
 ---
 Symbolic Z-matrix:
 Charge =  0 Multiplicity = 1

                         Standard orientation:
 ---------------------------------------------------------------------
 Center     Atomic      Atomic             Coordinates (Angstroms)
 Number     Number       Type             X           Y           Z
 ---------------------------------------------------------------------
      1          6           0        0.000000   -0.000000    0.818856
      2          6           0       -0.000000    0.000000   -0.476183
      3          1           0       -0.000000    0.938618   -1.028017
      4          1           0       -0.000000   -0.938618   -1.028017
 ---------------------------------------------------------------------

 SCF Done:  E(RB3LYP) =  -77.2878586452     A.U. after   10 cycles

 The electronic state is 1-A1.
 Alpha  occ. eigenvalues --  -10.24277 -10.18772  -0.79644  -0.55171  -0.48091
 Alpha  occ. eigenvalues --   -0.30921  -0.30725
 Alpha virt. eigenvalues --   -0.11237  -0.00751  -0.00387   0.02171   0.04885
 Alpha virt. eigenvalues --    0.06268   0.08576   0.10474   0.11544   0.12493
 Alpha virt. eigenvalues --    0.14154   0.14175   0.17015   0.22506   0.34176

 Mulliken charges:
               1
     1  C   -0.105361
     2  C   -0.225594
     3  H    0.165478
     4  H    0.165478
 Sum of Mulliken charges =   0.00000

 Dipole moment (field-independent basis, Debye):
    X=             -0.0000    Y=             -0.0000    Z=             -2.5126  Tot=              2.5126
 Quadrupole moment (field-independent basis, Debye-Ang):
   XX=            -14.5806   YY=            -10.5285   ZZ=            -14.5275
   XY=             -0.0000   XZ=             -0.0000   YZ=              0.0000

  Exact polarizability:  17.996  -0.000  19.574  -0.000  -0.000  30.485
 Approx polarizability:  22.310   0.000  27.227   0.000  -0.000  47.907

                      1                      2                      3
                     B2                     B1                     A1
 Frequencies --    353.2240               755.7035              1212.4670
 Red. masses --      1.3382                 1.3409                 1.0978
 Frc consts  --      0.0984                 0.4512                 0.9508
 IR Inten    --      5.6491                95.5634                26.3865

                      4                      5                      6
                     A1                     A1                     B2
 Frequencies --   1706.0012              3111.8874              3190.2637
 Red. masses --      6.7178                 1.0666                 1.1098
 Frc consts  --     11.5196                 6.0854                 6.6551
 IR Inten    --     91.3535                48.4421                20.2357

 - Thermochemistry -
 -------------------
 Temperature   298.150 Kelvin.  Pressure   1.00000 Atm.
 Atom     1 has atomic number  6 and mass  12.00000

 Molecular mass:    26.01565 amu.
 Principal axes and moments of inertia in atomic units:
                           1         2         3
     Eigenvalues --     6.34148  45.48654  51.82802
           X            0.00000  -0.00000   1.00000
           Y           -0.00000   1.00000   0.00000
           Z            1.00000   0.00000  -0.00000
 This molecule is an asymmetric top.
 Rotational symmetry number  2.
 Rotational temperatures (Kelvin)     13.65830     1.90416     1.67118
 Rotational constants (GHZ):         284.59305    39.67638    34.82173
 Zero-point vibrational energy      61784.4 (Joules/Mol)
                                   14.76683 (Kcal/Mol)
 Warning -- explicit consideration of   1 degrees of freedom as
           vibrations may cause significant error
 Vibrational temperatures:    508.21  1087.29  1744.47  2454.55  4477.31
          (Kelvin)           4590.07

 Zero-point correction=                           0.023532 (Hartree/Particle)
 Thermal correction to Energy=                    0.026833
 Thermal correction to Enthalpy=                  0.027777
 Thermal correction to Gibbs Free Energy=         0.002536
 Sum of electronic and zero-point Energies=            -77.264326
 Sum of electronic and thermal Energies=               -77.261026
 Sum of electronic and thermal Enthalpies=             -77.260082
 Sum of electronic and thermal Free Energies=          -77.285322

                     E (Thermal)             CV                S
                      KCal/Mol        Cal/Mol-Kelvin    Cal/Mol-Kelvin
 Total                   16.838              8.490             53.123
 Electronic               0.000              0.000              0.000
 Translational            0.889              2.981             35.704
 Rotational               0.889              2.981             15.976
 Vibrational             15.060              2.528              1.442
 Vibration     1          0.729              1.569              1.152

 Optimization completed.
    -- Stationary point found.

 1\1\ CITASK-GV1412\Freq\RB3LYP\6-311++G(d,p)\C2H2\EERD\04-Mar-2018\0\\
 #p b3lyp/6-311++g(d,p) freq\\min\\0,1\C,0.740773596,0.489455653,0.0796
 91314\C,0.0076164039,-0.552928653,-0.1506173138\H,-0.0624253095,-1.351
 9432913,0.5857212007\H,-0.54715869,-0.6422627085,-1.0832312016\\Versio
 n=ES64L-G09RevD.01\State=1-A1\HF=-77.2878586\RMSD=3.007e-09\RMSF=3.096
 e-06\ZeroPoint=0.0235324\Thermal=0.0268329\Dipole=-0.559635,-0.7956748
 ,-0.1757996\DipoleDeriv=0.0321904,0.3730352,0.0322281,0.3730352,0.2709
 352,0.1782269,0.0322281,0.1782269,-0.3365683,-0.4536094,-0.353109,0.03

 Normal termination of Gaussian 09 at Sun Mar  4 20:56:10 2018.
