 Gaussian 09, Revision D.01,
 Gaussian 09:  ES64L-G09RevD.01 24-Apr-2013

 ---------------------------
 #p b3lyp/6-311++g(d,p) freq
 ---------------------------

 ---
 min
 ---
 Symbolic Z-matrix:
 Charge =  1 Multiplicity = 4

                         Standard orientation:
 ---------------------------------------------------------------------
 Center     Atomic      Atomic             Coordinates (Angstroms)
 Number     Number       Type             X           Y           Z
 ---------------------------------------------------------------------
      1          6           0        0.000000    0.000000   -0.525021
      2          6           0       -0.000000   -0.000000    0.880416
      3          1           0       -0.000000    0.952959   -1.066184
      4          1           0       -0.000000   -0.952959   -1.066184
 ---------------------------------------------------------------------

 SCF Done:  E(UB3LYP) =  -76.8158282164     A.U. after   11 cycles

 The electronic state is 4-A2.
 Alpha  occ. eigenvalues --  -10.62322 -10.59006  -1.13165  -0.88811  -0.78681
 Alpha  occ. eigenvalues --   -0.71333  -0.65833  -0.55860
 Alpha virt. eigenvalues --   -0.38236  -0.18635  -0.14291  -0.13566  -0.11395
 Alpha virt. eigenvalues --   -0.09271  -0.07596  -0.06716  -0.04963  -0.03259
 Alpha virt. eigenvalues --   -0.01648  -0.01094   0.00689   0.03024   0.21066

  Beta  occ. eigenvalues --  -10.58098 -10.57970  -1.06047  -0.82303  -0.75907
  Beta virt. eigenvalues --   -0.49998  -0.47922  -0.35133  -0.28117  -0.17741
  Beta virt. eigenvalues --   -0.13844  -0.12212  -0.10420  -0.08464  -0.06597
  Beta virt. eigenvalues --   -0.04757  -0.03764  -0.02385  -0.01186   0.01075

 Mulliken charges and spin densities:
               1          2
     1  C   -0.034336   0.672482
     2  C    0.517532   2.249702
     3  H    0.258402   0.038908
     4  H    0.258402   0.038908
 Sum of Mulliken charges =   1.00000   3.00000

 Dipole moment (field-independent basis, Debye):
    X=             -0.0000    Y=              0.0000    Z=             -0.6084  Tot=              0.6084
 Quadrupole moment (field-independent basis, Debye-Ang):
   XX=             -9.8211   YY=             -8.8143   ZZ=             -5.5801
   XY=              0.0000   XZ=              0.0000   YZ=             -0.0000

  Exact polarizability:   9.417  -0.000  13.100   0.000   0.000  23.181
 Approx polarizability:  12.599   0.000  15.847   0.000  -0.000  34.371

                      1                      2                      3
                     B2                     B1                     A1
 Frequencies --   1000.1085              1049.5672              1302.5788
 Red. masses --      1.2850                 1.3192                 5.9475
 Frc consts  --      0.7573                 0.8562                 5.9455
 IR Inten    --      6.1417                33.8299                 6.8351

                      4                      5                      6
                     A1                     A1                     B2
 Frequencies --   1402.1509              3022.7662              3148.9209
 Red. masses --      1.1455                 1.0458                 1.1240
 Frc consts  --      1.3268                 5.6298                 6.5664
 IR Inten    --      9.0276                44.7336                70.6989

 - Thermochemistry -
 -------------------
 Temperature   298.150 Kelvin.  Pressure   1.00000 Atm.
 Atom     1 has atomic number  6 and mass  12.00000

 Molecular mass:    26.01565 amu.
 Principal axes and moments of inertia in atomic units:
                           1         2         3
     Eigenvalues --     6.53675  52.59669  59.13344
           X            0.00000   0.00000   1.00000
           Y           -0.00000   1.00000  -0.00000
           Z            1.00000   0.00000  -0.00000
 This molecule is an asymmetric top.
 Rotational symmetry number  2.
 Rotational temperatures (Kelvin)     13.25030     1.64675     1.46472
 Rotational constants (GHZ):         276.09171    34.31283    30.51981
 Zero-point vibrational energy      65352.5 (Joules/Mol)
                                   15.61963 (Kcal/Mol)
 Vibrational temperatures:   1438.93  1510.09  1874.12  2017.38  4349.08
          (Kelvin)           4530.59

 Zero-point correction=                           0.024891 (Hartree/Particle)
 Thermal correction to Energy=                    0.027810
 Thermal correction to Enthalpy=                  0.028754
 Thermal correction to Gibbs Free Energy=         0.002642
 Sum of electronic and zero-point Energies=            -76.790937
 Sum of electronic and thermal Energies=               -76.788019
 Sum of electronic and thermal Enthalpies=             -76.787074
 Sum of electronic and thermal Free Energies=          -76.813186

                     E (Thermal)             CV                S
                      KCal/Mol        Cal/Mol-Kelvin    Cal/Mol-Kelvin
 Total                   17.451              6.917             54.956
 Electronic               0.000              0.000              2.755
 Translational            0.889              2.981             35.704
 Rotational               0.889              2.981             16.282
 Vibrational             15.673              0.955              0.215

 Optimization completed.
    -- Stationary point found.
 Normal termination of Gaussian 09 at Thu Jan 24 15:34:45 2019.
