 Gaussian 09, Revision D.01,
 Gaussian 09:  ES64L-G09RevD.01 24-Apr-2013

 ---------------------------
 #p b3lyp/6-311++g(d,p) freq
 ---------------------------

 ---
 min
 ---
 Symbolic Z-matrix:
 Charge =  1 Multiplicity = 4

                         Standard orientation:
 ---------------------------------------------------------------------
 Center     Atomic      Atomic             Coordinates (Angstroms)
 Number     Number       Type             X           Y           Z
 ---------------------------------------------------------------------
      1          6           0       -0.000000    0.000000    1.491606
      2          6           0       -0.000000    0.000000    0.191580
      3          6           0        0.000000   -0.000000   -1.120457
      4          1           0        0.000000    0.938418   -1.688186
      5          1           0       -0.000000   -0.938418   -1.688186
 ---------------------------------------------------------------------

 SCF Done:  E(UB3LYP) =  -114.934906100     A.U. after   13 cycles

 The electronic state is 4-A2.
 Alpha  occ. eigenvalues --  -10.59910 -10.55617 -10.48345  -1.13262  -1.02706
 Alpha  occ. eigenvalues --   -0.79256  -0.74317  -0.71301  -0.66238  -0.62539
 Alpha  occ. eigenvalues --   -0.51619
 Alpha virt. eigenvalues --   -0.31969  -0.23106  -0.17687  -0.12314  -0.12177
 Alpha virt. eigenvalues --   -0.10172  -0.08752  -0.07691  -0.06270  -0.05604
 Alpha virt. eigenvalues --   -0.03148  -0.02507  -0.00819   0.00604   0.00616

  Beta  occ. eigenvalues --  -10.55855 -10.55207 -10.47400  -1.08745  -0.97331
  Beta  occ. eigenvalues --   -0.76735  -0.71519  -0.61428
  Beta virt. eigenvalues --   -0.47884  -0.46324  -0.36733  -0.23593  -0.17861
  Beta virt. eigenvalues --   -0.17068  -0.11567  -0.11406  -0.08808  -0.07809
  Beta virt. eigenvalues --   -0.06791  -0.05732  -0.04793  -0.02020  -0.01621

 Mulliken charges and spin densities:
               1          2
     1  C    0.143972   1.872155
     2  C    0.833929   0.372306
     3  C   -0.497714   0.717902
     4  H    0.259906   0.018819
     5  H    0.259906   0.018819
 Sum of Mulliken charges =   1.00000   3.00000

 Dipole moment (field-independent basis, Debye):
    X=             -0.0000    Y=              0.0000    Z=             -0.0295  Tot=              0.0295
 Quadrupole moment (field-independent basis, Debye-Ang):
   XX=            -16.8666   YY=            -12.6997   ZZ=             -3.6574
   XY=              0.0000   XZ=              0.0000   YZ=              0.0000

  Exact polarizability:  14.589  -0.000  16.208   0.000  -0.000  46.444
 Approx polarizability:  17.813   0.000  21.818  -0.000   0.000  84.694

                      1                      2                      3
                     B2                     B1                     B1
 Frequencies --    356.7129               402.0130               733.0503
 Red. masses --      2.1789                 6.8073                 1.3172
 Frc consts  --      0.1633                 0.6482                 0.4170
 IR Inten    --      9.0667                 8.4255                83.2381

                      4                      5                      6
                     B2                     A1                     A1
 Frequencies --    817.7108              1130.5960              1283.3537
 Red. masses --      1.9612                 2.9824                 1.3733
 Frc consts  --      0.7726                 2.2461                 1.3327
 IR Inten    --      7.5012                 1.9431                93.9404

                      7                      8                      9
                     A1                     A1                     B2
 Frequencies --   1753.0368              3020.7778              3095.1574
 Red. masses --     11.1315                 1.0530                 1.1096
 Frc consts  --     20.1551                 5.6614                 6.2633
 IR Inten    --     15.6671               255.4420               142.0051

 - Thermochemistry -
 -------------------
 Temperature   298.150 Kelvin.  Pressure   1.00000 Atm.
 Atom     1 has atomic number  6 and mass  12.00000

 Molecular mass:    38.01565 amu.
 Principal axes and moments of inertia in atomic units:
                           1         2         3
     Eigenvalues --     6.33878 170.17389 176.51267
           X           -0.00000   0.00000   1.00000
           Y            0.00000   1.00000  -0.00000
           Z            1.00000  -0.00000   0.00000
 This molecule is an asymmetric top.
 Rotational symmetry number  2.
 Rotational temperatures (Kelvin)     13.66411     0.50897     0.49069
 Rotational constants (GHZ):         284.71427    10.60528    10.22443
 Zero-point vibrational energy      75319.3 (Joules/Mol)
                                   18.00175 (Kcal/Mol)
 Warning -- explicit consideration of   2 degrees of freedom as
           vibrations may cause significant error
 Vibrational temperatures:    513.23   578.41  1054.69  1176.50  1626.67
          (Kelvin)           1846.46  2522.23  4346.22  4453.24

 Zero-point correction=                           0.028688 (Hartree/Particle)
 Thermal correction to Energy=                    0.032391
 Thermal correction to Enthalpy=                  0.033335
 Thermal correction to Gibbs Free Energy=         0.004477
 Sum of electronic and zero-point Energies=           -114.906218
 Sum of electronic and thermal Energies=              -114.902515
 Sum of electronic and thermal Enthalpies=            -114.901571
 Sum of electronic and thermal Free Energies=         -114.930429

                     E (Thermal)             CV                S
                      KCal/Mol        Cal/Mol-Kelvin    Cal/Mol-Kelvin
 Total                   20.326             10.820             60.737
 Electronic               0.000              0.000              2.755
 Translational            0.889              2.981             36.835
 Rotational               0.889              2.981             18.505
 Vibrational             18.548              4.858              2.643
 Vibration     1          0.732              1.561              1.136
 Vibration     2          0.768              1.466              0.955

 Optimization completed.
    -- Stationary point found.
 Normal termination of Gaussian 09 at Thu Jan 24 15:38:10 2019.
