 Gaussian 09, Revision D.01,
 Gaussian 09:  ES64L-G09RevD.01 24-Apr-2013

 ---------------------------
 #p b3lyp/6-311++g(d,p) freq
 ---------------------------

 ---
 min
 ---
 Symbolic Z-matrix:
 Charge =  0 Multiplicity = 1

                         Standard orientation:
 ---------------------------------------------------------------------
 Center     Atomic      Atomic             Coordinates (Angstroms)
 Number     Number       Type             X           Y           Z
 ---------------------------------------------------------------------
      1          6           0       -0.451841    1.802204    0.000000
      2          6           0        0.736983   -0.529294   -0.000000
      3          6           0       -0.000000    0.675399    0.000000
      4          1           0       -0.955775   -1.474331    0.000000
      5          1           0       -0.849941    2.788715    0.000000
      6          8           0        0.011858   -1.625529   -0.000000
 ---------------------------------------------------------------------

 SCF Done:  E(RB3LYP) =  -190.630623703     A.U. after   13 cycles

 The electronic state is 1-A'.
 Alpha  occ. eigenvalues --  -19.21821 -10.26552 -10.21671 -10.20167  -1.12359
 Alpha  occ. eigenvalues --   -0.80182  -0.70226  -0.61845  -0.55145  -0.45059
 Alpha  occ. eigenvalues --   -0.44465  -0.33126  -0.33023  -0.23595
 Alpha virt. eigenvalues --   -0.10524  -0.03553  -0.00164   0.01247   0.04307
 Alpha virt. eigenvalues --    0.04834   0.06179   0.07778   0.07894   0.09740
 Alpha virt. eigenvalues --    0.10219   0.10457   0.12381   0.13272   0.15272

 Mulliken charges:
               1
     1  C   -1.846642
     2  C   -0.199761
     3  C    1.736704
     4  H    0.213837
     5  H    0.147445
     6  O   -0.051583
 Sum of Mulliken charges =  -0.00000

 Dipole moment (field-independent basis, Debye):
    X=             -3.3221    Y=              1.4506    Z=              0.0000  Tot=              3.6250
 Quadrupole moment (field-independent basis, Debye-Ang):
   XX=            -25.3671   YY=            -19.2767   ZZ=            -23.6979
   XY=              1.2090   XZ=             -0.0000   YZ=             -0.0000

  Exact polarizability:  37.484  -8.463  63.756  -0.000   0.000  24.213
 Approx polarizability:  53.601 -21.422 112.784  -0.000   0.000  32.541

                      1                      2                      3
                     A'                     A"                     A'
 Frequencies --    224.0016               261.0525               568.0110
 Red. masses --      4.4785                 3.8882                 1.2886
 Frc consts  --      0.1324                 0.1561                 0.2450
 IR Inten    --     11.6055                 7.9707                65.0966

                      4                      5                      6
                     A'                     A"                     A"
 Frequencies --    636.3402               790.7276               811.7800
 Red. masses --      4.9098                 1.3320                 1.3481
 Frc consts  --      1.1714                 0.4907                 0.5234
 IR Inten    --     15.5905                11.5048               138.5750

                      7                      8                      9
                     A'                     A'                     A'
 Frequencies --    898.3579              1308.8278              1329.0936
 Red. masses --      7.7332                 3.2022                 1.7068
 Frc consts  --      3.6771                 3.2320                 1.7764
 IR Inten    --      3.0623               255.3469                 9.1621

                     10                     11                     12
                     A'                     A'                     A'
 Frequencies --   2104.6665              3463.4686              3506.7168
 Red. masses --      6.2172                 1.1505                 1.0658
 Frc consts  --     16.2259                 8.1313                 7.7223
 IR Inten    --     21.2005                81.0298                27.7883

 - Thermochemistry -
 -------------------
 Temperature   298.150 Kelvin.  Pressure   1.00000 Atm.
 Atom     1 has atomic number  6 and mass  12.00000

 Molecular mass:    54.01056 amu.
 Principal axes and moments of inertia in atomic units:
                           1         2         3
     Eigenvalues --    28.17496 366.89792 395.07287
           X           -0.16776   0.98583   0.00000
           Y            0.98583   0.16776  -0.00000
           Z            0.00000  -0.00000   1.00000
 This molecule is an asymmetric top.
 Rotational symmetry number  1.
 Rotational temperatures (Kelvin)      3.07414     0.23607     0.21924
 Rotational constants (GHZ):          64.05480     4.91892     4.56812
 Zero-point vibrational energy      95121.3 (Joules/Mol)
                                   22.73454 (Kcal/Mol)
 Warning -- explicit consideration of   3 degrees of freedom as
           vibrations may cause significant error
 Vibrational temperatures:    322.29   375.60   817.24   915.55  1137.68
          (Kelvin)           1167.97  1292.54  1883.11  1912.27  3028.14
                             4983.15  5045.38

 Zero-point correction=                           0.036230 (Hartree/Particle)
 Thermal correction to Energy=                    0.040609
 Thermal correction to Enthalpy=                  0.041553
 Thermal correction to Gibbs Free Energy=         0.010244
 Sum of electronic and zero-point Energies=           -190.594394
 Sum of electronic and thermal Energies=              -190.590015
 Sum of electronic and thermal Enthalpies=            -190.589071
 Sum of electronic and thermal Free Energies=         -190.620380

                     E (Thermal)             CV                S
                      KCal/Mol        Cal/Mol-Kelvin    Cal/Mol-Kelvin
 Total                   25.482             13.653             65.895
 Electronic               0.000              0.000              0.000
 Translational            0.889              2.981             37.882
 Rotational               0.889              2.981             22.928
 Vibrational             23.705              7.691              5.085
 Vibration     1          0.649              1.805              1.927
 Vibration     2          0.669              1.744              1.655
 Vibration     3          0.924              1.100              0.508

 Optimization completed.
    -- Stationary point found.
 Normal termination of Gaussian 09 at Sun Mar  4 21:07:32 2018.
