 Gaussian 09, Revision D.01,
 Gaussian 09:  ES64L-G09RevD.01 24-Apr-2013

 ---------------------------
 #p b3lyp/6-311++g(d,p) freq
 ---------------------------

 ---
 min
 ---
 Symbolic Z-matrix:
 Charge =  0 Multiplicity = 1

                         Standard orientation:
 ---------------------------------------------------------------------
 Center     Atomic      Atomic             Coordinates (Angstroms)
 Number     Number       Type             X           Y           Z
 ---------------------------------------------------------------------
      1          6           0       -0.655839   -0.481533   -0.000000
      2          6           0       -1.307104   -1.570172    0.000000
      3          6           0        0.000000    0.686960   -0.000000
      4          1           0        1.732167   -0.054879    0.000000
      5          1           0       -0.494707    1.655231   -0.000000
      6          8           0        1.317525    0.823515    0.000000
 ---------------------------------------------------------------------

 SCF Done:  E(RB3LYP) =  -190.639150677     A.U. after   13 cycles

 The electronic state is 1-A'.
 Alpha  occ. eigenvalues --  -19.23917 -10.32997 -10.20547 -10.17201  -1.15343
 Alpha  occ. eigenvalues --   -0.81217  -0.72359  -0.64304  -0.54929  -0.47691
 Alpha  occ. eigenvalues --   -0.45347  -0.31914  -0.29059  -0.28414
 Alpha virt. eigenvalues --   -0.12936  -0.03567  -0.00602   0.01436   0.04293
 Alpha virt. eigenvalues --    0.04487   0.07153   0.07791   0.08356   0.08479
 Alpha virt. eigenvalues --    0.10470   0.10483   0.11539   0.12558   0.15152

 Mulliken charges:
               1
     1  C    0.888736
     2  C   -0.451111
     3  C   -0.795020
     4  H    0.265694
     5  H    0.179008
     6  O   -0.087306
 Sum of Mulliken charges =   0.00000

 Dipole moment (field-independent basis, Debye):
    X=              2.9241    Y=              3.1309    Z=             -0.0000  Tot=              4.2841
 Quadrupole moment (field-independent basis, Debye-Ang):
   XX=            -25.4258   YY=            -28.8231   ZZ=            -23.7204
   XY=             -7.5337   XZ=              0.0000   YZ=              0.0000

  Exact polarizability:  46.481  17.232  53.762  -0.000  -0.000  24.779
 Approx polarizability:  77.062  43.422 100.569  -0.000  -0.000  33.389

                      1                      2                      3
                     A'                     A"                     A'
 Frequencies --    180.0318               207.2353               597.4359
 Red. masses --      7.0806                 5.1625                 4.9439
 Frc consts  --      0.1352                 0.1306                 1.0397
 IR Inten    --      4.2850                 9.0435                33.5500

                      4                      5                      6
                     A"                     A"                     A'
 Frequencies --    711.3315               992.0807              1037.2473
 Red. masses --      1.3787                 1.4186                 4.5531
 Frc consts  --      0.4110                 0.8227                 2.8861
 IR Inten    --    130.5205                15.6724                98.7468

                      7                      8                      9
                     A'                     A'                     A'
 Frequencies --   1251.7379              1340.4769              1491.3177
 Red. masses --      1.2760                 2.2046                 2.0007
 Frc consts  --      1.1779                 2.3340                 2.6217
 IR Inten    --    159.3778                68.1465               178.4455

                     10                     11                     12
                     A'                     A'                     A'
 Frequencies --   2072.6899              3161.1004              3722.1109
 Red. masses --     11.2776                 1.0914                 1.0649
 Frc consts  --     28.5453                 6.4253                 8.6924
 IR Inten    --    744.9156                 3.9952                74.7961

 - Thermochemistry -
 -------------------
 Temperature   298.150 Kelvin.  Pressure   1.00000 Atm.
 Atom     1 has atomic number  6 and mass  12.00000

 Molecular mass:    54.01056 amu.
 Principal axes and moments of inertia in atomic units:
                           1         2         3
     Eigenvalues --    33.01887 353.60822 386.62710
           X            0.72682  -0.68683   0.00000
           Y            0.68683   0.72682   0.00000
           Z            0.00000  -0.00000   1.00000
 This molecule is an asymmetric top.
 Rotational symmetry number  1.
 Rotational temperatures (Kelvin)      2.62316     0.24494     0.22402
 Rotational constants (GHZ):          54.65787     5.10379     4.66791
 Zero-point vibrational energy     100275.7 (Joules/Mol)
                                   23.96648 (Kcal/Mol)
 Warning -- explicit consideration of   3 degrees of freedom as
           vibrations may cause significant error
 Vibrational temperatures:    259.03   298.17   859.58  1023.45  1427.38
          (Kelvin)           1492.37  1800.97  1928.64  2145.67  2982.13
                             4548.11  5355.28

 Zero-point correction=                           0.038193 (Hartree/Particle)
 Thermal correction to Energy=                    0.042536
 Thermal correction to Enthalpy=                  0.043480
 Thermal correction to Gibbs Free Energy=         0.011979
 Sum of electronic and zero-point Energies=           -190.600958
 Sum of electronic and thermal Energies=              -190.596615
 Sum of electronic and thermal Enthalpies=            -190.595671
 Sum of electronic and thermal Free Energies=         -190.627172

                     E (Thermal)             CV                S
                      KCal/Mol        Cal/Mol-Kelvin    Cal/Mol-Kelvin
 Total                   26.692             12.616             66.299
 Electronic               0.000              0.000              0.000
 Translational            0.889              2.981             37.882
 Rotational               0.889              2.981             23.028
 Vibrational             24.914              6.655              5.390
 Vibration     1          0.629              1.867              2.328
 Vibration     2          0.641              1.830              2.068
 Vibration     3          0.955              1.037              0.454

 Optimization completed.
    -- Stationary point found.
 Normal termination of Gaussian 09 at Sun Mar  4 21:07:24 2018.
