 Gaussian 09, Revision D.01,
 Gaussian 09:  ES64L-G09RevD.01 24-Apr-2013

 ---------------------------
 #p b3lyp/6-311++g(d,p) freq
 ---------------------------

 ---
 min
 ---
 Symbolic Z-matrix:
 Charge =  1 Multiplicity = 2

                         Standard orientation:
 ---------------------------------------------------------------------
 Center     Atomic      Atomic             Coordinates (Angstroms)
 Number     Number       Type             X           Y           Z
 ---------------------------------------------------------------------
      1          6           0       -0.959069    1.148937    0.000000
      2          6           0        0.649675   -0.915464   -0.000000
      3          6           0        0.000000    0.234672    0.000000
      4          1           0        0.110634   -1.869973   -0.000000
      5          1           0        1.745727   -0.938900   -0.000000
 ---------------------------------------------------------------------

 SCF Done:  E(UB3LYP) =  -114.987812074     A.U. after   18 cycles

 The electronic state is 2-A'.
 Alpha  occ. eigenvalues --  -10.57614 -10.54599 -10.53229  -1.13123  -1.02188
 Alpha  occ. eigenvalues --   -0.81565  -0.76882  -0.64080  -0.62289  -0.59491
 Alpha virt. eigenvalues --   -0.43124  -0.30949  -0.21862  -0.18419  -0.13429
 Alpha virt. eigenvalues --   -0.12474  -0.10477  -0.08909  -0.07586  -0.06989
 Alpha virt. eigenvalues --   -0.05452  -0.03937  -0.02396  -0.01543  -0.00207

  Beta  occ. eigenvalues --  -10.56642 -10.54726 -10.52520  -1.11171  -1.00086
  Beta  occ. eigenvalues --   -0.80723  -0.75467  -0.63366  -0.58526
  Beta virt. eigenvalues --   -0.47294  -0.42563  -0.26162  -0.20811  -0.18157
  Beta virt. eigenvalues --   -0.13144  -0.12309  -0.10479  -0.08635  -0.07064
  Beta virt. eigenvalues --   -0.06699  -0.05399  -0.03537  -0.02268  -0.01447

 Mulliken charges and spin densities:
               1          2
     1  C    0.280324   0.591707
     2  C   -0.206822  -0.114273
     3  C    0.384677   0.445839
     4  H    0.284835   0.032230
     5  H    0.256986   0.044497
 Sum of Mulliken charges =   1.00000   1.00000

 Dipole moment (field-independent basis, Debye):
    X=              1.8524    Y=             -1.9502    Z=             -0.0000  Tot=              2.6898
 Quadrupole moment (field-independent basis, Debye-Ang):
   XX=            -12.2168   YY=             -8.4768   ZZ=            -15.5984
   XY=             -2.6611   XZ=              0.0000   YZ=             -0.0000

  Exact polarizability:  32.632 -18.686  44.799  -0.000   0.000  16.501
 Approx polarizability:  59.254 -39.834  73.727  -0.000   0.000  22.680

                      1                      2                      3
                     A"                     A'                     A'
 Frequencies --    264.7188               279.2577               855.8988
 Red. masses --      3.3333                 3.5572                 1.5291
 Frc consts  --      0.1376                 0.1634                 0.6600
 IR Inten    --      4.3747                24.8968                40.3866

                      4                      5                      6
                     A"                     A'                     A'
 Frequencies --   1052.2412              1052.8087              1369.4622
 Red. masses --      1.3511                 4.1787                 1.1763
 Frc consts  --      0.8814                 2.7289                 1.2998
 IR Inten    --     25.1126                17.3044                37.2028

                      7                      8                      9
                     A'                     A'                     A'
 Frequencies --   1618.1803              3032.4708              3125.0235
 Red. masses --      9.6557                 1.0533                 1.1145
 Frc consts  --     14.8967                 5.7067                 6.4129
 IR Inten    --     18.9483               172.8631                97.2633

 - Thermochemistry -
 -------------------
 Temperature   298.150 Kelvin.  Pressure   1.00000 Atm.
 Atom     1 has atomic number  6 and mass  12.00000

 Molecular mass:    38.01565 amu.
 Principal axes and moments of inertia in atomic units:
                           1         2         3
     Eigenvalues --     7.45950 170.60778 178.06728
           X           -0.61015   0.79228   0.00000
           Y            0.79228   0.61015   0.00000
           Z           -0.00000  -0.00000   1.00000
 This molecule is an asymmetric top.
 Rotational symmetry number  1.
 Rotational temperatures (Kelvin)     11.61121     0.50768     0.48641
 Rotational constants (GHZ):         241.93869    10.57831    10.13516
 Zero-point vibrational energy      75664.2 (Joules/Mol)
                                   18.08417 (Kcal/Mol)
 Warning -- explicit consideration of   2 degrees of freedom as
           vibrations may cause significant error
 Vibrational temperatures:    380.87   401.79  1231.45  1513.94  1514.75
          (Kelvin)           1970.35  2328.20  4363.04  4496.21

 Zero-point correction=                           0.028819 (Hartree/Particle)
 Thermal correction to Energy=                    0.032700
 Thermal correction to Enthalpy=                  0.033644
 Thermal correction to Gibbs Free Energy=         0.004289
 Sum of electronic and zero-point Energies=           -114.958993
 Sum of electronic and thermal Energies=              -114.955112
 Sum of electronic and thermal Enthalpies=            -114.954168
 Sum of electronic and thermal Free Energies=         -114.983523

                     E (Thermal)             CV                S
                      KCal/Mol        Cal/Mol-Kelvin    Cal/Mol-Kelvin
 Total                   20.519             10.787             61.781
 Electronic               0.000              0.000              1.377
 Translational            0.889              2.981             36.835
 Rotational               0.889              2.981             20.055
 Vibrational             18.742              4.826              3.514
 Vibration     1          0.671              1.738              1.630
 Vibration     2          0.680              1.712              1.538

 Optimization completed.
    -- Stationary point found.
 Normal termination of Gaussian 09 at Thu Jan 24 15:37:46 2019.
