 Gaussian 09, Revision D.01,
 Gaussian 09:  ES64L-G09RevD.01 24-Apr-2013

 ---------------------------
 #p b3lyp/6-311++g(d,p) freq
 ---------------------------

 ---
 min
 ---
 Symbolic Z-matrix:
 Charge =  1 Multiplicity = 4

                         Standard orientation:
 ---------------------------------------------------------------------
 Center     Atomic      Atomic             Coordinates (Angstroms)
 Number     Number       Type             X           Y           Z
 ---------------------------------------------------------------------
      1          6           0       -1.908647   -0.335510   -0.047929
      2          6           0       -0.795064    0.085712    0.076664
      3          6           0        1.572124   -0.470315   -0.180428
      4          1           0        0.675814    1.425905   -0.146528
      5          1           0        2.088775   -0.893660    0.684986
      6          8           0        0.503117    0.473554    0.046463
 ---------------------------------------------------------------------

 SCF Done:  E(UB3LYP) =  -190.048703817     A.U. after   21 cycles

 The electronic state is 4-A.
 Alpha  occ. eigenvalues --  -19.58532 -10.54831 -10.48815 -10.48534  -1.47313
 Alpha  occ. eigenvalues --   -1.05113  -1.01034  -0.95828  -0.81596  -0.78404
 Alpha  occ. eigenvalues --   -0.62617  -0.58170  -0.55736  -0.53035  -0.52222
 Alpha virt. eigenvalues --   -0.26638  -0.22306  -0.18728  -0.15269  -0.14730
 Alpha virt. eigenvalues --   -0.11978  -0.10005  -0.07647  -0.07179  -0.06594
 Alpha virt. eigenvalues --   -0.06035  -0.04718  -0.04268  -0.02794  -0.01760

  Beta  occ. eigenvalues --  -19.58222 -10.51610 -10.48687 -10.46166  -1.46372
  Beta  occ. eigenvalues --   -1.03248  -0.98007  -0.93925  -0.78695  -0.75252
  Beta  occ. eigenvalues --   -0.54170  -0.52301
  Beta virt. eigenvalues --   -0.40664  -0.36818  -0.32274  -0.25482  -0.19486
  Beta virt. eigenvalues --   -0.16288  -0.14013  -0.13048  -0.10697  -0.09254
  Beta virt. eigenvalues --   -0.07092  -0.06088  -0.05023  -0.04999  -0.03750

 Mulliken charges and spin densities:
               1          2
     1  C    0.188537   0.998834
     2  C    0.059651   0.048189
     3  C    0.067687   1.898226
     4  H    0.422955   0.010977
     5  H    0.263148   0.032792
     6  O   -0.001978   0.010981
 Sum of Mulliken charges =   1.00000   3.00000

 Dipole moment (field-independent basis, Debye):
    X=              2.3325    Y=              1.5657    Z=              0.3573  Tot=              2.8318
 Quadrupole moment (field-independent basis, Debye-Ang):
   XX=             -9.2669   YY=            -15.5102   ZZ=            -21.1926
   XY=              0.9282   XZ=              1.2369   YZ=             -1.3442

  Exact polarizability:  48.614   0.810  25.173   2.885   0.594  22.312
 Approx polarizability:  71.377   7.641  34.003   4.346   1.882  26.012

                      1                      2                      3
                      A                      A                      A
 Frequencies --    146.3529               154.0512               281.3630
 Red. masses --      3.7870                 8.3582                 1.5945
 Frc consts  --      0.0478                 0.1169                 0.0744
 IR Inten    --      6.2204                 6.9774                61.2887

                      4                      5                      6
                      A                      A                      A
 Frequencies --    364.2538               475.1720               866.7206
 Red. masses --      1.5562                 3.0194                 7.2516
 Frc consts  --      0.1217                 0.4017                 3.2095
 IR Inten    --     84.0130                69.7284                57.4957

                      7                      8                      9
                      A                      A                      A
 Frequencies --    987.9086              1085.9813              1398.9184
 Red. masses --      3.9729                 1.3437                 1.1615
 Frc consts  --      2.2845                 0.9337                 1.3392
 IR Inten    --     11.3631                47.8411                73.9477

                     10                     11                     12
                      A                      A                      A
 Frequencies --   2227.3133              3113.8821              3503.3097
 Red. masses --     11.9445                 1.0898                 1.0674
 Frc consts  --     34.9126                 6.2256                 7.7187
 IR Inten    --     40.2089                53.9994               391.5305

 - Thermochemistry -
 -------------------
 Temperature   298.150 Kelvin.  Pressure   1.00000 Atm.
 Atom     1 has atomic number  6 and mass  12.00000

 Molecular mass:    54.01056 amu.
 Principal axes and moments of inertia in atomic units:
                           1         2         3
     Eigenvalues --    41.10931 323.81524 358.34271
           X            0.99983  -0.00947   0.01596
           Y            0.01080   0.99629  -0.08536
           Z           -0.01510   0.08552   0.99622
 This molecule is an asymmetric top.
 Rotational symmetry number  1.
 Rotational temperatures (Kelvin)      2.10691     0.26748     0.24171
 Rotational constants (GHZ):          43.90103     5.57337     5.03636
 Zero-point vibrational energy      87358.7 (Joules/Mol)
                                   20.87922 (Kcal/Mol)
 Warning -- explicit consideration of   5 degrees of freedom as
           vibrations may cause significant error
 Vibrational temperatures:    210.57   221.65   404.82   524.08   683.67
          (Kelvin)           1247.02  1421.38  1562.48  2012.73  3204.60
                             4480.18  5040.48

 Zero-point correction=                           0.033273 (Hartree/Particle)
 Thermal correction to Energy=                    0.038558
 Thermal correction to Enthalpy=                  0.039503
 Thermal correction to Gibbs Free Energy=         0.004935
 Sum of electronic and zero-point Energies=           -190.015431
 Sum of electronic and thermal Energies=              -190.010145
 Sum of electronic and thermal Enthalpies=            -190.009201
 Sum of electronic and thermal Free Energies=         -190.043769

                     E (Thermal)             CV                S
                      KCal/Mol        Cal/Mol-Kelvin    Cal/Mol-Kelvin
 Total                   24.196             15.667             72.755
 Electronic               0.000              0.000              2.755
 Translational            0.889              2.981             37.882
 Rotational               0.889              2.981             23.082
 Vibrational             22.418              9.705              9.035
 Vibration     1          0.617              1.907              2.719
 Vibration     2          0.620              1.898              2.622
 Vibration     3          0.681              1.708              1.525
 Vibration     4          0.738              1.546              1.104
 Vibration     5          0.832              1.305              0.723

 Normal termination of Gaussian 09 at Thu Jan 24 15:42:08 2019.
