 Gaussian 09, Revision D.01,
 Gaussian 09:  ES64L-G09RevD.01 24-Apr-2013

 ---------------------------
 #p b3lyp/6-311++g(d,p) freq
 ---------------------------

 ---
 min
 ---
 Symbolic Z-matrix:
 Charge =  0 Multiplicity = 3

                         Standard orientation:
 ---------------------------------------------------------------------
 Center     Atomic      Atomic             Coordinates (Angstroms)
 Number     Number       Type             X           Y           Z
 ---------------------------------------------------------------------
      1          6           0       -0.145643   -0.146836   -0.011724
      2          6           0        0.959519   -0.837708    0.027878
      3          6           0        1.152868    0.606344   -0.133438
      4          1           0       -1.695337    0.909082   -0.188660
      5          1           0        1.519088    1.351816    0.581761
      6          8           0       -1.453027    0.001038    0.038825
 ---------------------------------------------------------------------

 SCF Done:  E(UB3LYP) =  -190.552361750     A.U. after   16 cycles

 The electronic state is 3-A.
 Alpha  occ. eigenvalues --  -19.22018 -10.28855 -10.22572 -10.22273  -1.13315
 Alpha  occ. eigenvalues --   -0.91545  -0.66984  -0.59249  -0.51658  -0.46577
 Alpha  occ. eigenvalues --   -0.42729  -0.40668  -0.34347  -0.26977  -0.18437
 Alpha virt. eigenvalues --   -0.03110   0.00090   0.01270   0.03409   0.05269
 Alpha virt. eigenvalues --    0.06728   0.07573   0.07704   0.09359   0.10188
 Alpha virt. eigenvalues --    0.10989   0.12086   0.13423   0.16005   0.16780

  Beta  occ. eigenvalues --  -19.21920 -10.28472 -10.21113 -10.20751  -1.12983
  Beta  occ. eigenvalues --   -0.89390  -0.66337  -0.55954  -0.50120  -0.45339
  Beta  occ. eigenvalues --   -0.38836  -0.37265  -0.30635
  Beta virt. eigenvalues --   -0.13799  -0.05746  -0.02730   0.01400   0.02515
  Beta virt. eigenvalues --    0.03934   0.05662   0.06979   0.07707   0.08316
  Beta virt. eigenvalues --    0.09884   0.10315   0.11864   0.12566   0.14206

 Mulliken charges and spin densities:
               1          2
     1  C    0.118755   0.237521
     2  C   -0.211556   0.753085
     3  C   -0.152767   0.964509
     4  H    0.297956   0.009171
     5  H    0.129408   0.034209
     6  O   -0.181796   0.001505
 Sum of Mulliken charges =  -0.00000   2.00000

 Dipole moment (field-independent basis, Debye):
    X=             -1.8064    Y=              2.1483    Z=              0.4719  Tot=              2.8462
 Quadrupole moment (field-independent basis, Debye-Ang):
   XX=            -23.7615   YY=            -22.5696   ZZ=            -24.4492
   XY=             -2.4086   XZ=              2.2290   YZ=              0.6829

  Exact polarizability:  45.852  -0.754  42.140   0.077  -0.925  27.680
 Approx polarizability:  71.659  -7.513  64.965  -0.123  -2.146  35.843

                      1                      2                      3
                      A                      A                      A
 Frequencies --    270.3947               383.9861               416.3186
 Red. masses --      1.2241                 3.7874                 5.3454
 Frc consts  --      0.0527                 0.3290                 0.5459
 IR Inten    --    118.4012                 1.0478                10.4391

                      4                      5                      6
                      A                      A                      A
 Frequencies --    658.0733               928.1016               963.1652
 Red. masses --      8.4410                 1.2572                 1.2693
 Frc consts  --      2.1537                 0.6381                 0.6938
 IR Inten    --      5.8942                33.8699                35.6392

                      7                      8                      9
                      A                      A                      A
 Frequencies --   1082.3014              1106.5684              1261.5840
 Red. masses --      5.9353                 5.3248                 1.4401
 Frc consts  --      4.0963                 3.8416                 1.3505
 IR Inten    --     56.9965                36.4463               194.6985

                     10                     11                     12
                      A                      A                      A
 Frequencies --   1859.6915              2999.5002              3775.7631
 Red. masses --     10.2146                 1.0865                 1.0660
 Frc consts  --     20.8140                 5.7594                 8.9538
 IR Inten    --    170.3845                44.2159               111.1682

 - Thermochemistry -
 -------------------
 Temperature   298.150 Kelvin.  Pressure   1.00000 Atm.
 Atom     1 has atomic number  6 and mass  12.00000

 Molecular mass:    54.01056 amu.
 Principal axes and moments of inertia in atomic units:
                           1         2         3
     Eigenvalues --    58.09967 238.70578 292.70233
           X            0.99979   0.00890   0.01846
           Y           -0.00967   0.99907   0.04205
           Z           -0.01807  -0.04222   0.99894
 This molecule is an asymmetric top.
 Rotational symmetry number  1.
 Rotational temperatures (Kelvin)      1.49078     0.36285     0.29591
 Rotational constants (GHZ):          31.06285     7.56053     6.16579
 Zero-point vibrational energy      93939.4 (Joules/Mol)
                                   22.45207 (Kcal/Mol)
 Warning -- explicit consideration of   3 degrees of freedom as
           vibrations may cause significant error
 Vibrational temperatures:    389.04   552.47   598.99   946.82  1335.33
          (Kelvin)           1385.78  1557.19  1592.10  1815.14  2675.68
                             4315.61  5432.47

 Zero-point correction=                           0.035780 (Hartree/Particle)
 Thermal correction to Energy=                    0.039977
 Thermal correction to Enthalpy=                  0.040921
 Thermal correction to Gibbs Free Energy=         0.008961
 Sum of electronic and zero-point Energies=           -190.516582
 Sum of electronic and thermal Energies=              -190.512385
 Sum of electronic and thermal Enthalpies=            -190.511441
 Sum of electronic and thermal Free Energies=         -190.543400

                     E (Thermal)             CV                S
                      KCal/Mol        Cal/Mol-Kelvin    Cal/Mol-Kelvin
 Total                   25.086             13.181             67.264
 Electronic               0.000              0.000              2.183
 Translational            0.889              2.981             37.882
 Rotational               0.889              2.981             22.922
 Vibrational             23.308              7.219              4.277
 Vibration     1          0.674              1.728              1.594
 Vibration     2          0.753              1.504              1.023
 Vibration     3          0.780              1.435              0.905

 Optimization completed.
    -- Stationary point found.
 Normal termination of Gaussian 09 at Sun Mar  4 21:08:36 2018.
