 Gaussian 09, Revision D.01,
 Gaussian 09:  ES64L-G09RevD.01 24-Apr-2013

 ---------------------------
 #p b3lyp/6-311++g(d,p) freq
 ---------------------------

 ---
 min
 ---
 Symbolic Z-matrix:
 Charge =  0 Multiplicity = 1

                         Standard orientation:
 ---------------------------------------------------------------------
 Center     Atomic      Atomic             Coordinates (Angstroms)
 Number     Number       Type             X           Y           Z
 ---------------------------------------------------------------------
      1          6           0        0.000000    0.000000    0.932473
      2          6           0       -0.000000    0.662262   -0.322428
      3          6           0       -0.000000   -0.662262   -0.322428
      4          1           0       -0.000000   -1.596669   -0.862854
      5          1           0        0.000000    1.596669   -0.862854
 ---------------------------------------------------------------------

 SCF Done:  E(RB3LYP) =  -115.387191767     A.U. after   10 cycles

 The electronic state is 1-A1.
 Alpha  occ. eigenvalues --  -10.23518 -10.23427 -10.20009  -0.93409  -0.60800
 Alpha  occ. eigenvalues --   -0.58807  -0.46030  -0.39109  -0.34022  -0.24272
 Alpha virt. eigenvalues --   -0.04849  -0.02479  -0.00497   0.00703   0.04019
 Alpha virt. eigenvalues --    0.05177   0.07057   0.07868   0.09759   0.11125
 Alpha virt. eigenvalues --    0.11173   0.12109   0.12147   0.12176   0.17320

 Mulliken charges:
               1
     1  C   -0.480159
     2  C    0.071836
     3  C    0.071836
     4  H    0.168244
     5  H    0.168244
 Sum of Mulliken charges =  -0.00000

 Dipole moment (field-independent basis, Debye):
    X=             -0.0000    Y=              0.0000    Z=             -3.4916  Tot=              3.4916
 Quadrupole moment (field-independent basis, Debye-Ang):
   XX=            -17.8179   YY=            -14.4240   ZZ=            -22.3872
   XY=              0.0000   XZ=             -0.0000   YZ=             -0.0000

  Exact polarizability:  20.818   0.000  34.529  -0.000  -0.000  34.223
 Approx polarizability:  30.035   0.000  54.049  -0.000   0.000  47.626

                      1                      2                      3
                     B1                     A1                     B2
 Frequencies --    802.7675               893.9429               902.6761
 Red. masses --      1.1921                 1.1243                 1.5109
 Frc consts  --      0.4526                 0.5293                 0.7254
 IR Inten    --     19.6095                23.7882                 3.4578

                      4                      5                      6
                     A2                     B2                     A1
 Frequencies --   1001.8322              1077.9998              1309.5665
 Red. masses --      1.4407                 4.3023                 6.6379
 Frc consts  --      0.8520                 2.9457                 6.7072
 IR Inten    --      0.0000                12.6173                53.3474

                      7                      8                      9
                     A1                     B2                     A1
 Frequencies --   1642.4284              3224.5657              3259.9567
 Red. masses --      5.4167                 1.0876                 1.1387
 Frc consts  --      8.6091                 6.6630                 7.1298
 IR Inten    --      0.3040                 0.2995                 0.2521

 - Thermochemistry -
 -------------------
 Temperature   298.150 Kelvin.  Pressure   1.00000 Atm.
 Atom     1 has atomic number  6 and mass  12.00000

 Molecular mass:    38.01565 amu.
 Principal axes and moments of inertia in atomic units:
                           1         2         3
     Eigenvalues --    51.25435  55.93996 107.19431
           X            0.00000   0.00000   1.00000
           Y            1.00000   0.00000  -0.00000
           Z           -0.00000   1.00000  -0.00000
 This molecule is an asymmetric top.
 Rotational symmetry number  2.
 Rotational temperatures (Kelvin)      1.68988     1.54834     0.80801
 Rotational constants (GHZ):          35.21147    32.26211    16.83617
 Zero-point vibrational energy      84430.8 (Joules/Mol)
                                   20.17946 (Kcal/Mol)
 Vibrational temperatures:   1155.00  1286.18  1298.75  1441.41  1551.00
          (Kelvin)           1884.17  2363.09  4639.43  4690.34

 Zero-point correction=                           0.032158 (Hartree/Particle)
 Thermal correction to Energy=                    0.035254
 Thermal correction to Enthalpy=                  0.036198
 Thermal correction to Gibbs Free Energy=         0.009355
 Sum of electronic and zero-point Energies=           -115.355034
 Sum of electronic and thermal Energies=              -115.351938
 Sum of electronic and thermal Enthalpies=            -115.350993
 Sum of electronic and thermal Free Energies=         -115.377836

                     E (Thermal)             CV                S
                      KCal/Mol        Cal/Mol-Kelvin    Cal/Mol-Kelvin
 Total                   22.122              8.476             56.495
 Electronic               0.000              0.000              0.000
 Translational            0.889              2.981             36.835
 Rotational               0.889              2.981             18.980
 Vibrational             20.345              2.514              0.680

 1\1\ CITASK-GV1934\Freq\RB3LYP\6-311++G(d,p)\C3H2\EERD\04-Mar-2018\0\\
 #p b3lyp/6-311++g(d,p) freq\\min\\0,1\C,0.1306664787,0.1942924191,0.48
 4471165\C,0.829519931,0.088103829,-0.745852279\C,-0.4921663324,0.00709
 9137,-0.7766417982\H,-1.408201522,-0.1132196989,-1.334834237\H,1.77829
 35893,0.0820770687,-1.2606028138\\Version=ES64L-G09RevD.01\State=1-A1\
 HF=-115.3871918\RMSD=2.337e-09\RMSF=2.175e-04\ZeroPoint=0.032158\Therm
 al=0.0352541\Dipole=0.0416086,-0.1605775,-1.363645\DipoleDeriv=-0.3267
 257,0.0050245,-0.0233866,0.0050245,-0.4478616,0.1023892,-0.0233867,0.1

 Normal termination of Gaussian 09 at Sun Mar  4 21:13:18 2018.
