 Gaussian 09, Revision D.01,
 Gaussian 09:  ES64L-G09RevD.01 24-Apr-2013

 ---------------------------
 #p b3lyp/6-311++g(d,p) freq
 ---------------------------

 ---
 min
 ---
 Symbolic Z-matrix:
 Charge =  0 Multiplicity = 3

                         Standard orientation:
 ---------------------------------------------------------------------
 Center     Atomic      Atomic             Coordinates (Angstroms)
 Number     Number       Type             X           Y           Z
 ---------------------------------------------------------------------
      1          6           0        1.258091   -0.035752   -0.000000
      2          6           0       -0.000000    0.465845   -0.000000
      3          6           0       -1.036518   -0.437102    0.000000
      4          1           0       -1.175918   -1.506441    0.000000
      5          1           0       -0.153521    1.548497   -0.000000
 ---------------------------------------------------------------------

 SCF Done:  E(UB3LYP) =  -115.277440462     A.U. after   15 cycles

 The electronic state is 3-A".
 Alpha  occ. eigenvalues --  -10.25629 -10.24412 -10.21450  -0.84604  -0.68010
 Alpha  occ. eigenvalues --   -0.56888  -0.48804  -0.36927  -0.33782  -0.27903
 Alpha  occ. eigenvalues --   -0.22628
 Alpha virt. eigenvalues --   -0.11837   0.00029   0.00212   0.00692   0.05186
 Alpha virt. eigenvalues --    0.05901   0.07910   0.08342   0.09656   0.09828
 Alpha virt. eigenvalues --    0.11410   0.12153   0.12283   0.13210   0.14386

  Beta  occ. eigenvalues --  -10.24614 -10.22072 -10.21786  -0.82614  -0.63061
  Beta  occ. eigenvalues --   -0.55032  -0.47363  -0.33451  -0.31059
  Beta virt. eigenvalues --   -0.13814  -0.09196  -0.07987   0.00210   0.00995
  Beta virt. eigenvalues --    0.02125   0.05744   0.06802   0.08395   0.09012
  Beta virt. eigenvalues --    0.09997   0.10657   0.11839   0.12595   0.13127

 Mulliken charges and spin densities:
               1          2
     1  C   -0.209033   0.647927
     2  C    0.004472  -0.268700
     3  C   -0.154516   1.553402
     4  H    0.172913  -0.018639
     5  H    0.186164   0.086011
 Sum of Mulliken charges =  -0.00000   2.00000

 Dipole moment (field-independent basis, Debye):
    X=             -1.6760    Y=              0.5477    Z=              0.0000  Tot=              1.7632
 Quadrupole moment (field-independent basis, Debye-Ang):
   XX=            -22.6570   YY=            -14.4127   ZZ=            -20.3561
   XY=              1.9655   XZ=             -0.0000   YZ=              0.0000

  Exact polarizability:  50.688   4.081  32.234   0.000  -0.000  24.652
 Approx polarizability:  87.718   9.052  44.913  -0.000  -0.000  30.474

                      1                      2                      3
                     A'                     A"                     A"
 Frequencies --    229.9068               363.4719               691.8379
 Red. masses --      6.3101                 1.5003                 1.2883
 Frc consts  --      0.1965                 0.1168                 0.3633
 IR Inten    --     10.8314                43.5154                36.3854

                      4                      5                      6
                     A'                     A'                     A'
 Frequencies --    743.4817              1050.5230              1217.9947
 Red. masses --      1.1345                 1.2969                 6.8819
 Frc consts  --      0.3695                 0.8433                 6.0152
 IR Inten    --     72.6013                 1.4131                10.3182

                      7                      8                      9
                     A'                     A'                     A'
 Frequencies --   1316.3089              3069.6879              3262.5444
 Red. masses --      5.0445                 1.0844                 1.0940
 Frc consts  --      5.1497                 6.0207                 6.8607
 IR Inten    --     29.6818                12.0499                 5.4281

 - Thermochemistry -
 -------------------
 Temperature   298.150 Kelvin.  Pressure   1.00000 Atm.
 Atom     1 has atomic number  6 and mass  12.00000

 Molecular mass:    38.01565 amu.
 Principal axes and moments of inertia in atomic units:
                           1         2         3
     Eigenvalues --    28.47359 124.63002 153.10361
           X            0.96902  -0.24698   0.00000
           Y            0.24698   0.96902   0.00000
           Z            0.00000  -0.00000   1.00000
 This molecule is an asymmetric top.
 Rotational symmetry number  1.
 Rotational temperatures (Kelvin)      3.04190     0.69497     0.56572
 Rotational constants (GHZ):          63.38299    14.48079    11.78771
 Zero-point vibrational energy      71451.5 (Joules/Mol)
                                   17.07732 (Kcal/Mol)
 Warning -- explicit consideration of   2 degrees of freedom as
           vibrations may cause significant error
 Vibrational temperatures:    330.78   522.95   995.40  1069.70  1511.47
          (Kelvin)           1752.42  1893.87  4416.59  4694.07

 Zero-point correction=                           0.027214 (Hartree/Particle)
 Thermal correction to Energy=                    0.031178
 Thermal correction to Enthalpy=                  0.032122
 Thermal correction to Gibbs Free Energy=         0.001883
 Sum of electronic and zero-point Energies=           -115.250226
 Sum of electronic and thermal Energies=              -115.246263
 Sum of electronic and thermal Enthalpies=            -115.245319
 Sum of electronic and thermal Free Energies=         -115.275558

                     E (Thermal)             CV                S
                      KCal/Mol        Cal/Mol-Kelvin    Cal/Mol-Kelvin
 Total                   19.564             11.557             63.644
 Electronic               0.000              0.000              2.183
 Translational            0.889              2.981             36.835
 Rotational               0.889              2.981             20.924
 Vibrational             17.787              5.595              3.702
 Vibration     1          0.652              1.795              1.880
 Vibration     2          0.737              1.547              1.107

 Optimization completed.
    -- Stationary point found.
 Normal termination of Gaussian 09 at Sun Mar  4 21:13:40 2018.
