 Gaussian 09, Revision D.01,
 Gaussian 09:  ES64L-G09RevD.01 24-Apr-2013

 ---------------------------
 #p b3lyp/6-311++g(d,p) freq
 ---------------------------

 ---
 min
 ---
 Symbolic Z-matrix:
 Charge =  1 Multiplicity = 4

                         Standard orientation:
 ---------------------------------------------------------------------
 Center     Atomic      Atomic             Coordinates (Angstroms)
 Number     Number       Type             X           Y           Z
 ---------------------------------------------------------------------
      1          6           0        1.098642   -0.240135   -0.000000
      2          6           0       -0.848870   -0.414682    0.000000
      3          6           0        0.000000    0.593806   -0.000000
      4          1           0       -0.063150    1.687161   -0.000000
      5          1           0       -1.435481   -1.321094    0.000000
 ---------------------------------------------------------------------

 SCF Done:  E(UB3LYP) =  -114.894443591     A.U. after   13 cycles

 The electronic state is 4-A".
 Alpha  occ. eigenvalues --  -10.58683 -10.54947 -10.52468  -1.17390  -0.93394
 Alpha  occ. eigenvalues --   -0.85284  -0.79220  -0.68302  -0.66548  -0.56821
 Alpha  occ. eigenvalues --   -0.49924
 Alpha virt. eigenvalues --   -0.34623  -0.27450  -0.17219  -0.15366  -0.12882
 Alpha virt. eigenvalues --   -0.10718  -0.10487  -0.07274  -0.06849  -0.06487
 Alpha virt. eigenvalues --   -0.05353  -0.04103  -0.02923  -0.01404  -0.00456

  Beta  occ. eigenvalues --  -10.54721 -10.53354 -10.52629  -1.13976  -0.87492
  Beta  occ. eigenvalues --   -0.80918  -0.77298  -0.62045
  Beta virt. eigenvalues --   -0.45768  -0.42194  -0.33288  -0.25507  -0.23711
  Beta virt. eigenvalues --   -0.16230  -0.14877  -0.11740  -0.10250  -0.09235
  Beta virt. eigenvalues --   -0.06336  -0.06021  -0.05883  -0.04545  -0.03374

 Mulliken charges and spin densities:
               1          2
     1  C    0.305093   2.091342
     2  C    0.145149   1.025530
     3  C   -0.063003  -0.178029
     4  H    0.285776   0.099896
     5  H    0.326985  -0.038739
 Sum of Mulliken charges =   1.00000   3.00000

 Dipole moment (field-independent basis, Debye):
    X=             -0.6412    Y=             -0.2558    Z=              0.0000  Tot=              0.6903
 Quadrupole moment (field-independent basis, Debye-Ang):
   XX=             -9.2548   YY=             -9.0156   ZZ=            -16.9387
   XY=              1.9583   XZ=              0.0000   YZ=             -0.0000

  Exact polarizability:  35.106   2.725  24.325   0.000   0.000  15.951
 Approx polarizability:  70.625   5.228  35.950  -0.000  -0.000  20.339

                      1                      2                      3
                     A"                     A'                     A"
 Frequencies --    181.5722               409.9086               620.9718
 Red. masses --      1.3760                 5.5743                 1.2708
 Frc consts  --      0.0267                 0.5518                 0.2887
 IR Inten    --     54.7715                 3.2796                60.6040

                      4                      5                      6
                     A'                     A'                     A'
 Frequencies --    699.9284              1034.8303              1079.5797
 Red. masses --      1.2616                 1.6557                 2.5684
 Frc consts  --      0.3642                 1.0446                 1.7637
 IR Inten    --     32.3023                26.3491                 3.5470

                      7                      8                      9
                     A'                     A'                     A'
 Frequencies --   1510.0402              3068.0380              3291.9461
 Red. masses --      5.4898                 1.0989                 1.1161
 Frc consts  --      7.3754                 6.0942                 7.1260
 IR Inten    --      1.1942               137.8374               213.7219

 - Thermochemistry -
 -------------------
 Temperature   298.150 Kelvin.  Pressure   1.00000 Atm.
 Atom     1 has atomic number  6 and mass  12.00000

 Molecular mass:    38.01565 amu.
 Principal axes and moments of inertia in atomic units:
                           1         2         3
     Eigenvalues --    39.37259  91.91681 131.28940
           X            0.97990  -0.19949   0.00000
           Y            0.19949   0.97990   0.00000
           Z            0.00000  -0.00000   1.00000
 This molecule is an asymmetric top.
 Rotational symmetry number  1.
 Rotational temperatures (Kelvin)      2.19985     0.94231     0.65972
 Rotational constants (GHZ):          45.83750    19.63451    13.74628
 Zero-point vibrational energy      71158.8 (Joules/Mol)
                                   17.00735 (Kcal/Mol)
 Warning -- explicit consideration of   2 degrees of freedom as
           vibrations may cause significant error
 Vibrational temperatures:    261.24   589.77   893.44  1007.04  1488.89
          (Kelvin)           1553.27  2172.61  4414.22  4736.37

 Zero-point correction=                           0.027103 (Hartree/Particle)
 Thermal correction to Energy=                    0.031151
 Thermal correction to Enthalpy=                  0.032095
 Thermal correction to Gibbs Free Energy=         0.001449
 Sum of electronic and zero-point Energies=           -114.867341
 Sum of electronic and thermal Energies=              -114.863293
 Sum of electronic and thermal Enthalpies=            -114.862348
 Sum of electronic and thermal Free Energies=         -114.892995

                     E (Thermal)             CV                S
                      KCal/Mol        Cal/Mol-Kelvin    Cal/Mol-Kelvin
 Total                   19.547             11.803             64.501
 Electronic               0.000              0.000              2.755
 Translational            0.889              2.981             36.835
 Rotational               0.889              2.981             20.791
 Vibrational             17.770              5.842              4.121
 Vibration     1          0.630              1.865              2.312
 Vibration     2          0.774              1.449              0.927

 Optimization completed.
    -- Stationary point found.
 Normal termination of Gaussian 09 at Thu Jan 24 15:38:16 2019.
