 Gaussian 09, Revision D.01,
 Gaussian 09:  ES64L-G09RevD.01 24-Apr-2013

 ---------------------------
 #p b3lyp/6-311++g(d,p) freq
 ---------------------------

 ---
 min
 ---
 Symbolic Z-matrix:
 Charge =  0 Multiplicity = 3

                         Standard orientation:
 ---------------------------------------------------------------------
 Center     Atomic      Atomic             Coordinates (Angstroms)
 Number     Number       Type             X           Y           Z
 ---------------------------------------------------------------------
      1          6           0        0.559845   -0.982237    0.000000
      2          6           0        0.000000    0.243170   -0.000000
      3          6           0       -0.825961    1.233709   -0.000000
      4          1           0       -0.043536   -1.883200    0.000000
      5          1           0        1.640236   -1.084653    0.000000
 ---------------------------------------------------------------------

 SCF Done:  E(UB3LYP) =  -115.321375609     A.U. after   17 cycles

 The electronic state is 3-A".
 Alpha  occ. eigenvalues --  -10.24093 -10.23744 -10.22182  -0.83553  -0.73548
 Alpha  occ. eigenvalues --   -0.53063  -0.48809  -0.37348  -0.36136  -0.31599
 Alpha  occ. eigenvalues --   -0.23561
 Alpha virt. eigenvalues --   -0.03145  -0.00524   0.02553   0.02810   0.04401
 Alpha virt. eigenvalues --    0.06679   0.07189   0.08168   0.09540   0.10313
 Alpha virt. eigenvalues --    0.12792   0.13647   0.13791   0.15026   0.15316

  Beta  occ. eigenvalues --  -10.23467 -10.22193 -10.21259  -0.80519  -0.69380
  Beta  occ. eigenvalues --   -0.51400  -0.47152  -0.33430  -0.29681
  Beta virt. eigenvalues --   -0.19959  -0.11166  -0.01017   0.00697   0.03219
  Beta virt. eigenvalues --    0.03960   0.04742   0.07045   0.08773   0.10045
  Beta virt. eigenvalues --    0.10591   0.10612   0.13072   0.13983   0.14575

 Mulliken charges and spin densities:
               1          2
     1  C   -0.453189   0.709954
     2  C    0.465050   0.141434
     3  C   -0.331718   1.158325
     4  H    0.174677  -0.010029
     5  H    0.145180   0.000317
 Sum of Mulliken charges =   0.00000   2.00000

 Dipole moment (field-independent basis, Debye):
    X=              1.7622    Y=             -1.7967    Z=              0.0000  Tot=              2.5166
 Quadrupole moment (field-independent basis, Debye-Ang):
   XX=            -18.7426   YY=            -17.1663   ZZ=            -19.9683
   XY=              1.5141   XZ=             -0.0000   YZ=              0.0000

  Exact polarizability:  41.601 -28.208  64.859   0.000  -0.000  23.140
 Approx polarizability:  62.443 -42.822  87.099   0.000  -0.000  27.906

                      1                      2                      3
                     A'                     A"                     A"
 Frequencies --    358.2067               440.9259               648.4946
 Red. masses --      3.1632                 3.5449                 1.3567
 Frc consts  --      0.2391                 0.4061                 0.3362
 IR Inten    --     21.4377                 5.6917                72.8087

                      4                      5                      6
                     A'                     A'                     A'
 Frequencies --    914.3100              1001.9626              1361.4858
 Red. masses --      1.7545                 3.8239                 1.5163
 Frc consts  --      0.8641                 2.2619                 1.6560
 IR Inten    --    198.0140               295.7116               300.3423

                      7                      8                      9
                     A'                     A'                     A'
 Frequencies --   1445.0995              3125.5048              3214.0464
 Red. masses --      3.1367                 1.0513                 1.1142
 Frc consts  --      3.8594                 6.0508                 6.7815
 IR Inten    --    526.5519                18.2671                 3.6246

 - Thermochemistry -
 -------------------
 Temperature   298.150 Kelvin.  Pressure   1.00000 Atm.
 Atom     1 has atomic number  6 and mass  12.00000

 Molecular mass:    38.01565 amu.
 Principal axes and moments of inertia in atomic units:
                           1         2         3
     Eigenvalues --     7.13703 170.26728 177.40431
           X           -0.52512   0.85103  -0.00000
           Y            0.85103   0.52512   0.00000
           Z           -0.00000  -0.00000   1.00000
 This molecule is an asymmetric top.
 Rotational symmetry number  1.
 Rotational temperatures (Kelvin)     12.13584     0.50869     0.48823
 Rotational constants (GHZ):         252.87023    10.59946    10.17304
 Zero-point vibrational energy      74826.6 (Joules/Mol)
                                   17.88399 (Kcal/Mol)
 Warning -- explicit consideration of   2 degrees of freedom as
           vibrations may cause significant error
 Vibrational temperatures:    515.38   634.39   933.04  1315.49  1441.60
          (Kelvin)           1958.87  2079.17  4496.90  4624.29

 Zero-point correction=                           0.028500 (Hartree/Particle)
 Thermal correction to Energy=                    0.032194
 Thermal correction to Enthalpy=                  0.033138
 Thermal correction to Gibbs Free Energy=         0.003865
 Sum of electronic and zero-point Energies=           -115.292876
 Sum of electronic and thermal Energies=              -115.289181
 Sum of electronic and thermal Enthalpies=            -115.288237
 Sum of electronic and thermal Free Energies=         -115.317511

                     E (Thermal)             CV                S
                      KCal/Mol        Cal/Mol-Kelvin    Cal/Mol-Kelvin
 Total                   20.202             10.899             61.611
 Electronic               0.000              0.000              2.183
 Translational            0.889              2.981             36.835
 Rotational               0.889              2.981             20.005
 Vibrational             18.425              4.938              2.588
 Vibration     1          0.733              1.558              1.130
 Vibration     2          0.801              1.381              0.824

 Optimization completed.
    -- Stationary point found.
 Normal termination of Gaussian 09 at Sun Mar  4 21:13:41 2018.
