 Gaussian 09, Revision D.01,
 Gaussian 09:  ES64L-G09RevD.01 24-Apr-2013

 ---------------------------
 #p b3lyp/6-311++g(d,p) freq
 ---------------------------

 ---
 min
 ---
 Symbolic Z-matrix:
 Charge =  0 Multiplicity = 3

                         Standard orientation:
 ---------------------------------------------------------------------
 Center     Atomic      Atomic             Coordinates (Angstroms)
 Number     Number       Type             X           Y           Z
 ---------------------------------------------------------------------
      1          6           0        0.000000   -0.000000    0.799829
      2          6           0        0.000000    0.644483   -0.629422
      3          6           0       -0.000000   -0.644483   -0.629422
      4          1           0        0.922646   -0.000000    1.377044
      5          1           0       -0.922646    0.000000    1.377044
 ---------------------------------------------------------------------

 SCF Done:  E(UB3LYP) =  -115.273687510     A.U. after   12 cycles

 The electronic state is 3-B2.
 Alpha  occ. eigenvalues --  -10.24691 -10.24566 -10.24164  -0.90629  -0.64420
 Alpha  occ. eigenvalues --   -0.48959  -0.47593  -0.43106  -0.34592  -0.29367
 Alpha  occ. eigenvalues --   -0.26483
 Alpha virt. eigenvalues --   -0.01943  -0.00211   0.02456   0.03448   0.03818
 Alpha virt. eigenvalues --    0.07834   0.08700   0.08859   0.08932   0.09937
 Alpha virt. eigenvalues --    0.12062   0.13133   0.14392   0.16220   0.16510

  Beta  occ. eigenvalues --  -10.23432 -10.23181 -10.23072  -0.88039  -0.61963
  Beta  occ. eigenvalues --   -0.46929  -0.40886  -0.40074  -0.27852
  Beta virt. eigenvalues --   -0.18518  -0.12739   0.00074   0.00541   0.02472
  Beta virt. eigenvalues --    0.03885   0.04541   0.07970   0.08977   0.09118
  Beta virt. eigenvalues --    0.09899   0.12185   0.12655   0.13674   0.14450

 Mulliken charges and spin densities:
               1          2
     1  C   -0.293904   0.541326
     2  C    0.016979   0.752961
     3  C    0.016979   0.752961
     4  H    0.129973  -0.023624
     5  H    0.129973  -0.023624
 Sum of Mulliken charges =   0.00000   2.00000

 Dipole moment (field-independent basis, Debye):
    X=             -0.0000    Y=             -0.0000    Z=              1.4025  Tot=              1.4025
 Quadrupole moment (field-independent basis, Debye-Ang):
   XX=            -18.0156   YY=            -19.0332   ZZ=            -17.8963
   XY=             -0.0000   XZ=             -0.0000   YZ=             -0.0000

  Exact polarizability:  50.670   0.000  34.357  -0.000   0.000  38.045
 Approx polarizability:  36.948  -0.000  66.733   0.000  -0.000  53.653

                      1                      2                      3
                     A2                     B2                     A1
 Frequencies --    598.9196               641.7818               910.1011
 Red. masses --      1.1645                 8.9868                 7.3212
 Frc consts  --      0.2461                 2.1809                 3.5728
 IR Inten    --      0.0000                10.2037                 2.0622

                      4                      5                      6
                     B2                     B1                     A1
 Frequencies --    978.4429              1017.3283              1499.0332
 Red. masses --      1.2640                 1.2488                 1.1060
 Frc consts  --      0.7130                 0.7615                 1.4643
 IR Inten    --     71.3721               123.4378                 1.4378

                      7                      8                      9
                     A1                     A1                     B1
 Frequencies --   1738.8818              3062.3953              3138.1278
 Red. masses --      9.5714                 1.0442                 1.1167
 Frc consts  --     17.0517                 5.7696                 6.4791
 IR Inten    --     34.4515                27.9208                33.6295

 - Thermochemistry -
 -------------------
 Temperature   298.150 Kelvin.  Pressure   1.00000 Atm.
 Atom     1 has atomic number  6 and mass  12.00000

 Molecular mass:    38.01565 amu.
 Principal axes and moments of inertia in atomic units:
                           1         2         3
     Eigenvalues --    41.72601  80.44349 109.91452
           X            0.00000   0.00000   1.00000
           Y           -0.00000   1.00000   0.00000
           Z            1.00000   0.00000  -0.00000
 This molecule is an asymmetric top.
 Rotational symmetry number  2.
 Rotational temperatures (Kelvin)      2.07577     1.07670     0.78801
 Rotational constants (GHZ):          43.25218    22.43489    16.41950
 Zero-point vibrational energy      81256.4 (Joules/Mol)
                                   19.42075 (Kcal/Mol)
 Warning -- explicit consideration of   1 degrees of freedom as
           vibrations may cause significant error
 Vibrational temperatures:    861.71   923.38  1309.43  1407.76  1463.71
          (Kelvin)           2156.77  2501.86  4406.10  4515.06

 Zero-point correction=                           0.030949 (Hartree/Particle)
 Thermal correction to Energy=                    0.034214
 Thermal correction to Enthalpy=                  0.035158
 Thermal correction to Gibbs Free Energy=         0.006957
 Sum of electronic and zero-point Energies=           -115.242739
 Sum of electronic and thermal Energies=              -115.239474
 Sum of electronic and thermal Enthalpies=            -115.238530
 Sum of electronic and thermal Free Energies=         -115.266731

                     E (Thermal)             CV                S
                      KCal/Mol        Cal/Mol-Kelvin    Cal/Mol-Kelvin
 Total                   21.469              9.294             59.354
 Electronic               0.000              0.000              2.183
 Translational            0.889              2.981             36.835
 Rotational               0.889              2.981             19.162
 Vibrational             19.692              3.332              1.174
 Vibration     1          0.957              1.034              0.452

 Optimization completed.
    -- Stationary point found.
 Normal termination of Gaussian 09 at Sun Mar  4 21:13:31 2018.
