 Gaussian 09, Revision D.01,
 Gaussian 09:  ES64L-G09RevD.01 24-Apr-2013

 ---------------------------
 #p b3lyp/6-311++g(d,p) freq
 ---------------------------

 ---
 min
 ---
 Symbolic Z-matrix:
 Charge =  0 Multiplicity = 1

                         Standard orientation:
 ---------------------------------------------------------------------
 Center     Atomic      Atomic             Coordinates (Angstroms)
 Number     Number       Type             X           Y           Z
 ---------------------------------------------------------------------
      1          6           0        0.000000    0.000000    1.485119
      2          6           0       -0.000000   -0.000000   -1.121978
      3          6           0        0.000000    0.000000    0.201411
      4          1           0       -0.000000    0.926529   -1.693657
      5          1           0        0.000000   -0.926529   -1.693657
 ---------------------------------------------------------------------

 SCF Done:  E(RB3LYP) =  -115.367915768     A.U. after   11 cycles

 The electronic state is 1-A1.
 Alpha  occ. eigenvalues --  -10.26811 -10.22134 -10.19398  -0.82838  -0.71987
 Alpha  occ. eigenvalues --   -0.54573  -0.50192  -0.35659  -0.29620  -0.28525
 Alpha virt. eigenvalues --   -0.15618  -0.01627  -0.00145   0.03259   0.03634
 Alpha virt. eigenvalues --    0.03970   0.07489   0.08774   0.09124   0.09564
 Alpha virt. eigenvalues --    0.10151   0.11977   0.13088   0.13282   0.16063

 Mulliken charges:
               1
     1  C   -0.388762
     2  C   -0.567613
     3  C    0.635960
     4  H    0.160207
     5  H    0.160207
 Sum of Mulliken charges =   0.00000

 Dipole moment (field-independent basis, Debye):
    X=             -0.0000    Y=             -0.0000    Z=             -4.4153  Tot=              4.4153
 Quadrupole moment (field-independent basis, Debye-Ang):
   XX=            -18.1485   YY=            -18.1568   ZZ=            -20.7034
   XY=             -0.0000   XZ=             -0.0000   YZ=              0.0000

  Exact polarizability:  21.956   0.000  24.070  -0.000  -0.000  58.879
 Approx polarizability:  29.800  -0.000  30.584   0.000   0.000 112.170

                      1                      2                      3
                     B1                     B2                     B1
 Frequencies --    250.4661               298.7231              1045.5343
 Red. masses --      6.0537                 3.7153                 1.3517
 Frc consts  --      0.2238                 0.1953                 0.8706
 IR Inten    --      2.2047                 3.0071                20.6432

                      4                      5                      6
                     B2                     A1                     A1
 Frequencies --   1050.9090              1145.5714              1484.6143
 Red. masses --      1.4187                 3.8200                 1.2461
 Frc consts  --      0.9232                 2.9536                 1.6181
 IR Inten    --      2.3822                 0.5618                 8.8506

                      7                      8                      9
                     A1                     A1                     B2
 Frequencies --   2041.6304              3093.2779              3170.9580
 Red. masses --     10.7656                 1.0574                 1.1166
 Frc consts  --     26.4388                 5.9610                 6.6147
 IR Inten    --    299.4928                 8.9050                 0.4651

 - Thermochemistry -
 -------------------
 Temperature   298.150 Kelvin.  Pressure   1.00000 Atm.
 Atom     1 has atomic number  6 and mass  12.00000

 Molecular mass:    38.01565 amu.
 Principal axes and moments of inertia in atomic units:
                           1         2         3
     Eigenvalues --     6.17918 169.78443 175.96360
           X            0.00000  -0.00000   1.00000
           Y            0.00000   1.00000   0.00000
           Z            1.00000  -0.00000  -0.00000
 This molecule is an asymmetric top.
 Rotational symmetry number  2.
 Rotational temperatures (Kelvin)     14.01705     0.51014     0.49223
 Rotational constants (GHZ):         292.06829    10.62960    10.25633
 Zero-point vibrational energy      81236.5 (Joules/Mol)
                                   19.41599 (Kcal/Mol)
 Warning -- explicit consideration of   2 degrees of freedom as
           vibrations may cause significant error
 Vibrational temperatures:    360.36   429.80  1504.29  1512.02  1648.22
          (Kelvin)           2136.03  2937.45  4450.53  4562.30

 Zero-point correction=                           0.030941 (Hartree/Particle)
 Thermal correction to Energy=                    0.034769
 Thermal correction to Enthalpy=                  0.035713
 Thermal correction to Gibbs Free Energy=         0.007833
 Sum of electronic and zero-point Energies=           -115.336974
 Sum of electronic and thermal Energies=              -115.333147
 Sum of electronic and thermal Enthalpies=            -115.332202
 Sum of electronic and thermal Free Energies=         -115.360083

                     E (Thermal)             CV                S
                      KCal/Mol        Cal/Mol-Kelvin    Cal/Mol-Kelvin
 Total                   21.818             10.387             58.680
 Electronic               0.000              0.000              0.000
 Translational            0.889              2.981             36.835
 Rotational               0.889              2.981             18.474
 Vibrational             20.041              4.425              3.371
 Vibration     1          0.663              1.762              1.727
 Vibration     2          0.692              1.676              1.424

 Optimization completed.
    -- Stationary point found.

 1\1\ CITASK-GV2129\Freq\RB3LYP\6-311++G(d,p)\C3H2\EERD\04-Mar-2018\0\\
 #p b3lyp/6-311++g(d,p) freq\\min\\0,1\C,-0.8875978369,0.6148360732,0.7
 80482124\C,0.5413999081,-0.0694766248,-1.289937136\C,-0.1839740711,0.2
 778875516,-0.2389709869\H,0.080936146,-0.4263158587,-2.2096717001\H,1.
 6285598544,-0.0127471415,-1.2781983015\\Version=ES64L-G09RevD.01\State
 =1-A1\HF=-115.3679158\RMSD=1.727e-09\RMSF=8.072e-05\ZeroPoint=0.030941
 4\Thermal=0.0347691\Dipole=0.9521542,-0.4559638,-1.3795392\DipoleDeriv
 =0.1473162,-0.1676273,-0.5330928,-0.1676273,-0.2929363,0.3116328,-0.53

 Normal termination of Gaussian 09 at Sun Mar  4 21:13:19 2018.
