 Gaussian 09, Revision D.01,
 Gaussian 09:  ES64L-G09RevD.01 24-Apr-2013

 ---------------------------
 #p b3lyp/6-311++g(d,p) freq
 ---------------------------

 ---
 min
 ---
 Symbolic Z-matrix:
 Charge =  0 Multiplicity = 3

                         Standard orientation:
 ---------------------------------------------------------------------
 Center     Atomic      Atomic             Coordinates (Angstroms)
 Number     Number       Type             X           Y           Z
 ---------------------------------------------------------------------
      1          6           0        0.819618   -0.259654   -0.140723
      2          6           0       -0.075953    0.831049    0.040301
      3          6           0       -0.740448   -0.286830    0.010809
      4          1           0       -1.567173   -0.970817    0.023701
      5          1           0        1.547865   -0.736567    0.513976
 ---------------------------------------------------------------------

 SCF Done:  E(UB3LYP) =  -115.305556642     A.U. after   15 cycles

 The electronic state is 3-A.
 Alpha  occ. eigenvalues --  -10.23421 -10.23209 -10.23030  -0.91679  -0.62349
 Alpha  occ. eigenvalues --   -0.57705  -0.44645  -0.41636  -0.37667  -0.26273
 Alpha  occ. eigenvalues --   -0.19963
 Alpha virt. eigenvalues --   -0.02893  -0.00148   0.00992   0.03698   0.05104
 Alpha virt. eigenvalues --    0.06889   0.08604   0.09107   0.09630   0.10693
 Alpha virt. eigenvalues --    0.11712   0.11872   0.13154   0.16315   0.17088

  Beta  occ. eigenvalues --  -10.22544 -10.22341 -10.21360  -0.89508  -0.59634
  Beta  occ. eigenvalues --   -0.55137  -0.40527  -0.37630  -0.34110
  Beta virt. eigenvalues --   -0.13296  -0.06447  -0.00619   0.00028   0.01316
  Beta virt. eigenvalues --    0.03997   0.05668   0.07269   0.08967   0.09720
  Beta virt. eigenvalues --    0.10640   0.11890   0.12061   0.12446   0.13536

 Mulliken charges and spin densities:
               1          2
     1  C   -0.187872   1.043274
     2  C   -0.140770   0.517095
     3  C    0.003664   0.444768
     4  H    0.193707  -0.020732
     5  H    0.131271   0.015594
 Sum of Mulliken charges =  -0.00000   2.00000

 Dipole moment (field-independent basis, Debye):
    X=             -0.7946    Y=             -1.4755    Z=              0.7281  Tot=              1.8272
 Quadrupole moment (field-independent basis, Debye-Ang):
   XX=            -16.1823   YY=            -18.4749   ZZ=            -19.2411
   XY=              1.0416   XZ=              1.2078   YZ=             -0.6000

  Exact polarizability:  38.680  -1.216  34.101  -0.936   0.484  23.941
 Approx polarizability:  56.663   2.163  55.943  -2.103   1.267  31.346

                      1                      2                      3
                      A                      A                      A
 Frequencies --    558.2066               634.2306               850.7462
 Red. masses --      1.3939                 3.2354                 1.2147
 Frc consts  --      0.2559                 0.7668                 0.5180
 IR Inten    --     64.0052                19.0062                87.1375

                      4                      5                      6
                      A                      A                      A
 Frequencies --    893.8140               904.7873              1081.7005
 Red. masses --      1.2396                 1.4479                 5.5575
 Frc consts  --      0.5835                 0.6984                 3.8313
 IR Inten    --     11.3835                20.7896                30.2180

                      7                      8                      9
                      A                      A                      A
 Frequencies --   1661.7846              3094.0787              3321.6866
 Red. masses --      7.1654                 1.0899                 1.1136
 Frc consts  --     11.6584                 6.1476                 7.2391
 IR Inten    --      6.8305                17.1714                28.7958

 - Thermochemistry -
 -------------------
 Temperature   298.150 Kelvin.  Pressure   1.00000 Atm.
 Atom     1 has atomic number  6 and mass  12.00000

 Molecular mass:    38.01565 amu.
 Principal axes and moments of inertia in atomic units:
                           1         2         3
     Eigenvalues --    42.76052  71.85553 111.23629
           X            0.99801   0.04998   0.03854
           Y           -0.04856   0.99814  -0.03689
           Z           -0.04031   0.03495   0.99858
 This molecule is an asymmetric top.
 Rotational symmetry number  1.
 Rotational temperatures (Kelvin)      2.02556     1.20539     0.77865
 Rotational constants (GHZ):          42.20579    25.11625    16.22439
 Zero-point vibrational energy      77763.5 (Joules/Mol)
                                   18.58591 (Kcal/Mol)
 Warning -- explicit consideration of   1 degrees of freedom as
           vibrations may cause significant error
 Vibrational temperatures:    803.13   912.52  1224.03  1286.00  1301.79
          (Kelvin)           1556.32  2390.93  4451.68  4779.16

 Zero-point correction=                           0.029619 (Hartree/Particle)
 Thermal correction to Energy=                    0.032980
 Thermal correction to Enthalpy=                  0.033924
 Thermal correction to Gibbs Free Energy=         0.004976
 Sum of electronic and zero-point Energies=           -115.275938
 Sum of electronic and thermal Energies=              -115.272576
 Sum of electronic and thermal Enthalpies=            -115.271632
 Sum of electronic and thermal Free Energies=         -115.300580

                     E (Thermal)             CV                S
                      KCal/Mol        Cal/Mol-Kelvin    Cal/Mol-Kelvin
 Total                   20.695              9.955             60.926
 Electronic               0.000              0.000              2.183
 Translational            0.889              2.981             36.835
 Rotational               0.889              2.981             20.463
 Vibrational             18.918              3.993              1.445
 Vibration     1          0.914              1.122              0.527

 Optimization completed.
    -- Stationary point found.
 Normal termination of Gaussian 09 at Sun Mar  4 21:13:58 2018.
