 Gaussian 09, Revision D.01,
 Gaussian 09:  ES64L-G09RevD.01 24-Apr-2013

 ---------------------------
 #p b3lyp/6-311++g(d,p) freq
 ---------------------------

 ---
 min
 ---
 Symbolic Z-matrix:
 Charge =  0 Multiplicity = 3

                         Standard orientation:
 ---------------------------------------------------------------------
 Center     Atomic      Atomic             Coordinates (Angstroms)
 Number     Number       Type             X           Y           Z
 ---------------------------------------------------------------------
      1          6           0        0.000000    0.000000    0.000000
      2          6           0        0.000000    0.000000    1.268723
      3          6           0        0.000000    0.000000   -1.268723
      4          1           0        0.000000    0.000000   -2.331381
      5          1           0       -0.000000    0.000000    2.331381
 ---------------------------------------------------------------------

 SCF Done:  E(UB3LYP) =  -115.374250221     A.U. after   12 cycles

 The electronic state is 3-SGG.
 Alpha  occ. eigenvalues --  -10.21181 -10.21177 -10.19996  -0.80950  -0.71772
 Alpha  occ. eigenvalues --   -0.56491  -0.52411  -0.36397  -0.36397  -0.22922
 Alpha  occ. eigenvalues --   -0.22922
 Alpha virt. eigenvalues --   -0.00216   0.00923   0.03860   0.03860   0.04437
 Alpha virt. eigenvalues --    0.08951   0.09081   0.09081   0.09302   0.09302
 Alpha virt. eigenvalues --    0.11063   0.12488   0.16116   0.16116   0.18477

  Beta  occ. eigenvalues --  -10.20677 -10.19375 -10.19367  -0.78765  -0.66900
  Beta  occ. eigenvalues --   -0.54596  -0.51237  -0.32706  -0.32706
  Beta virt. eigenvalues --   -0.09925  -0.09925  -0.00002   0.01088   0.04129
  Beta virt. eigenvalues --    0.04129   0.04737   0.09482   0.10309   0.10309
  Beta virt. eigenvalues --    0.11674   0.11750   0.11750   0.12910   0.16728

 Mulliken charges and spin densities:
               1          2
     1  C    2.351411  -0.407245
     2  C   -1.315294   1.260504
     3  C   -1.315294   1.260504
     4  H    0.139588  -0.056882
     5  H    0.139588  -0.056882
 Sum of Mulliken charges =   0.00000   2.00000

 Dipole moment (field-independent basis, Debye):
    X=             -0.0000    Y=             -0.0000    Z=              0.0000  Tot=              0.0000
 Quadrupole moment (field-independent basis, Debye-Ang):
   XX=            -19.5118   YY=            -19.5118   ZZ=            -10.4313
   XY=             -0.0000   XZ=              0.0000   YZ=              0.0000

  Exact polarizability:  18.294  -0.000  18.294   0.000  -0.000  61.579
 Approx polarizability:  21.987  -0.000  21.987  -0.000  -0.000 107.056

 ******    2 imaginary frequencies (negative Signs) ******

                      1                      2                      3
                     PIU                    PIU                    PIG
 Frequencies --   -101.9219              -101.9219                90.1087
 Red. masses --      1.4577                 1.4577                 1.2635
 Frc consts  --      0.0089                 0.0089                 0.0060
 IR Inten    --    110.2608               110.2608                 0.0000

                      4                      5                      6
                     PIG                    PIU                    PIU
 Frequencies --     90.1087               430.1311               430.1311
 Red. masses --      1.2635                 2.9295                 2.9295
 Frc consts  --      0.0060                 0.3193                 0.3193
 IR Inten    --      0.0000                17.4534                17.4534

                      7                      8                      9
                     SGG                    SGU                    SGU
 Frequencies --   1285.8986              1717.9756              3447.1108
 Red. masses --      5.4827                 7.9143                 1.1098
 Frc consts  --      5.3414                13.7624                 7.7701
 IR Inten    --      0.0000                 1.3489               140.3907

                     10
                     SGG
 Frequencies --   3458.3397
 Red. masses --      1.1196
 Frc consts  --      7.8895
 IR Inten    --      0.0000

 - Thermochemistry -
 -------------------
 Temperature   298.150 Kelvin.  Pressure   1.00000 Atm.
 Atom     1 has atomic number  6 and mass  12.00000

 Molecular mass:    38.01565 amu.
 Principal axes and moments of inertia in atomic units:
                           1         2         3
     Eigenvalues --     0.00000 177.08029 177.08029
           X           -0.00000   1.00000  -0.00000
           Y            0.00000   0.00000   1.00000
           Z            1.00000   0.00000  -0.00000
 This molecule is a prolate symmetric top.
 Rotational symmetry number  2.
 Rotational temperature (Kelvin)      0.48912
 Rotational constant (GHZ):          10.191655
    2 imaginary frequencies ignored.
 Zero-point vibrational energy      65494.4 (Joules/Mol)
                                   15.65353 (Kcal/Mol)
 Warning -- explicit consideration of   4 degrees of freedom as
           vibrations may cause significant error
 Vibrational temperatures:    129.65   129.65   618.86   618.86  1850.12
          (Kelvin)           2471.78  4959.62  4975.77

 Zero-point correction=                           0.024945 (Hartree/Particle)
 Thermal correction to Energy=                    0.029390
 Thermal correction to Enthalpy=                  0.030334
 Thermal correction to Gibbs Free Energy=         0.001143
 Sum of electronic and zero-point Energies=           -115.349305
 Sum of electronic and thermal Energies=              -115.344861
 Sum of electronic and thermal Enthalpies=            -115.343916
 Sum of electronic and thermal Free Energies=         -115.373107

                     E (Thermal)             CV                S
                      KCal/Mol        Cal/Mol-Kelvin    Cal/Mol-Kelvin
 Total                   18.442             11.879             61.437
 Electronic               0.000              0.000              2.183
 Translational            0.889              2.981             36.835
 Rotational               0.592              1.987             13.353
 Vibrational             16.961              6.911              9.065
 Vibration     1          0.602              1.956              3.658
 Vibration     2          0.602              1.956              3.658
 Vibration     3          0.791              1.405              0.858
 Vibration     4          0.791              1.405              0.858

 Optimization completed.
    -- Stationary point found.
 Normal termination of Gaussian 09 at Sun Mar  4 21:13:25 2018.
