 Gaussian 09, Revision D.01,
 Gaussian 09:  ES64L-G09RevD.01 24-Apr-2013

 ---------------------------
 #p b3lyp/6-311++g(d,p) freq
 ---------------------------

 ---
 min
 ---
 Symbolic Z-matrix:
 Charge =  1 Multiplicity = 2

                         Standard orientation:
 ---------------------------------------------------------------------
 Center     Atomic      Atomic             Coordinates (Angstroms)
 Number     Number       Type             X           Y           Z
 ---------------------------------------------------------------------
      1          6           0        0.000000    0.000000    1.261398
      2          1           0        0.000000    0.000000    2.338108
      3          6           0        0.000000    0.000000    0.000000
      4          6           0        0.000000    0.000000   -1.261398
      5          1           0        0.000000    0.000000   -2.338108
 ---------------------------------------------------------------------

 SCF Done:  E(UB3LYP) =  -115.045148472     A.U. after   11 cycles

 Unable to determine electronic state:  an orbital has unidentified symmetry.
 Alpha  occ. eigenvalues --  -10.54402 -10.54401 -10.48335  -1.10309  -1.00526
 Alpha  occ. eigenvalues --   -0.83713  -0.80465  -0.64955  -0.62988  -0.51355
 Alpha virt. eigenvalues --   -0.42917  -0.19551  -0.18561  -0.16450  -0.15094
 Alpha virt. eigenvalues --   -0.14599  -0.09810  -0.09530  -0.08780  -0.05949
 Alpha virt. eigenvalues --   -0.05677  -0.05314  -0.01009   0.00296   0.00445

  Beta  occ. eigenvalues --  -10.53373 -10.53372 -10.48715  -1.09122  -0.97903
  Beta  occ. eigenvalues --   -0.82608  -0.79738  -0.62668  -0.61045
  Beta virt. eigenvalues --   -0.41341  -0.38350  -0.18349  -0.17045  -0.16021
  Beta virt. eigenvalues --   -0.14691  -0.14206  -0.09327  -0.08575  -0.08333
  Beta virt. eigenvalues --   -0.05554  -0.05204  -0.04914  -0.00818   0.00226

 Mulliken charges and spin densities:
               1          2
     1  C   -0.983053   0.626483
     2  H    0.261870  -0.025386
     3  C    2.442366  -0.202193
     4  C   -0.983053   0.626483
     5  H    0.261870  -0.025386
 Sum of Mulliken charges =   1.00000   1.00000

 Dipole moment (field-independent basis, Debye):
    X=              0.0000    Y=             -0.0000    Z=              0.0000  Tot=              0.0000
 Quadrupole moment (field-independent basis, Debye-Ang):
   XX=            -15.0528   YY=            -16.7234   ZZ=              3.0796
   XY=             -0.0000   XZ=             -0.0000   YZ=              0.0000

  Exact polarizability:  12.499  -0.000  13.563  -0.000  -0.000  49.579
 Approx polarizability:  16.589  -0.000  16.782  -0.000  -0.000 112.956

                      1                      2                      3
                     ?A                     PIG                    ?A
 Frequencies --    282.6523               297.9340               304.4091
 Red. masses --      1.5888                 1.2679                 2.7870
 Frc consts  --      0.0748                 0.0663                 0.1522
 IR Inten    --     91.0034                 0.0000                33.9452

                      4                      5                      6
                     ?A                     PIG                    ?A
 Frequencies --    398.5754               896.6140               909.8120
 Red. masses --      2.5127                 1.2679                 1.4957
 Frc consts  --      0.2352                 0.6006                 0.7295
 IR Inten    --     43.5555                 0.0000                 7.9317

                      7                      8                      9
                     SGG                    SGU                    SGU
 Frequencies --   1304.4057              1929.9838              3333.7321
 Red. masses --      5.3397                 6.8520                 1.1345
 Frc consts  --      5.3529                15.0375                 7.4288
 IR Inten    --      0.0000               420.8028               319.4346

                     10
                     SGG
 Frequencies --   3336.5592
 Red. masses --      1.1258
 Frc consts  --      7.3840
 IR Inten    --      0.0000

 - Thermochemistry -
 -------------------
 Temperature   298.150 Kelvin.  Pressure   1.00000 Atm.
 Atom     1 has atomic number  6 and mass  12.00000

 Molecular mass:    38.01565 amu.
 Principal axes and moments of inertia in atomic units:
                           1         2         3
     Eigenvalues --     0.00000 175.71800 175.71800
           X           -0.00000   1.00000  -0.00000
           Y            0.00000   0.00000   1.00000
           Z            1.00000   0.00000  -0.00000
 This molecule is a prolate symmetric top.
 Rotational symmetry number  2.
 Rotational temperature (Kelvin)      0.49291
 Rotational constant (GHZ):          10.270668
 Zero-point vibrational energy      77725.4 (Joules/Mol)
                                   18.57682 (Kcal/Mol)
 Warning -- explicit consideration of   4 degrees of freedom as
           vibrations may cause significant error
 Vibrational temperatures:    406.67   428.66   437.98   573.46  1290.03
          (Kelvin)           1309.01  1876.75  2776.81  4796.49  4800.56

 Zero-point correction=                           0.029604 (Hartree/Particle)
 Thermal correction to Energy=                    0.033673
 Thermal correction to Enthalpy=                  0.034618
 Thermal correction to Gibbs Free Energy=         0.007458
 Sum of electronic and zero-point Energies=           -115.015544
 Sum of electronic and thermal Energies=              -115.011475
 Sum of electronic and thermal Enthalpies=            -115.010531
 Sum of electronic and thermal Free Energies=         -115.037690

                     E (Thermal)             CV                S
                      KCal/Mol        Cal/Mol-Kelvin    Cal/Mol-Kelvin
 Total                   21.130             12.643             57.161
 Electronic               0.000              0.000              1.377
 Translational            0.889              2.981             36.835
 Rotational               0.592              1.987             13.338
 Vibrational             19.649              7.675              5.611
 Vibration     1          0.682              1.706              1.518
 Vibration     2          0.691              1.678              1.428
 Vibration     3          0.695              1.665              1.393
 Vibration     4          0.765              1.473              0.968

 Optimization completed.
    -- Stationary point found.
 Normal termination of Gaussian 09 at Thu Jan 24 15:37:31 2019.
