 Gaussian 09, Revision D.01,
 Gaussian 09:  ES64L-G09RevD.01 24-Apr-2013

 ---------------------------
 #p b3lyp/6-311++g(d,p) freq
 ---------------------------

 ---
 min
 ---
 Symbolic Z-matrix:
 Charge =  1 Multiplicity = 2

                         Standard orientation:
 ---------------------------------------------------------------------
 Center     Atomic      Atomic             Coordinates (Angstroms)
 Number     Number       Type             X           Y           Z
 ---------------------------------------------------------------------
      1          6           0        0.000000    0.698329   -0.287344
      2          6           0        0.000000    0.000000    0.870016
      3          6           0       -0.000000   -0.698329   -0.287344
      4          1           0        0.000000    1.602493   -0.885982
      5          1           0       -0.000000   -1.602493   -0.885982
 ---------------------------------------------------------------------

 SCF Done:  E(UB3LYP) =  -115.051334110     A.U. after   11 cycles

 The electronic state is 2-A1.
 Alpha  occ. eigenvalues --  -10.55818 -10.54705 -10.54653  -1.25633  -0.88914
 Alpha  occ. eigenvalues --   -0.86689  -0.75982  -0.68943  -0.68201  -0.58304
 Alpha virt. eigenvalues --   -0.32825  -0.30966  -0.16623  -0.15888  -0.14646
 Alpha virt. eigenvalues --   -0.11838  -0.11499  -0.11114  -0.07790  -0.06308
 Alpha virt. eigenvalues --   -0.04870  -0.04765  -0.03986  -0.02307  -0.00611

  Beta  occ. eigenvalues --  -10.54490 -10.54430 -10.54186  -1.24578  -0.88149
  Beta  occ. eigenvalues --   -0.85489  -0.71494  -0.68249  -0.66999
  Beta virt. eigenvalues --   -0.42672  -0.32781  -0.28402  -0.16440  -0.15658
  Beta virt. eigenvalues --   -0.14228  -0.11478  -0.10880  -0.10345  -0.07070
  Beta virt. eigenvalues --   -0.05613  -0.04893  -0.04395  -0.03663  -0.02093

 Mulliken charges and spin densities:
               1          2
     1  C    0.079564   0.121744
     2  C    0.260988   0.762494
     3  C    0.079564   0.121744
     4  H    0.289942  -0.002991
     5  H    0.289942  -0.002991
 Sum of Mulliken charges =   1.00000   1.00000

 Dipole moment (field-independent basis, Debye):
    X=             -0.0000    Y=              0.0000    Z=             -1.4322  Tot=              1.4322
 Quadrupole moment (field-independent basis, Debye-Ang):
   XX=            -14.8905   YY=             -8.3005   ZZ=            -12.3972
   XY=              0.0000   XZ=              0.0000   YZ=             -0.0000

  Exact polarizability:  14.085   0.000  26.274  -0.000  -0.000  24.864
 Approx polarizability:  20.258   0.000  40.544   0.000  -0.000  42.175

                      1                      2                      3
                     B1                     A1                     B2
 Frequencies --    838.0702               887.4731               978.7932
 Red. masses --      1.2235                 1.0821                 1.3119
 Frc consts  --      0.5063                 0.5022                 0.7405
 IR Inten    --     52.0705                54.4202                 8.6261

                      4                      5                      6
                     A2                     A1                     B2
 Frequencies --    999.0189              1195.3760              1312.6905
 Red. masses --      1.4015                 7.2036                 7.2654
 Frc consts  --      0.8241                 6.0647                 7.3762
 IR Inten    --      0.0000                93.1691                15.4967

                      7                      8                      9
                     A1                     B2                     A1
 Frequencies --   1660.7102              3222.3111              3248.0820
 Red. masses --      6.2224                 1.1039                 1.1373
 Frc consts  --     10.1110                 6.7534                 7.0691
 IR Inten    --      1.1154               138.7795                48.7021

 - Thermochemistry -
 -------------------
 Temperature   298.150 Kelvin.  Pressure   1.00000 Atm.
 Atom     1 has atomic number  6 and mass  12.00000

 Molecular mass:    38.01565 amu.
 Principal axes and moments of inertia in atomic units:
                           1         2         3
     Eigenvalues --    44.87268  60.27989 105.15257
           X            0.00000   0.00000   1.00000
           Y            1.00000   0.00000  -0.00000
           Z           -0.00000   1.00000  -0.00000
 This molecule is an asymmetric top.
 Rotational symmetry number  2.
 Rotational temperatures (Kelvin)      1.93021     1.43686     0.82370
 Rotational constants (GHZ):          40.21915    29.93936    17.16307
 Zero-point vibrational energy      85787.4 (Joules/Mol)
                                   20.50367 (Kcal/Mol)
 Vibrational temperatures:   1205.79  1276.87  1408.26  1437.36  1719.88
          (Kelvin)           1888.67  2389.39  4636.18  4673.26

 Zero-point correction=                           0.032675 (Hartree/Particle)
 Thermal correction to Energy=                    0.035739
 Thermal correction to Enthalpy=                  0.036683
 Thermal correction to Gibbs Free Energy=         0.009263
 Sum of electronic and zero-point Energies=           -115.018659
 Sum of electronic and thermal Energies=              -115.015595
 Sum of electronic and thermal Enthalpies=            -115.014651
 Sum of electronic and thermal Free Energies=         -115.042071

                     E (Thermal)             CV                S
                      KCal/Mol        Cal/Mol-Kelvin    Cal/Mol-Kelvin
 Total                   22.427              8.241             57.711
 Electronic               0.000              0.000              1.377
 Translational            0.889              2.981             36.835
 Rotational               0.889              2.981             18.903
 Vibrational             20.649              2.279              0.595

 Optimization completed.
    -- Stationary point found.
 Normal termination of Gaussian 09 at Thu Jan 24 15:38:07 2019.
