 Gaussian 09, Revision D.01,
 Gaussian 09:  ES64L-G09RevD.01 24-Apr-2013

 ---------------------------
 #p b3lyp/6-311++g(d,p) freq
 ---------------------------

 ---
 min
 ---
 Symbolic Z-matrix:
 Charge =  1 Multiplicity = 4

                         Standard orientation:
 ---------------------------------------------------------------------
 Center     Atomic      Atomic             Coordinates (Angstroms)
 Number     Number       Type             X           Y           Z
 ---------------------------------------------------------------------
      1          6           0       -1.309584    0.055821   -0.000909
      2          6           0        0.000049    0.000020    0.000519
      3          6           0        1.309546   -0.055849   -0.000909
      4          1           0        2.358912    0.186004    0.003896
      5          1           0       -2.358976   -0.185957    0.003898
 ---------------------------------------------------------------------

 SCF Done:  E(UB3LYP) =  -114.950249029     A.U. after   12 cycles

 The electronic state is 4-A.
 Alpha  occ. eigenvalues --  -10.56675 -10.52789 -10.52786  -1.12930  -1.02211
 Alpha  occ. eigenvalues --   -0.83122  -0.79593  -0.68603  -0.65692  -0.53063
 Alpha  occ. eigenvalues --   -0.51072
 Alpha virt. eigenvalues --   -0.27110  -0.23269  -0.17417  -0.15481  -0.13852
 Alpha virt. eigenvalues --   -0.10468  -0.09982  -0.08294  -0.07292  -0.06306
 Alpha virt. eigenvalues --   -0.05803  -0.00864  -0.00579   0.00040   0.00602

  Beta  occ. eigenvalues --  -10.56309 -10.50612 -10.50611  -1.07421  -0.95793
  Beta  occ. eigenvalues --   -0.80300  -0.77755  -0.61329
  Beta virt. eigenvalues --   -0.51967  -0.36658  -0.35641  -0.18861  -0.18631
  Beta virt. eigenvalues --   -0.15942  -0.13998  -0.13050  -0.09074  -0.08710
  Beta virt. eigenvalues --   -0.06755  -0.05663  -0.05189  -0.04948  -0.00417

 Mulliken charges and spin densities:
               1          2
     1  C   -0.716997   1.363311
     2  C    1.886032   0.374947
     3  C   -0.716698   1.362905
     4  H    0.273831  -0.050571
     5  H    0.273832  -0.050593
 Sum of Mulliken charges =   1.00000   3.00000

 Dipole moment (field-independent basis, Debye):
    X=              0.0002    Y=              0.0000    Z=              0.0097  Tot=              0.0097
 Quadrupole moment (field-independent basis, Debye-Ang):
   XX=              0.7143   YY=            -14.8831   ZZ=            -16.8745
   XY=              1.0066   XZ=             -0.0000   YZ=             -0.0000

  Exact polarizability:  50.679  -1.349  13.411   0.000   0.000  14.079
 Approx polarizability:  87.582  -4.632  17.852   0.000   0.000  17.442

                      1                      2                      3
                      A                      A                      A
 Frequencies --    121.1284               154.8063               296.8080
 Red. masses --      1.7003                 1.1843                 1.2507
 Frc consts  --      0.0147                 0.0167                 0.0649
 IR Inten    --     82.5564               138.4628                 0.0024

                      4                      5                      6
                      A                      A                      A
 Frequencies --    406.8359               442.8551              1188.0080
 Red. masses --      2.2765                 5.6531                 5.6417
 Frc consts  --      0.2220                 0.6532                 4.6914
 IR Inten    --     33.0112                 0.4118                 0.0000

                      7                      8                      9
                      A                      A                      A
 Frequencies --   1689.7227              3303.7809              3318.9123
 Red. masses --      7.5448                 1.1099                 1.1165
 Frc consts  --     12.6919                 7.1375                 7.2460
 IR Inten    --     65.0191               596.6013                 0.0114

 - Thermochemistry -
 -------------------
 Temperature   298.150 Kelvin.  Pressure   1.00000 Atm.
 Atom     1 has atomic number  6 and mass  12.00000

 Molecular mass:    38.01565 amu.
 Principal axes and moments of inertia in atomic units:
                           1         2         3
     Eigenvalues --     0.46454 187.08793 187.55210
           X            0.99986   0.01666  -0.00000
           Y           -0.01666   0.99986  -0.00000
           Z            0.00000   0.00000   1.00000
 This molecule is an asymmetric top.
 Rotational symmetry number  1.
 Rotational temperatures (Kelvin)    186.44877     0.46296     0.46181
 Rotational constants (GHZ):        3884.96674     9.64649     9.62261
 Zero-point vibrational energy      65333.2 (Joules/Mol)
                                   15.61501 (Kcal/Mol)
 Warning -- explicit consideration of   5 degrees of freedom as
           vibrations may cause significant error
 Vibrational temperatures:    174.28   222.73   427.04   585.35   637.17
          (Kelvin)           1709.28  2431.13  4753.40  4775.17

 Zero-point correction=                           0.024884 (Hartree/Particle)
 Thermal correction to Energy=                    0.030063
 Thermal correction to Enthalpy=                  0.031008
 Thermal correction to Gibbs Free Energy=        -0.000334
 Sum of electronic and zero-point Energies=           -114.925365
 Sum of electronic and thermal Energies=              -114.920186
 Sum of electronic and thermal Enthalpies=            -114.919242
 Sum of electronic and thermal Free Energies=         -114.950583

                     E (Thermal)             CV                S
                      KCal/Mol        Cal/Mol-Kelvin    Cal/Mol-Kelvin
 Total                   18.865             14.553             65.963
 Electronic               0.000              0.000              2.755
 Translational            0.889              2.981             36.835
 Rotational               0.889              2.981             17.440
 Vibrational             17.088              8.592              8.934
 Vibration     1          0.609              1.932              3.082
 Vibration     2          0.620              1.897              2.612
 Vibration     3          0.690              1.680              1.435
 Vibration     4          0.772              1.455              0.938
 Vibration     5          0.802              1.377              0.818

 Normal termination of Gaussian 09 at Thu Jan 24 15:38:30 2019.
