 Gaussian 09, Revision D.01,
 Gaussian 09:  ES64L-G09RevD.01 24-Apr-2013

 ---------------------------
 #p b3lyp/6-311++g(d,p) freq
 ---------------------------

 ---
 min
 ---
 Symbolic Z-matrix:
 Charge =  0 Multiplicity = 1

                         Standard orientation:
 ---------------------------------------------------------------------
 Center     Atomic      Atomic             Coordinates (Angstroms)
 Number     Number       Type             X           Y           Z
 ---------------------------------------------------------------------
      1          6           0        0.000000    0.000000    0.000000
      2          6           0        0.000000    1.287041   -0.000000
      3          6           0       -0.000000   -1.287041   -0.000000
      4          1           0        0.835621    1.975028   -0.000000
      5          1           0       -0.835621   -1.975028   -0.000000
 ---------------------------------------------------------------------

 SCF Done:  E(RB3LYP) =  -115.352272500     A.U. after   10 cycles

 The electronic state is 1-AG.
 Alpha  occ. eigenvalues --  -10.22801 -10.22797 -10.21547  -0.82037  -0.71826
 Alpha  occ. eigenvalues --   -0.53630  -0.50067  -0.35598  -0.34704  -0.23691
 Alpha virt. eigenvalues --   -0.14897  -0.01900  -0.00235   0.01713   0.03605
 Alpha virt. eigenvalues --    0.06031   0.06248   0.08382   0.09348   0.09752
 Alpha virt. eigenvalues --    0.11664   0.12124   0.13670   0.14972   0.15738

 Mulliken charges:
               1
     1  C    0.672838
     2  C   -0.501421
     3  C   -0.501421
     4  H    0.165002
     5  H    0.165002
 Sum of Mulliken charges =   0.00000

 Dipole moment (field-independent basis, Debye):
    X=              0.0000    Y=             -0.0000    Z=             -0.0000  Tot=              0.0000
 Quadrupole moment (field-independent basis, Debye-Ang):
   XX=            -19.1647   YY=            -17.1172   ZZ=            -17.8747
   XY=              5.8664   XZ=              0.0000   YZ=              0.0000

  Exact polarizability:  24.835  -1.588  68.643  -0.000  -0.000  18.880
 Approx polarizability:  30.626  -7.365 147.422   0.000   0.000  24.869

                      1                      2                      3
                     BU                     AU                     BU
 Frequencies --    153.3214               301.6924               488.5682
 Red. masses --      1.1383                 3.6422                10.1597
 Frc consts  --      0.0158                 0.1953                 1.4288
 IR Inten    --    595.6331                 1.9952                13.9349

                      4                      5                      6
                     AG                     AU                     AG
 Frequencies --    723.9673               954.4807              1223.2045
 Red. masses --      1.1802                 1.3283                 7.2351
 Frc consts  --      0.3645                 0.7130                 6.3781
 IR Inten    --      0.0000                 9.8752                 0.0000

                      7                      8                      9
                     BU                     AG                     BU
 Frequencies --   1845.0817              3226.1839              3231.1986
 Red. masses --      5.8144                 1.0984                 1.1039
 Frc consts  --     11.6624                 6.7356                 6.7908
 IR Inten    --     25.7951                 0.0000                 5.5058

 - Thermochemistry -
 -------------------
 Temperature   298.150 Kelvin.  Pressure   1.00000 Atm.
 Atom     1 has atomic number  6 and mass  12.00000

 Molecular mass:    38.01565 amu.
 Principal axes and moments of inertia in atomic units:
                           1         2         3
     Eigenvalues --     4.17532 170.89751 175.07283
           X            0.07144   0.99745   0.00000
           Y            0.99745  -0.07144   0.00000
           Z           -0.00000  -0.00000   1.00000
 This molecule is an asymmetric top.
 Rotational symmetry number  2.
 Rotational temperatures (Kelvin)     20.74424     0.50682     0.49473
 Rotational constants (GHZ):         432.24030    10.56037    10.30852
 Zero-point vibrational energy      72659.4 (Joules/Mol)
                                   17.36601 (Kcal/Mol)
 Warning -- explicit consideration of   3 degrees of freedom as
           vibrations may cause significant error
 Vibrational temperatures:    220.59   434.07   702.94  1041.63  1373.28
          (Kelvin)           1759.92  2654.66  4641.75  4648.97

 Zero-point correction=                           0.027674 (Hartree/Particle)
 Thermal correction to Energy=                    0.031959
 Thermal correction to Enthalpy=                  0.032903
 Thermal correction to Gibbs Free Energy=         0.004358
 Sum of electronic and zero-point Energies=           -115.324598
 Sum of electronic and thermal Energies=              -115.320313
 Sum of electronic and thermal Enthalpies=            -115.319369
 Sum of electronic and thermal Free Energies=         -115.347914

                     E (Thermal)             CV                S
                      KCal/Mol        Cal/Mol-Kelvin    Cal/Mol-Kelvin
 Total                   20.055             12.232             60.078
 Electronic               0.000              0.000              0.000
 Translational            0.889              2.981             36.835
 Rotational               0.889              2.981             18.086
 Vibrational             18.277              6.270              5.157
 Vibration     1          0.619              1.899              2.631
 Vibration     2          0.694              1.670              1.407
 Vibration     3          0.844              1.275              0.687

 1\1\ CITASK-GV1946\Freq\RB3LYP\6-311++G(d,p)\C3H2\EERD\04-Mar-2018\0\\
 #p b3lyp/6-311++g(d,p) freq\\min\\0,1\C,0.,0.,0.\C,1.101469,0.665764,0
 .\C,-1.101469,-0.665764,0.\H,1.258006,1.736784,0.\H,-1.258006,-1.73678
 4,0.\\Version=ES64L-G09RevD.01\State=1-AG\HF=-115.3522725\RMSD=2.901e-
 09\RMSF=8.264e-05\ZeroPoint=0.0276745\Thermal=0.0319591\Dipole=0.,0.,0
 .\DipoleDeriv=0.6272263,-0.1853124,0.,0.1447014,-0.2538955,0.,0.,0.,-0
 .0293677,-0.7859217,-0.0511238,0.,0.0341963,0.0842286,0.,0.,0.,-0.0613
 641,-0.7859216,-0.0511238,0.,0.0341963,0.0842286,0.,0.,0.,-0.0613641,0

 Normal termination of Gaussian 09 at Sun Mar  4 21:13:17 2018.
