 Gaussian 09, Revision D.01,
 Gaussian 09:  ES64L-G09RevD.01 24-Apr-2013

 ---------------------------
 #p b3lyp/6-311++g(d,p) freq
 ---------------------------

 ---
 min
 ---
 Symbolic Z-matrix:
 Charge =  0 Multiplicity = 1

                         Standard orientation:
 ---------------------------------------------------------------------
 Center     Atomic      Atomic             Coordinates (Angstroms)
 Number     Number       Type             X           Y           Z
 ---------------------------------------------------------------------
      1          6           0       -0.000000    0.000000    0.048451
      2          6           0        0.000000   -1.277938   -0.128640
      3          6           0       -0.000000    1.277938   -0.128640
      4          1           0       -0.000154    2.054115    0.626488
      5          1           0        0.000154   -2.054115    0.626488
 ---------------------------------------------------------------------

 SCF Done:  E(RB3LYP) =  -115.352296568     A.U. after   10 cycles

 The electronic state is 1-A.
 Alpha  occ. eigenvalues --  -10.22758 -10.22754 -10.21526  -0.82041  -0.71767
 Alpha  occ. eigenvalues --   -0.54128  -0.48522  -0.35476  -0.35370  -0.23559
 Alpha virt. eigenvalues --   -0.14773  -0.02365  -0.00656   0.01381   0.03755
 Alpha virt. eigenvalues --    0.05659   0.07714   0.07979   0.09053   0.09757
 Alpha virt. eigenvalues --    0.11034   0.13596   0.13768   0.14125   0.15111

 Mulliken charges:
               1
     1  C    0.772103
     2  C   -0.543823
     3  C   -0.543823
     4  H    0.157772
     5  H    0.157772
 Sum of Mulliken charges =   0.00000

 Dipole moment (field-independent basis, Debye):
    X=             -0.0000    Y=             -0.0000    Z=              2.4915  Tot=              2.4915
 Quadrupole moment (field-independent basis, Debye-Ang):
   XX=            -17.8909   YY=            -15.7410   ZZ=            -20.2986
   XY=             -0.0004   XZ=              0.0000   YZ=             -0.0000

  Exact polarizability:  23.619   0.000  67.664   0.000   0.000  25.535
 Approx polarizability:  30.040   0.002 145.126  -0.000   0.000  32.542

                      1                      2                      3
                      B                      B                      A
 Frequencies --    202.2596               328.3385               463.5843
 Red. masses --      1.3077                 3.7454                 2.3780
 Frc consts  --      0.0315                 0.2379                 0.3011
 IR Inten    --    517.9234                 4.4357                18.6269

                      4                      5                      6
                      A                      A                      A
 Frequencies --    788.0502               970.0404              1229.8947
 Red. masses --      1.5851                 1.2046                 7.1609
 Frc consts  --      0.5800                 0.6678                 6.3819
 IR Inten    --     14.0091                 0.0000                 0.1646

                      7                      8                      9
                      B                      A                      B
 Frequencies --   1815.2705              3224.4133              3229.6971
 Red. masses --      5.7549                 1.0966                 1.1029
 Frc consts  --     11.1731                 6.7174                 6.7779
 IR Inten    --      2.6444                 2.0091                 1.8009

 - Thermochemistry -
 -------------------
 Temperature   298.150 Kelvin.  Pressure   1.00000 Atm.
 Atom     1 has atomic number  6 and mass  12.00000

 Molecular mass:    38.01565 amu.
 Principal axes and moments of inertia in atomic units:
                           1         2         3
     Eigenvalues --     4.19883 170.33922 174.53805
           X           -0.00001  -0.00000   1.00000
           Y            1.00000   0.00000   0.00001
           Z           -0.00000   1.00000   0.00000
 This molecule is an asymmetric top.
 Rotational symmetry number  2.
 Rotational temperatures (Kelvin)     20.62809     0.50848     0.49625
 Rotational constants (GHZ):         429.82014    10.59498    10.34010
 Zero-point vibrational energy      73280.5 (Joules/Mol)
                                   17.51447 (Kcal/Mol)
 Warning -- explicit consideration of   3 degrees of freedom as
           vibrations may cause significant error
 Vibrational temperatures:    291.01   472.41   666.99  1133.83  1395.67
          (Kelvin)           1769.54  2611.77  4639.21  4646.81

 Zero-point correction=                           0.027911 (Hartree/Particle)
 Thermal correction to Energy=                    0.032079
 Thermal correction to Enthalpy=                  0.033023
 Thermal correction to Gibbs Free Energy=         0.004791
 Sum of electronic and zero-point Energies=           -115.324385
 Sum of electronic and thermal Energies=              -115.320218
 Sum of electronic and thermal Enthalpies=            -115.319274
 Sum of electronic and thermal Free Energies=         -115.347506

                     E (Thermal)             CV                S
                      KCal/Mol        Cal/Mol-Kelvin    Cal/Mol-Kelvin
 Total                   20.130             12.040             59.419
 Electronic               0.000              0.000              0.000
 Translational            0.889              2.981             36.835
 Rotational               0.889              2.981             18.085
 Vibrational             18.352              6.078              4.499
 Vibration     1          0.639              1.837              2.112
 Vibration     2          0.712              1.619              1.268
 Vibration     3          0.821              1.331              0.756

 Optimization completed.
    -- Stationary point found.

 1\1\ CITASK-GV2134\Freq\RB3LYP\6-311++G(d,p)\C3H2\EERD\04-Mar-2018\0\\
 #p b3lyp/6-311++g(d,p) freq\\min\\0,1\C,0.2583043437,0.0671555541,-0.5
 90145699\C,1.515165488,0.3386215752,-0.484818101\C,-0.9729450228,-0.22
 85766673,-0.343052416\H,-1.783180514,-0.348938667,-1.051359758\H,2.216
 190813,0.562456117,-1.2792546588\\Version=ES64L-G09RevD.01\State=1-A\H
 F=-115.3522966\RMSD=5.255e-09\RMSF=1.639e-05\ZeroPoint=0.0279111\Therm
 al=0.0320787\Dipole=-0.0708828,0.0671588,-0.975355\DipoleDeriv=0.19085
 16,-0.0100061,-0.025576,-0.0099488,0.2414459,0.0277863,-0.0255721,0.02

 Normal termination of Gaussian 09 at Sun Mar  4 21:13:23 2018.
