 Gaussian 09, Revision D.01,
 Gaussian 09:  ES64L-G09RevD.01 24-Apr-2013

 ---------------------------
 #p b3lyp/6-311++g(d,p) freq
 ---------------------------

 ---
 min
 ---
 Symbolic Z-matrix:
 Charge =  1 Multiplicity = 4

                         Standard orientation:
 ---------------------------------------------------------------------
 Center     Atomic      Atomic             Coordinates (Angstroms)
 Number     Number       Type             X           Y           Z
 ---------------------------------------------------------------------
      1          6           0       -0.000000   -0.000000    0.738971
      2          6           0       -0.000000    0.683269   -0.595692
      3          6           0       -0.000000   -0.683269   -0.595692
      4          1           0        0.919102   -0.000000    1.357238
      5          1           0       -0.919102    0.000000    1.357238
 ---------------------------------------------------------------------

 SCF Done:  E(UB3LYP) =  -114.900026496     A.U. after   11 cycles

 The electronic state is 4-A2.
 Alpha  occ. eigenvalues --  -10.60001 -10.59928 -10.52508  -1.24348  -0.92650
 Alpha  occ. eigenvalues --   -0.81681  -0.77615  -0.73276  -0.64762  -0.59965
 Alpha  occ. eigenvalues --   -0.57310
 Alpha virt. eigenvalues --   -0.35447  -0.17914  -0.17637  -0.14250  -0.13890
 Alpha virt. eigenvalues --   -0.12128  -0.09529  -0.07505  -0.07061  -0.05964
 Alpha virt. eigenvalues --   -0.04573  -0.03017  -0.01752  -0.01678  -0.00348

  Beta  occ. eigenvalues --  -10.57562 -10.57507 -10.51996  -1.20031  -0.88508
  Beta  occ. eigenvalues --   -0.73569  -0.72304  -0.68110
  Beta virt. eigenvalues --   -0.46821  -0.46460  -0.41507  -0.26757  -0.17047
  Beta virt. eigenvalues --   -0.14091  -0.13790  -0.12919  -0.09632  -0.09055
  Beta virt. eigenvalues --   -0.06729  -0.06249  -0.05147  -0.03710  -0.02171

 Mulliken charges and spin densities:
               1          2
     1  C   -0.371679   0.324793
     2  C    0.411029   1.232927
     3  C    0.411029   1.232927
     4  H    0.274810   0.104676
     5  H    0.274810   0.104676
 Sum of Mulliken charges =   1.00000   3.00000

 Dipole moment (field-independent basis, Debye):
    X=             -0.0000    Y=             -0.0000    Z=              1.1167  Tot=              1.1167
 Quadrupole moment (field-independent basis, Debye-Ang):
   XX=            -13.1050   YY=            -14.0754   ZZ=            -11.0045
   XY=             -0.0000   XZ=             -0.0000   YZ=              0.0000

  Exact polarizability:  18.154  -0.000  25.637   0.000   0.000  30.635
 Approx polarizability:  25.830  -0.000  51.191  -0.000   0.000  48.016

                      1                      2                      3
                     B1                     B2                     A2
 Frequencies --    710.2289               724.9898               856.5753
 Red. masses --      1.3028                 7.4405                 1.1463
 Frc consts  --      0.3872                 2.3042                 0.4956
 IR Inten    --      5.4163                13.7614                 0.0000

                      4                      5                      6
                     B2                     A1                     A1
 Frequencies --    974.4827              1021.3009              1270.2480
 Red. masses --      1.3028                 8.5089                 1.0634
 Frc consts  --      0.7289                 5.2291                 1.0109
 IR Inten    --    124.0576                12.7068                69.6806

                      7                      8                      9
                     A1                     A1                     B1
 Frequencies --   1459.7141              2890.5350              2936.1047
 Red. masses --     11.2560                 1.0458                 1.1009
 Frc consts  --     14.1309                 5.1482                 5.5917
 IR Inten    --      0.0104               169.6235                74.2792

 - Thermochemistry -
 -------------------
 Temperature   298.150 Kelvin.  Pressure   1.00000 Atm.
 Atom     1 has atomic number  6 and mass  12.00000

 Molecular mass:    38.01565 amu.
 Principal axes and moments of inertia in atomic units:
                           1         2         3
     Eigenvalues --    46.09272  72.47202 106.40371
           X           -0.00000   0.00000   1.00000
           Y            0.00000   1.00000  -0.00000
           Z            1.00000  -0.00000   0.00000
 This molecule is an asymmetric top.
 Rotational symmetry number  2.
 Rotational temperatures (Kelvin)      1.87912     1.19513     0.81401
 Rotational constants (GHZ):          39.15459    24.90259    16.96126
 Zero-point vibrational energy      76825.3 (Joules/Mol)
                                   18.36168 (Kcal/Mol)
 Vibrational temperatures:   1021.86  1043.10  1232.42  1402.06  1469.42
          (Kelvin)           1827.60  2100.20  4158.83  4224.39

 Zero-point correction=                           0.029261 (Hartree/Particle)
 Thermal correction to Energy=                    0.032462
 Thermal correction to Enthalpy=                  0.033406
 Thermal correction to Gibbs Free Energy=         0.005047
 Sum of electronic and zero-point Energies=           -114.870765
 Sum of electronic and thermal Energies=              -114.867565
 Sum of electronic and thermal Enthalpies=            -114.866620
 Sum of electronic and thermal Free Energies=         -114.894980

                     E (Thermal)             CV                S
                      KCal/Mol        Cal/Mol-Kelvin    Cal/Mol-Kelvin
 Total                   20.370              9.126             59.687
 Electronic               0.000              0.000              2.755
 Translational            0.889              2.981             36.835
 Rotational               0.889              2.981             19.125
 Vibrational             18.593              3.164              0.972

 Normal termination of Gaussian 09 at Thu Jan 24 15:38:07 2019.
