 Gaussian 09, Revision D.01,
 Gaussian 09:  ES64L-G09RevD.01 24-Apr-2013

 ---------------------------
 #p b3lyp/6-311++g(d,p) freq
 ---------------------------

 ---
 min
 ---
 Symbolic Z-matrix:
 Charge =  0 Multiplicity = 1

                         Standard orientation:
 ---------------------------------------------------------------------
 Center     Atomic      Atomic             Coordinates (Angstroms)
 Number     Number       Type             X           Y           Z
 ---------------------------------------------------------------------
      1          6           0       -1.085119    0.501846   -0.000448
      2          6           0        2.732455   -0.250473    0.000199
      3          6           0        0.205323    0.249389   -0.000278
      4          6           0        1.469278    0.011328    0.000002
      5          1           0       -1.739142   -1.309070   -0.000576
      6          1           0       -1.440465    1.526074    0.001468
      7          8           0       -2.094001   -0.411193    0.000283
 ---------------------------------------------------------------------

 SCF Done:  E(RB3LYP) =  -228.699780645     A.U. after   14 cycles

 The electronic state is 1-A.
 Alpha  occ. eigenvalues --  -19.20875 -10.29085 -10.26284 -10.22992 -10.20296
 Alpha  occ. eigenvalues --   -1.11581  -0.84602  -0.77274  -0.68460  -0.62394
 Alpha  occ. eigenvalues --   -0.53212  -0.45213  -0.43543  -0.36706  -0.35757
 Alpha  occ. eigenvalues --   -0.30256  -0.25215
 Alpha virt. eigenvalues --   -0.15642  -0.06149  -0.02627  -0.00289   0.03224
 Alpha virt. eigenvalues --    0.04649   0.05497   0.06565   0.07092   0.07437
 Alpha virt. eigenvalues --    0.08397   0.09550   0.10396   0.11359   0.12815

 Mulliken charges:
               1
     1  C   -0.682205
     2  C   -0.384400
     3  C    0.578889
     4  C    0.243331
     5  H    0.249273
     6  H    0.170563
     7  O   -0.175451
 Sum of Mulliken charges =  -0.00000

 Dipole moment (field-independent basis, Debye):
    X=             -3.7913    Y=              0.0678    Z=             -0.0006  Tot=              3.7919
 Quadrupole moment (field-independent basis, Debye-Ang):
   XX=            -43.6398   YY=            -23.5084   ZZ=            -30.9672
   XY=              2.0843   XZ=             -0.0003   YZ=              0.0062

  Exact polarizability: 106.851  -8.687  35.714   0.012  -0.000  29.082
 Approx polarizability: 224.461 -26.432  51.763   0.040  -0.003  37.686

                      1                      2                      3
                      A                      A                      A
 Frequencies --    127.3594               194.9410               283.2553
 Red. masses --      7.7109                 4.9183                 7.5454
 Frc consts  --      0.0737                 0.1101                 0.3567
 IR Inten    --     14.7705                 4.1386                 1.0091

                      4                      5                      6
                      A                      A                      A
 Frequencies --    389.5046               440.1221               629.5589
 Red. masses --      1.3136                 8.3104                 6.8712
 Frc consts  --      0.1174                 0.9485                 1.6046
 IR Inten    --    121.9955                 2.5617                 2.3130

                      7                      8                      9
                      A                      A                      A
 Frequencies --    782.9430               886.1201              1160.0817
 Red. masses --      1.4639                 5.4138                 2.3123
 Frc consts  --      0.5287                 2.5046                 1.8335
 IR Inten    --     34.5673                43.0540               255.0761

                     10                     11                     12
                      A                      A                      A
 Frequencies --   1265.9959              1383.4737              1718.5914
 Red. masses --      1.7051                 1.2874                 9.8312
 Frc consts  --      1.6102                 1.4518                17.1081
 IR Inten    --     11.0368                32.3702               252.7355

                     13                     14                     15
                      A                      A                      A
 Frequencies --   2133.3256              3185.6064              3805.3310
 Red. masses --     11.7027                 1.0875                 1.0665
 Frc consts  --     31.3798                 6.5020                 9.0988
 IR Inten    --    186.7478                18.4898                79.9058

 - Thermochemistry -
 -------------------
 Temperature   298.150 Kelvin.  Pressure   1.00000 Atm.
 Atom     1 has atomic number  6 and mass  12.00000

 Molecular mass:    66.01056 amu.
 Principal axes and moments of inertia in atomic units:
                           1         2         3
     Eigenvalues --    40.35597 732.99544 773.35136
           X            1.00000   0.00037  -0.00001
           Y           -0.00037   1.00000   0.00026
           Z            0.00001  -0.00026   1.00000
 This molecule is an asymmetric top.
 Rotational symmetry number  1.
 Rotational temperatures (Kelvin)      2.14625     0.11816     0.11200
 Rotational constants (GHZ):          44.72055     2.46215     2.33366
 Zero-point vibrational energy     109974.0 (Joules/Mol)
                                   26.28441 (Kcal/Mol)
 Warning -- explicit consideration of   5 degrees of freedom as
           vibrations may cause significant error
 Vibrational temperatures:    183.24   280.48   407.54   560.41   633.24
          (Kelvin)            905.79  1126.48  1274.93  1669.10  1821.48
                             1990.51  2472.67  3069.38  4583.37  5475.02

 Zero-point correction=                           0.041887 (Hartree/Particle)
 Thermal correction to Energy=                    0.047333
 Thermal correction to Enthalpy=                  0.048277
 Thermal correction to Gibbs Free Energy=         0.013828
 Sum of electronic and zero-point Energies=           -228.657894
 Sum of electronic and thermal Energies=              -228.652448
 Sum of electronic and thermal Enthalpies=            -228.651504
 Sum of electronic and thermal Free Energies=         -228.685953

                     E (Thermal)             CV                S
                      KCal/Mol        Cal/Mol-Kelvin    Cal/Mol-Kelvin
 Total                   29.702             17.034             72.504
 Electronic               0.000              0.000              0.000
 Translational            0.889              2.981             38.480
 Rotational               0.889              2.981             24.640
 Vibrational             27.924             11.072              9.384
 Vibration     1          0.611              1.926              2.986
 Vibration     2          0.636              1.847              2.180
 Vibration     3          0.682              1.705              1.514
 Vibration     4          0.757              1.493              1.002
 Vibration     5          0.800              1.383              0.826

 Optimization completed.
    -- Stationary point found.
 Normal termination of Gaussian 09 at Sun Mar  4 21:09:03 2018.
