 Gaussian 09, Revision D.01,
 Gaussian 09:  ES64L-G09RevD.01 24-Apr-2013

 ---------------------------
 #p b3lyp/6-311++g(d,p) freq
 ---------------------------

 ---
 min
 ---
 Symbolic Z-matrix:
 Charge =  0 Multiplicity = 1

                         Standard orientation:
 ---------------------------------------------------------------------
 Center     Atomic      Atomic             Coordinates (Angstroms)
 Number     Number       Type             X           Y           Z
 ---------------------------------------------------------------------
      1          6           0        1.057546   -0.117193    0.408721
      2          6           0       -1.565733   -0.784049   -0.262209
      3          6           0       -1.528629    0.588430    0.019741
      4          6           0       -0.376524   -0.073332    0.125599
      5          1           0       -2.042504    1.534187    0.103810
      6          1           0        1.310000   -0.430203    1.441325
      7          8           0        1.901568    0.151611   -0.412031
 ---------------------------------------------------------------------

 SCF Done:  E(RB3LYP) =  -228.738943841     A.U. after   13 cycles

 The electronic state is 1-A.
 Alpha  occ. eigenvalues --  -19.15866 -10.30706 -10.26244 -10.25846 -10.22835
 Alpha  occ. eigenvalues --   -1.08971  -0.96000  -0.72639  -0.61836  -0.56650
 Alpha  occ. eigenvalues --   -0.49864  -0.48390  -0.42936  -0.40648  -0.37241
 Alpha  occ. eigenvalues --   -0.29971  -0.26591
 Alpha virt. eigenvalues --   -0.07832  -0.06582  -0.04357  -0.00941   0.00268
 Alpha virt. eigenvalues --    0.03262   0.04023   0.05374   0.06408   0.07463
 Alpha virt. eigenvalues --    0.08520   0.09916   0.10645   0.11282   0.11387

 Mulliken charges:
               1
     1  C   -0.191457
     2  C   -0.353972
     3  C    0.197675
     4  C    0.280947
     5  H    0.192387
     6  H    0.113017
     7  O   -0.238597
 Sum of Mulliken charges =  -0.00000

 Dipole moment (field-independent basis, Debye):
    X=             -0.9498    Y=              2.3178    Z=              2.4273  Tot=              3.4880
 Quadrupole moment (field-independent basis, Debye-Ang):
   XX=            -34.3115   YY=            -29.3351   ZZ=            -27.7939
   XY=             -7.2989   XZ=              1.4716   YZ=             -1.0379

  Exact polarizability:  64.321   1.513  39.604   1.345   0.024  35.797
 Approx polarizability:  99.384   2.787  58.917  -1.977  -0.805  54.118

                      1                      2                      3
                      A                      A                      A
 Frequencies --    116.3133               210.9000               265.0118
 Red. masses --      3.5712                 6.8672                 3.0949
 Frc consts  --      0.0285                 0.1800                 0.1281
 IR Inten    --     21.2186                13.5525                 5.0671

                      4                      5                      6
                      A                      A                      A
 Frequencies --    585.6270               798.3193               922.0852
 Red. masses --      6.2055                 2.5706                 1.4225
 Frc consts  --      1.2539                 0.9652                 0.7126
 IR Inten    --      0.6014                38.8626                 6.8856

                      7                      8                      9
                      A                      A                      A
 Frequencies --    942.9843               984.1531              1097.5419
 Red. masses --      1.8305                 1.8682                 4.8647
 Frc consts  --      0.9590                 1.0661                 3.4526
 IR Inten    --      8.8310                35.0220                43.6211

                     10                     11                     12
                      A                      A                      A
 Frequencies --   1267.1094              1399.7675              1729.9383
 Red. masses --      7.4422                 1.2226                 7.9080
 Frc consts  --      7.0401                 1.4114                13.9438
 IR Inten    --     17.2358                 6.5779                38.7691

                     13                     14                     15
                      A                      A                      A
 Frequencies --   1761.7456              2918.8993              3246.1879
 Red. masses --     10.3733                 1.0828                 1.1140
 Frc consts  --     18.9694                 5.4353                 6.9165
 IR Inten    --    300.2004                64.3370                 2.7113

 - Thermochemistry -
 -------------------
 Temperature   298.150 Kelvin.  Pressure   1.00000 Atm.
 Atom     1 has atomic number  6 and mass  12.00000

 Molecular mass:    66.01056 amu.
 Principal axes and moments of inertia in atomic units:
                           1         2         3
     Eigenvalues --    79.79784 515.05188 539.47353
           X            0.99947  -0.02917   0.01475
           Y            0.03014   0.99708  -0.07016
           Z           -0.01266   0.07057   0.99743
 This molecule is an asymmetric top.
 Rotational symmetry number  1.
 Rotational temperatures (Kelvin)      1.08542     0.16817     0.16055
 Rotational constants (GHZ):          22.61642     3.50400     3.34537
 Zero-point vibrational energy     109138.8 (Joules/Mol)
                                   26.08480 (Kcal/Mol)
 Warning -- explicit consideration of   4 degrees of freedom as
           vibrations may cause significant error
 Vibrational temperatures:    167.35   303.44   381.29   842.59  1148.60
          (Kelvin)           1326.67  1356.74  1415.97  1579.12  1823.09
                             2013.95  2488.99  2534.76  4199.64  4670.53

 Zero-point correction=                           0.041569 (Hartree/Particle)
 Thermal correction to Energy=                    0.046545
 Thermal correction to Enthalpy=                  0.047490
 Thermal correction to Gibbs Free Energy=         0.013725
 Sum of electronic and zero-point Energies=           -228.697375
 Sum of electronic and thermal Energies=              -228.692399
 Sum of electronic and thermal Enthalpies=            -228.691454
 Sum of electronic and thermal Free Energies=         -228.725219

                     E (Thermal)             CV                S
                      KCal/Mol        Cal/Mol-Kelvin    Cal/Mol-Kelvin
 Total                   29.208             15.100             71.064
 Electronic               0.000              0.000              0.000
 Translational            0.889              2.981             38.480
 Rotational               0.889              2.981             24.609
 Vibrational             27.430              9.138              7.975
 Vibration     1          0.608              1.936              3.161
 Vibration     2          0.643              1.824              2.036
 Vibration     3          0.671              1.737              1.629
 Vibration     4          0.943              1.062              0.475

 Normal termination of Gaussian 09 at Sun Mar  4 21:09:07 2018.
