 Gaussian 09, Revision D.01,
 Gaussian 09:  ES64L-G09RevD.01 24-Apr-2013

 ---------------------------
 #p b3lyp/6-311++g(d,p) freq
 ---------------------------

 ---
 min
 ---
 Symbolic Z-matrix:
 Charge =  1 Multiplicity = 4

                         Standard orientation:
 ---------------------------------------------------------------------
 Center     Atomic      Atomic             Coordinates (Angstroms)
 Number     Number       Type             X           Y           Z
 ---------------------------------------------------------------------
      1          6           0        0.000000    1.103044   -0.131786
      2          6           0       -0.853456   -0.000000    0.144043
      3          6           0       -0.000000   -1.103044   -0.131786
      4          6           0        0.853456    0.000000    0.144043
      5          1           0        0.000000    2.181528   -0.073542
      6          1           0       -0.000000   -2.181528   -0.073542
 ---------------------------------------------------------------------

 SCF Done:  E(UB3LYP) =  -153.025039339     A.U. after   13 cycles

 The electronic state is 4-A2.
 Alpha  occ. eigenvalues --  -10.56548 -10.56541 -10.50432 -10.50429  -1.25654
 Alpha  occ. eigenvalues --   -0.98274  -0.87837  -0.81670  -0.72013  -0.71894
 Alpha  occ. eigenvalues --   -0.70140  -0.63972  -0.50464  -0.49184
 Alpha virt. eigenvalues --   -0.32379  -0.26711  -0.15200  -0.14077  -0.13411
 Alpha virt. eigenvalues --   -0.12231  -0.10926  -0.08659  -0.06353  -0.06277
 Alpha virt. eigenvalues --   -0.05701  -0.05035  -0.03633  -0.02468  -0.02352

  Beta  occ. eigenvalues --  -10.54732 -10.54726 -10.49399 -10.49398  -1.22689
  Beta  occ. eigenvalues --   -0.95197  -0.81429  -0.79930  -0.70650  -0.67725
  Beta  occ. eigenvalues --   -0.64907
  Beta virt. eigenvalues --   -0.46544  -0.36407  -0.34258  -0.26393  -0.20062
  Beta virt. eigenvalues --   -0.14534  -0.13283  -0.13017  -0.11025  -0.09587
  Beta virt. eigenvalues --   -0.08469  -0.05732  -0.05631  -0.04816  -0.04067

 Mulliken charges and spin densities:
               1          2
     1  C   -0.160340   0.673002
     2  C    0.374997   0.834343
     3  C   -0.160340   0.673002
     4  C    0.374997   0.834343
     5  H    0.285343  -0.007345
     6  H    0.285343  -0.007345
 Sum of Mulliken charges =   1.00000   3.00000

 Dipole moment (field-independent basis, Debye):
    X=              0.0000    Y=             -0.0000    Z=             -0.1044  Tot=              0.1044
 Quadrupole moment (field-independent basis, Debye-Ang):
   XX=            -17.9527   YY=             -9.3865   ZZ=            -21.4633
   XY=              0.0000   XZ=             -0.0000   YZ=              0.0000

  Exact polarizability:  30.865   0.000  43.536  -0.000  -0.000  21.374
 Approx polarizability:  60.699  -0.000  73.766   0.000  -0.000  30.696

                      1                      2                      3
                     A1                     B2                     A1
 Frequencies --    563.3605               612.7542               692.2874
 Red. masses --      2.0688                 1.3325                 2.0573
 Frc consts  --      0.3868                 0.2948                 0.5809
 IR Inten    --     19.8865                33.7516                52.4797

                      4                      5                      6
                     B1                     A1                     A2
 Frequencies --    864.5642               888.0168               925.2948
 Red. masses --      1.6616                 5.3491                10.3318
 Frc consts  --      0.7318                 2.4852                 5.2118
 IR Inten    --     18.2239                14.9126                 0.0000

                      7                      8                      9
                     A2                     B1                     B2
 Frequencies --   1012.5881              1169.9190              1196.7558
 Red. masses --      1.2138                 2.2908                 6.7636
 Frc consts  --      0.7333                 1.8473                 5.7074
 IR Inten    --      0.0000                55.9209                 4.6136

                     10                     11                     12
                     A1                     B2                     A1
 Frequencies --   1319.5922              3252.8648              3266.0484
 Red. masses --      7.1120                 1.0952                 1.1101
 Frc consts  --      7.2967                 6.8276                 6.9767
 IR Inten    --      0.2944               274.3519                 0.2610

 - Thermochemistry -
 -------------------
 Temperature   298.150 Kelvin.  Pressure   1.00000 Atm.
 Atom     1 has atomic number  6 and mass  12.00000

 Molecular mass:    50.01565 amu.
 Principal axes and moments of inertia in atomic units:
                           1         2         3
     Eigenvalues --    65.73094 141.83848 200.96110
           X            0.00000   1.00000   0.00000
           Y            1.00000  -0.00000   0.00000
           Z            0.00000   0.00000   1.00000
 This molecule is an asymmetric top.
 Rotational symmetry number  2.
 Rotational temperatures (Kelvin)      1.31770     0.61065     0.43100
 Rotational constants (GHZ):          27.45649    12.72392     8.98055
 Zero-point vibrational energy      94289.9 (Joules/Mol)
                                   22.53583 (Kcal/Mol)
 Warning -- explicit consideration of   2 degrees of freedom as
           vibrations may cause significant error
 Vibrational temperatures:    810.55   881.62   996.05  1243.91  1277.66
          (Kelvin)           1331.29  1456.89  1683.25  1721.86  1898.60
                             4680.14  4699.11

 Zero-point correction=                           0.035913 (Hartree/Particle)
 Thermal correction to Energy=                    0.039444
 Thermal correction to Enthalpy=                  0.040389
 Thermal correction to Gibbs Free Energy=         0.010417
 Sum of electronic and zero-point Energies=           -152.989126
 Sum of electronic and thermal Energies=              -152.985595
 Sum of electronic and thermal Enthalpies=            -152.984651
 Sum of electronic and thermal Free Energies=         -153.014623

                     E (Thermal)             CV                S
                      KCal/Mol        Cal/Mol-Kelvin    Cal/Mol-Kelvin
 Total                   24.752             11.389             63.081
 Electronic               0.000              0.000              2.755
 Translational            0.889              2.981             37.653
 Rotational               0.889              2.981             20.776
 Vibrational             22.974              5.428              1.897
 Vibration     1          0.919              1.111              0.517
 Vibration     2          0.972              1.005              0.428

 Normal termination of Gaussian 09 at Thu Jan 24 15:43:12 2019.
