 Gaussian 09, Revision D.01,
 Gaussian 09:  ES64L-G09RevD.01 24-Apr-2013

 ---------------------------
 #p b3lyp/6-311++g(d,p) freq
 ---------------------------

 ---
 min
 ---
 Symbolic Z-matrix:
 Charge =  0 Multiplicity = 3

                         Standard orientation:
 ---------------------------------------------------------------------
 Center     Atomic      Atomic             Coordinates (Angstroms)
 Number     Number       Type             X           Y           Z
 ---------------------------------------------------------------------
      1          6           0        1.927733    0.149222    0.000002
      2          6           0        0.640895   -0.046960   -0.000013
      3          6           0       -0.640895    0.046960    0.000013
      4          6           0       -1.927733   -0.149222   -0.000002
      5          1           0        2.750997   -0.557261   -0.000106
      6          1           0       -2.750997    0.557261    0.000106
 ---------------------------------------------------------------------

 SCF Done:  E(UB3LYP) =  -153.405733686     A.U. after   14 cycles

 The electronic state is 3-AU.
 Alpha  occ. eigenvalues --  -10.23568 -10.23568 -10.22926 -10.22807  -0.84416
 Alpha  occ. eigenvalues --   -0.77977  -0.68065  -0.53176  -0.50458  -0.39588
 Alpha  occ. eigenvalues --   -0.38992  -0.31216  -0.29823  -0.19351
 Alpha virt. eigenvalues --   -0.09645  -0.00399   0.00725   0.01196   0.05480
 Alpha virt. eigenvalues --    0.05497   0.05508   0.06117   0.09210   0.09634
 Alpha virt. eigenvalues --    0.10776   0.11036   0.12535   0.12625   0.13337

  Beta  occ. eigenvalues --  -10.22706 -10.22590 -10.22287 -10.22285  -0.82496
  Beta  occ. eigenvalues --   -0.74972  -0.65783  -0.51541  -0.49135  -0.36225
  Beta  occ. eigenvalues --   -0.36035  -0.25845
  Beta virt. eigenvalues --   -0.19505  -0.09758  -0.04830  -0.00229   0.00926
  Beta virt. eigenvalues --    0.02553   0.05660   0.05920   0.06217   0.06747
  Beta virt. eigenvalues --    0.09778   0.10404   0.11217   0.11491   0.13023

 Mulliken charges and spin densities:
               1          2
     1  C   -0.664658   0.871177
     2  C    0.505719   0.121807
     3  C    0.505719   0.121807
     4  C   -0.664658   0.871177
     5  H    0.158939   0.007016
     6  H    0.158939   0.007016
 Sum of Mulliken charges =  -0.00000   2.00000

 Dipole moment (field-independent basis, Debye):
    X=              0.0000    Y=             -0.0000    Z=             -0.0000  Tot=              0.0000
 Quadrupole moment (field-independent basis, Debye-Ang):
   XX=            -19.8185   YY=            -26.1593   ZZ=            -23.4555
   XY=             -5.7025   XZ=             -0.0008   YZ=             -0.0003

  Exact polarizability: 118.061   9.190  33.523   0.000   0.001  24.188
 Approx polarizability: 252.647  25.513  43.005   0.001   0.001  31.748

                      1                      2                      3
                     AU                     AU                     AG
 Frequencies --    222.8568               234.8749               407.2146
 Red. masses --      4.0206                 4.1097                 5.4664
 Frc consts  --      0.1177                 0.1336                 0.5341
 IR Inten    --      1.0640                 9.6274                 0.0000

                      4                      5                      6
                     AG                     AU                     AG
 Frequencies --    562.1153               605.6300               797.6134
 Red. masses --      4.4673                 1.3011                 1.2521
 Frc consts  --      0.8317                 0.2812                 0.4693
 IR Inten    --      0.0000               613.9217                 0.0000

                      7                      8                      9
                     AU                     AG                     AU
 Frequencies --    840.8761               957.7814              1528.1090
 Red. masses --      1.2655                 8.4781                 6.3694
 Frc consts  --      0.5272                 4.5823                 8.7632
 IR Inten    --     19.2783                 0.0000                 3.6518

                     10                     11                     12
                     AG                     AU                     AG
 Frequencies --   2115.5046              3177.4588              3177.9853
 Red. masses --     10.0335                 1.1001                 1.0985
 Frc consts  --     26.4564                 6.5441                 6.5368
 IR Inten    --      0.0000                 3.6581                 0.0000

 - Thermochemistry -
 -------------------
 Temperature   298.150 Kelvin.  Pressure   1.00000 Atm.
 Atom     1 has atomic number  6 and mass  12.00000

 Molecular mass:    50.01565 amu.
 Principal axes and moments of inertia in atomic units:
                           1         2         3
     Eigenvalues --     4.03111 408.47434 412.50545
           X            0.99963  -0.02731   0.00001
           Y            0.02731   0.99963  -0.00014
           Z           -0.00001   0.00014   1.00000
 This molecule is an asymmetric top.
 Rotational symmetry number  1.
 Rotational temperatures (Kelvin)     21.48634     0.21204     0.20997
 Rotational constants (GHZ):         447.70323     4.41825     4.37507
 Zero-point vibrational energy      87495.0 (Joules/Mol)
                                   20.91180 (Kcal/Mol)
 Warning -- explicit consideration of   5 degrees of freedom as
           vibrations may cause significant error
 Vibrational temperatures:    320.64   337.93   585.89   808.76   871.37
          (Kelvin)           1147.59  1209.83  1378.03  2198.61  3043.74
                             4571.65  4572.41

 Zero-point correction=                           0.033325 (Hartree/Particle)
 Thermal correction to Energy=                    0.038027
 Thermal correction to Enthalpy=                  0.038972
 Thermal correction to Gibbs Free Energy=         0.007060
 Sum of electronic and zero-point Energies=           -153.372409
 Sum of electronic and thermal Energies=              -153.367706
 Sum of electronic and thermal Enthalpies=            -153.366762
 Sum of electronic and thermal Free Energies=         -153.398673

                     E (Thermal)             CV                S
                      KCal/Mol        Cal/Mol-Kelvin    Cal/Mol-Kelvin
 Total                   23.863             14.885             67.163
 Electronic               0.000              0.000              2.183
 Translational            0.889              2.981             37.653
 Rotational               0.889              2.981             21.146
 Vibrational             22.085              8.923              6.181
 Vibration     1          0.649              1.806              1.936
 Vibration     2          0.655              1.787              1.841
 Vibration     3          0.772              1.455              0.937
 Vibration     4          0.918              1.113              0.520
 Vibration     5          0.964              1.020              0.440

 Optimization completed.
    -- Stationary point found.
 Normal termination of Gaussian 09 at Sun Mar  4 21:07:56 2018.
