 Gaussian 09, Revision D.01,
 Gaussian 09:  ES64L-G09RevD.01 24-Apr-2013

 ---------------------------
 #p b3lyp/6-311++g(d,p) freq
 ---------------------------

 ---
 min
 ---
 Symbolic Z-matrix:
 Charge =  0 Multiplicity = 1

                         Standard orientation:
 ---------------------------------------------------------------------
 Center     Atomic      Atomic             Coordinates (Angstroms)
 Number     Number       Type             X           Y           Z
 ---------------------------------------------------------------------
      1          6           0       -1.023353    1.046445    0.000000
      2          6           0        0.269208   -1.312113   -0.000000
      3          6           0        1.240917   -0.401470   -0.000000
      4          6           0       -0.000000    0.206950    0.000000
      5          1           0       -1.460317    1.380563    0.933925
      6          1           0       -1.460317    1.380563   -0.933925
 ---------------------------------------------------------------------

 SCF Done:  E(RB3LYP) =  -153.429090778     A.U. after   12 cycles

 The electronic state is 1-A'.
 Alpha  occ. eigenvalues --  -10.29301 -10.24160 -10.23234 -10.22078  -0.94590
 Alpha  occ. eigenvalues --   -0.79503  -0.56596  -0.50378  -0.50192  -0.43703
 Alpha  occ. eigenvalues --   -0.37648  -0.29542  -0.27852
 Alpha virt. eigenvalues --   -0.10990  -0.08235  -0.01051  -0.00554   0.02134
 Alpha virt. eigenvalues --    0.04289   0.04960   0.05406   0.07122   0.07453
 Alpha virt. eigenvalues --    0.08116   0.11632   0.12072   0.12825   0.13183

 Mulliken charges:
               1
     1  C   -0.401312
     2  C   -0.169827
     3  C   -0.287057
     4  C    0.519502
     5  H    0.169347
     6  H    0.169347
 Sum of Mulliken charges =  -0.00000

 Dipole moment (field-independent basis, Debye):
    X=             -2.0290    Y=              2.4749    Z=             -0.0000  Tot=              3.2003
 Quadrupole moment (field-independent basis, Debye-Ang):
   XX=            -25.0645   YY=            -25.7680   ZZ=            -21.9516
   XY=             -3.5420   XZ=              0.0000   YZ=             -0.0000

  Exact polarizability:  58.996 -18.178  55.426  -0.000  -0.000  28.877
 Approx polarizability: 126.110 -53.242 105.064   0.000  -0.000  41.447

                      1                      2                      3
                     A'                     A"                     A"
 Frequencies --    240.4325               389.4768               429.6969
 Red. masses --      5.2743                 2.0700                 1.2965
 Frc consts  --      0.1796                 0.1850                 0.1410
 IR Inten    --      7.8149                 1.0577                 2.2163

                      4                      5                      6
                     A'                     A'                     A'
 Frequencies --    508.4733               814.0590               950.6349
 Red. masses --     10.3393                 1.3668                 5.2326
 Frc consts  --      1.5750                 0.5337                 2.7861
 IR Inten    --     22.2964                68.1216                13.9857

                      7                      8                      9
                     A"                     A'                     A'
 Frequencies --    965.1342              1370.7559              1489.1522
 Red. masses --      1.6630                 1.3429                 4.6227
 Frc consts  --      0.9127                 1.4867                 6.0399
 IR Inten    --      1.2585                 7.0067                 2.5186

                     10                     11                     12
                     A'                     A'                     A"
 Frequencies --   1771.0738              3144.8254              3235.9018
 Red. masses --     10.1932                 1.0563                 1.1158
 Frc consts  --     18.8379                 6.1548                 6.8840
 IR Inten    --     88.9559                20.9929                 6.1591

 - Thermochemistry -
 -------------------
 Temperature   298.150 Kelvin.  Pressure   1.00000 Atm.
 Atom     1 has atomic number  6 and mass  12.00000

 Molecular mass:    50.01565 amu.
 Principal axes and moments of inertia in atomic units:
                           1         2         3
     Eigenvalues --    45.38166 238.52480 271.35001
           X           -0.68117   0.73212  -0.00000
           Y            0.73212   0.68117  -0.00000
           Z            0.00000   0.00000   1.00000
 This molecule is an asymmetric top.
 Rotational symmetry number  1.
 Rotational temperatures (Kelvin)      1.90856     0.36312     0.31920
 Rotational constants (GHZ):          39.76807     7.56626     6.65097
 Zero-point vibrational energy      91571.8 (Joules/Mol)
                                   21.88620 (Kcal/Mol)
 Warning -- explicit consideration of   4 degrees of freedom as
           vibrations may cause significant error
 Vibrational temperatures:    345.93   560.37   618.24   731.58  1171.25
          (Kelvin)           1367.75  1388.61  1972.21  2142.56  2548.18
                             4524.70  4655.74

 Zero-point correction=                           0.034878 (Hartree/Particle)
 Thermal correction to Energy=                    0.039206
 Thermal correction to Enthalpy=                  0.040150
 Thermal correction to Gibbs Free Energy=         0.009263
 Sum of electronic and zero-point Energies=           -153.394213
 Sum of electronic and thermal Energies=              -153.389885
 Sum of electronic and thermal Enthalpies=            -153.388941
 Sum of electronic and thermal Free Energies=         -153.419827

                     E (Thermal)             CV                S
                      KCal/Mol        Cal/Mol-Kelvin    Cal/Mol-Kelvin
 Total                   24.602             13.572             65.006
 Electronic               0.000              0.000              0.000
 Translational            0.889              2.981             37.653
 Rotational               0.889              2.981             22.601
 Vibrational             22.825              7.610              4.753
 Vibration     1          0.658              1.779              1.800
 Vibration     2          0.757              1.493              1.002
 Vibration     3          0.791              1.406              0.860
 Vibration     4          0.864              1.231              0.637

 Optimization completed.
    -- Stationary point found.

 1\1\ CITASK-GV1139\Freq\RB3LYP\6-311++G(d,p)\C4H2\EERD\04-Mar-2018\0\\
 #p b3lyp/6-311++g(d,p) freq\\min\\0,1\C,1.0706505741,-0.6235970369,-0.
 905580074\C,-1.2032075749,0.6473584991,-0.236439738\C,-0.868114377,-0.
 03160178,0.85910374\C,0.053400551,-0.243312956,-0.148884218\H,1.983652
 38,-0.040107075,-0.933067761\H,0.9892805354,-1.502197633,-1.5350467653
 \\Version=ES64L-G09RevD.01\State=1-A'\HF=-153.4290908\RMSD=9.421e-09\R
 MSF=1.497e-05\ZeroPoint=0.0348779\Thermal=0.0392059\Dipole=1.036415,-0
 .4908269,-0.519866\DipoleDeriv=-0.3213698,0.1653327,0.1787458,0.197828

 Normal termination of Gaussian 09 at Sun Mar  4 21:07:35 2018.
