 Gaussian 09, Revision D.01,
 Gaussian 09:  ES64L-G09RevD.01 24-Apr-2013

 ---------------------------
 #p b3lyp/6-311++g(d,p) freq
 ---------------------------

 ---
 min
 ---
 Symbolic Z-matrix:
 Charge =  0 Multiplicity = 3

                         Standard orientation:
 ---------------------------------------------------------------------
 Center     Atomic      Atomic             Coordinates (Angstroms)
 Number     Number       Type             X           Y           Z
 ---------------------------------------------------------------------
      1          6           0       -0.000000   -1.927835   -0.143353
      2          6           0        0.000000   -0.641608    0.050626
      3          6           0        0.000000    0.641608    0.050626
      4          6           0        0.000000    1.927835   -0.143353
      5          1           0        0.000000   -2.756691    0.556364
      6          1           0        0.000000    2.756691    0.556364
 ---------------------------------------------------------------------

 SCF Done:  E(UB3LYP) =  -153.405229483     A.U. after   13 cycles

 The electronic state is 3-A2.
 Alpha  occ. eigenvalues --  -10.23594 -10.23594 -10.22913 -10.22793  -0.84383
 Alpha  occ. eigenvalues --   -0.77965  -0.68171  -0.52997  -0.51121  -0.39621
 Alpha  occ. eigenvalues --   -0.38727  -0.31184  -0.29850  -0.19289
 Alpha virt. eigenvalues --   -0.09703  -0.00496   0.00513   0.02707   0.04882
 Alpha virt. eigenvalues --    0.05522   0.05578   0.06200   0.07609   0.11102
 Alpha virt. eigenvalues --    0.11215   0.11597   0.12604   0.12813   0.13092

  Beta  occ. eigenvalues --  -10.22693 -10.22576 -10.22313 -10.22310  -0.82461
  Beta  occ. eigenvalues --   -0.74970  -0.65896  -0.51378  -0.49750  -0.36258
  Beta  occ. eigenvalues --   -0.35838  -0.25815
  Beta virt. eigenvalues --   -0.19525  -0.09721  -0.04887  -0.00320   0.00906
  Beta virt. eigenvalues --    0.04203   0.04930   0.06107   0.06226   0.06823
  Beta virt. eigenvalues --    0.08101   0.11286   0.11829   0.12355   0.13031

 Mulliken charges and spin densities:
               1          2
     1  C   -0.589961   0.919955
     2  C    0.440112   0.075845
     3  C    0.440112   0.075845
     4  C   -0.589961   0.919955
     5  H    0.149848   0.004201
     6  H    0.149848   0.004201
 Sum of Mulliken charges =  -0.00000   2.00000

 Dipole moment (field-independent basis, Debye):
    X=             -0.0000    Y=             -0.0000    Z=              1.9824  Tot=              1.9824
 Quadrupole moment (field-independent basis, Debye-Ang):
   XX=            -23.4483   YY=            -19.7144   ZZ=            -26.2035
   XY=              0.0000   XZ=              0.0000   YZ=              0.0000

  Exact polarizability:  23.464   0.000 118.011  -0.000   0.000  30.546
 Approx polarizability:  32.270   0.000 252.471   0.000  -0.000  38.503

                      1                      2                      3
                     A1                     B1                     B2
 Frequencies --    232.0898               240.7918               366.6583
 Red. masses --      3.6988                 2.3554                 8.7637
 Frc consts  --      0.1174                 0.0805                 0.6942
 IR Inten    --      7.0819                19.6011                 0.1195

                      4                      5                      6
                     A2                     B2                     A1
 Frequencies --    513.6677               594.1062               794.9630
 Red. masses --      5.4882                 1.2328                 1.2515
 Frc consts  --      0.8532                 0.2564                 0.4660
 IR Inten    --      0.0000               544.1669                25.4403

                      7                      8                      9
                     A2                     A1                     B2
 Frequencies --    833.9239               954.2813              1529.3833
 Red. masses --      1.2959                 8.4845                 6.4321
 Frc consts  --      0.5310                 4.5523                 8.8641
 IR Inten    --      0.0000                 0.6006                 2.5502

                     10                     11                     12
                     A1                     B2                     A1
 Frequencies --   2131.8626              3177.4469              3178.1264
 Red. masses --      9.9873                 1.1013                 1.0984
 Frc consts  --     26.7434                 6.5513                 6.5365
 IR Inten    --      1.2655                 4.1382                 0.1919

 - Thermochemistry -
 -------------------
 Temperature   298.150 Kelvin.  Pressure   1.00000 Atm.
 Atom     1 has atomic number  6 and mass  12.00000

 Molecular mass:    50.01565 amu.
 Principal axes and moments of inertia in atomic units:
                           1         2         3
     Eigenvalues --     4.12198 408.51045 412.63243
           X            0.00000  -0.00000   1.00000
           Y            1.00000   0.00000   0.00000
           Z           -0.00000   1.00000   0.00000
 This molecule is an asymmetric top.
 Rotational symmetry number  2.
 Rotational temperatures (Kelvin)     21.01266     0.21202     0.20991
 Rotational constants (GHZ):         437.83325     4.41786     4.37373
 Zero-point vibrational energy      87012.2 (Joules/Mol)
                                   20.79641 (Kcal/Mol)
 Warning -- explicit consideration of   5 degrees of freedom as
           vibrations may cause significant error
 Vibrational temperatures:    333.93   346.45   527.54   739.05   854.79
          (Kelvin)           1143.77  1199.83  1373.00  2200.44  3067.27
                             4571.63  4572.61

 Zero-point correction=                           0.033141 (Hartree/Particle)
 Thermal correction to Energy=                    0.037904
 Thermal correction to Enthalpy=                  0.038848
 Thermal correction to Gibbs Free Energy=         0.007498
 Sum of electronic and zero-point Energies=           -153.372088
 Sum of electronic and thermal Energies=              -153.367326
 Sum of electronic and thermal Enthalpies=            -153.366382
 Sum of electronic and thermal Free Energies=         -153.397732

                     E (Thermal)             CV                S
                      KCal/Mol        Cal/Mol-Kelvin    Cal/Mol-Kelvin
 Total                   23.785             15.097             65.982
 Electronic               0.000              0.000              2.183
 Translational            0.889              2.981             37.653
 Rotational               0.889              2.981             19.791
 Vibrational             22.007              9.135              6.355
 Vibration     1          0.653              1.792              1.863
 Vibration     2          0.658              1.778              1.797
 Vibration     3          0.740              1.541              1.094
 Vibration     4          0.869              1.220              0.625
 Vibration     5          0.952              1.044              0.460

 Optimization completed.
    -- Stationary point found.
 Normal termination of Gaussian 09 at Sun Mar  4 21:07:38 2018.
