 Gaussian 09, Revision D.01,
 Gaussian 09:  ES64L-G09RevD.01 24-Apr-2013

 ---------------------------
 #p b3lyp/6-311++g(d,p) freq
 ---------------------------

 ---
 min
 ---
 Symbolic Z-matrix:
 Charge =  0 Multiplicity = 3

                         Standard orientation:
 ---------------------------------------------------------------------
 Center     Atomic      Atomic             Coordinates (Angstroms)
 Number     Number       Type             X           Y           Z
 ---------------------------------------------------------------------
      1          6           0        0.000000    0.681567   -1.129292
      2          6           0       -0.000000   -0.000000    1.487582
      3          6           0       -0.000000   -0.000000    0.092787
      4          6           0       -0.000000   -0.681567   -1.129292
      5          1           0       -0.000000   -0.935681    2.034647
      6          1           0        0.000000    0.935681    2.034647
 ---------------------------------------------------------------------

 SCF Done:  E(UB3LYP) =  -153.394923124     A.U. after   13 cycles

 The electronic state is 3-A2.
 Alpha  occ. eigenvalues --  -10.27114 -10.25323 -10.22756 -10.22686  -0.95396
 Alpha  occ. eigenvalues --   -0.79507  -0.56773  -0.53577  -0.45947  -0.44376
 Alpha  occ. eigenvalues --   -0.42604  -0.29393  -0.29168  -0.25983
 Alpha virt. eigenvalues --   -0.02684  -0.01249  -0.01093   0.01687   0.04471
 Alpha virt. eigenvalues --    0.05431   0.05435   0.06058   0.08159   0.08587
 Alpha virt. eigenvalues --    0.10986   0.11765   0.11933   0.12245   0.12775

  Beta  occ. eigenvalues --  -10.26699 -10.24209 -10.21800 -10.21728  -0.93869
  Beta  occ. eigenvalues --   -0.76256  -0.54885  -0.51229  -0.43720  -0.40674
  Beta  occ. eigenvalues --   -0.39727  -0.26198
  Beta virt. eigenvalues --   -0.16973  -0.14375  -0.00819   0.00064   0.00905
  Beta virt. eigenvalues --    0.01875   0.04805   0.05577   0.06302   0.07405
  Beta virt. eigenvalues --    0.08476   0.09155   0.11457   0.12070   0.12604

 Mulliken charges and spin densities:
               1          2
     1  C   -0.360928   0.355035
     2  C   -0.158073   0.983701
     3  C    0.533439   0.350032
     4  C   -0.360928   0.355035
     5  H    0.173245  -0.021902
     6  H    0.173245  -0.021902
 Sum of Mulliken charges =  -0.00000   2.00000

 Dipole moment (field-independent basis, Debye):
    X=              0.0000    Y=             -0.0000    Z=              3.4560  Tot=              3.4560
 Quadrupole moment (field-independent basis, Debye-Ang):
   XX=            -23.8462   YY=            -26.6701   ZZ=            -22.3356
   XY=             -0.0000   XZ=              0.0000   YZ=              0.0000

  Exact polarizability:  28.127  -0.000  56.319  -0.000   0.000  59.356
 Approx polarizability:  39.123   0.000  85.243  -0.000  -0.000  90.263

                      1                      2                      3
                     B2                     B1                     A2
 Frequencies --    300.5681               404.9925               484.2831
 Red. masses --      3.2236                 4.5211                 1.1520
 Frc consts  --      0.1716                 0.4369                 0.1592
 IR Inten    --     61.2129                 0.0202                 0.0000

                      4                      5                      6
                     B2                     B1                     A1
 Frequencies --    583.7773               768.6067               865.5434
 Red. masses --     11.5361                 1.4447                 5.2603
 Frc consts  --      2.3163                 0.5029                 2.3219
 IR Inten    --    372.9010                51.8216                13.5146

                      7                      8                      9
                     B2                     A1                     A1
 Frequencies --   1016.1991              1356.8797              1445.2748
 Red. masses --      1.4308                 5.6077                 1.2663
 Frc consts  --      0.8706                 6.0830                 1.5584
 IR Inten    --     15.2750                35.9345                10.3013

                     10                     11                     12
                     A1                     A1                     B2
 Frequencies --   1608.8304              3135.0518              3242.2422
 Red. masses --     11.4714                 1.0498                 1.1193
 Frc consts  --     17.4939                 6.0794                 6.9328
 IR Inten    --      4.3653                 0.0282                 0.0107

 - Thermochemistry -
 -------------------
 Temperature   298.150 Kelvin.  Pressure   1.00000 Atm.
 Atom     1 has atomic number  6 and mass  12.00000

 Molecular mass:    50.01565 amu.
 Principal axes and moments of inertia in atomic units:
                           1         2         3
     Eigenvalues --    46.11497 233.13260 279.24757
           X            0.00000   0.00000   1.00000
           Y            0.00000   1.00000  -0.00000
           Z            1.00000  -0.00000  -0.00000
 This molecule is an asymmetric top.
 Rotational symmetry number  2.
 Rotational temperatures (Kelvin)      1.87821     0.37152     0.31017
 Rotational constants (GHZ):          39.13569     7.74126     6.46287
 Zero-point vibrational energy      90989.5 (Joules/Mol)
                                   21.74700 (Kcal/Mol)
 Warning -- explicit consideration of   4 degrees of freedom as
           vibrations may cause significant error
 Vibrational temperatures:    432.45   582.69   696.77   839.92  1105.85
          (Kelvin)           1245.32  1462.08  1952.24  2079.43  2314.75
                             4510.63  4664.86

 Zero-point correction=                           0.034656 (Hartree/Particle)
 Thermal correction to Energy=                    0.038820
 Thermal correction to Enthalpy=                  0.039764
 Thermal correction to Gibbs Free Energy=         0.008813
 Sum of electronic and zero-point Energies=           -153.360267
 Sum of electronic and thermal Energies=              -153.356103
 Sum of electronic and thermal Enthalpies=            -153.355159
 Sum of electronic and thermal Free Energies=         -153.386110

                     E (Thermal)             CV                S
                      KCal/Mol        Cal/Mol-Kelvin    Cal/Mol-Kelvin
 Total                   24.360             13.322             65.142
 Electronic               0.000              0.000              2.183
 Translational            0.889              2.981             37.653
 Rotational               0.889              2.981             21.245
 Vibrational             22.582              7.360              4.061
 Vibration     1          0.693              1.673              1.414
 Vibration     2          0.770              1.459              0.944
 Vibration     3          0.840              1.285              0.699
 Vibration     4          0.941              1.066              0.478

 Optimization completed.
    -- Stationary point found.
 Normal termination of Gaussian 09 at Sun Mar  4 21:07:51 2018.
