 Gaussian 09, Revision D.01,
 Gaussian 09:  ES64L-G09RevD.01 24-Apr-2013

 ---------------------------
 #p b3lyp/6-311++g(d,p) freq
 ---------------------------

 ---
 min
 ---
 Symbolic Z-matrix:
 Charge =  0 Multiplicity = 3

                         Standard orientation:
 ---------------------------------------------------------------------
 Center     Atomic      Atomic             Coordinates (Angstroms)
 Number     Number       Type             X           Y           Z
 ---------------------------------------------------------------------
      1          6           0        1.779322   -0.507549   -0.039906
      2          6           0        0.633629    0.407616   -0.009627
      3          6           0       -0.725990   -0.075322   -0.043467
      4          6           0       -1.977920   -0.156242    0.019868
      5          1           0        0.949246    0.670179    1.044794
      6          1           0        0.796501    1.318802   -0.606005
 ---------------------------------------------------------------------

 SCF Done:  E(UB3LYP) =  -153.283323637     A.U. after   30 cycles

 The electronic state is 3-A.
 Alpha  occ. eigenvalues --  -10.28515 -10.26305 -10.23307 -10.23123  -0.87414
 Alpha  occ. eigenvalues --   -0.78244  -0.62702  -0.54168  -0.50437  -0.37498
 Alpha  occ. eigenvalues --   -0.34244  -0.31298  -0.31267  -0.25763
 Alpha virt. eigenvalues --   -0.13156  -0.03975  -0.01233   0.00582   0.02467
 Alpha virt. eigenvalues --    0.03771   0.04188   0.06257   0.07111   0.07350
 Alpha virt. eigenvalues --    0.08201   0.09450   0.10589   0.11471   0.12445

  Beta  occ. eigenvalues --  -10.26900 -10.26372 -10.22513 -10.22242  -0.85817
  Beta  occ. eigenvalues --   -0.75091  -0.59720  -0.52331  -0.49844  -0.32743
  Beta  occ. eigenvalues --   -0.30156  -0.30073
  Beta virt. eigenvalues --   -0.20739  -0.11342  -0.09517  -0.02643  -0.00495
  Beta virt. eigenvalues --    0.02517   0.02965   0.04348   0.04593   0.06506
  Beta virt. eigenvalues --    0.07380   0.07847   0.08345   0.09811   0.11002

 Mulliken charges and spin densities:
               1          2
     1  C   -0.091270   1.029966
     2  C   -0.467766  -0.093842
     3  C    0.387606   0.443994
     4  C   -0.214913   0.561010
     5  H    0.187478   0.002521
     6  H    0.198864   0.056351
 Sum of Mulliken charges =  -0.00000   2.00000

 Dipole moment (field-independent basis, Debye):
    X=              1.5062    Y=              1.6049    Z=              0.0733  Tot=              2.2023
 Quadrupole moment (field-independent basis, Debye-Ang):
   XX=            -34.2138   YY=            -23.8927   ZZ=            -22.9983
   XY=              3.6746   XZ=              0.8686   YZ=              0.6612

  Exact polarizability: 117.794   1.142  36.662   0.950  -1.582  34.822
 Approx polarizability: 167.949  -7.973  48.564  -1.951   1.238  47.059

                      1                      2                      3
                      A                      A                      A
 Frequencies --    182.4919               226.3289               397.8756
 Red. masses --      6.5175                 5.4386                 1.8003
 Frc consts  --      0.1279                 0.1641                 0.1679
 IR Inten    --      6.2934                29.3622                 1.7848

                      4                      5                      6
                      A                      A                      A
 Frequencies --    509.4470               890.1290               971.8567
 Red. masses --      6.0661                 5.8713                 1.4974
 Frc consts  --      0.9276                 2.7409                 0.8333
 IR Inten    --     51.8194                41.4416                 7.9885

                      7                      8                      9
                      A                      A                      A
 Frequencies --   1092.3903              1177.0558              1308.6104
 Red. masses --      1.7134                 1.7355                 1.1663
 Frc consts  --      1.2046                 1.4167                 1.1767
 IR Inten    --     22.0201               270.2728                19.8315

                     10                     11                     12
                      A                      A                      A
 Frequencies --   1607.7256              2755.9740              2977.7192
 Red. masses --      8.8799                 1.0686                 1.0809
 Frc consts  --     13.5233                 4.7821                 5.6467
 IR Inten    --   1337.4344                56.9023                 0.5306

 - Thermochemistry -
 -------------------
 Temperature   298.150 Kelvin.  Pressure   1.00000 Atm.
 Atom     1 has atomic number  6 and mass  12.00000

 Molecular mass:    50.01565 amu.
 Principal axes and moments of inertia in atomic units:
                           1         2         3
     Eigenvalues --    32.32283 353.94560 375.48076
           X            0.99980   0.01941   0.00520
           Y           -0.01935   0.99974  -0.01187
           Z           -0.00543   0.01177   0.99992
 This molecule is an asymmetric top.
 Rotational symmetry number  1.
 Rotational temperatures (Kelvin)      2.67965     0.24471     0.23067
 Rotational constants (GHZ):          55.83488     5.09892     4.80648
 Zero-point vibrational energy      84322.4 (Joules/Mol)
                                   20.15354 (Kcal/Mol)
 Warning -- explicit consideration of   4 degrees of freedom as
           vibrations may cause significant error
 Vibrational temperatures:    262.56   325.64   572.45   732.98  1280.70
          (Kelvin)           1398.28  1571.70  1693.52  1882.80  2313.16
                             3965.23  4284.27

 Zero-point correction=                           0.032117 (Hartree/Particle)
 Thermal correction to Energy=                    0.036742
 Thermal correction to Enthalpy=                  0.037687
 Thermal correction to Gibbs Free Energy=         0.004891
 Sum of electronic and zero-point Energies=           -153.251207
 Sum of electronic and thermal Energies=              -153.246581
 Sum of electronic and thermal Enthalpies=            -153.245637
 Sum of electronic and thermal Free Energies=         -153.278433

                     E (Thermal)             CV                S
                      KCal/Mol        Cal/Mol-Kelvin    Cal/Mol-Kelvin
 Total                   23.056             13.955             69.024
 Electronic               0.000              0.000              2.183
 Translational            0.889              2.981             37.653
 Rotational               0.889              2.981             22.978
 Vibrational             21.279              7.994              6.210
 Vibration     1          0.630              1.864              2.303
 Vibration     2          0.650              1.801              1.908
 Vibration     3          0.764              1.475              0.970
 Vibration     4          0.865              1.229              0.635

 Normal termination of Gaussian 09 at Sun Mar  4 21:08:59 2018.
