 Gaussian 09, Revision D.01,
 Gaussian 09:  ES64L-G09RevD.01 24-Apr-2013

 ---------------------------
 #p b3lyp/6-311++g(d,p) freq
 ---------------------------

 ---
 min
 ---
 Symbolic Z-matrix:
 Charge =  1 Multiplicity = 2

                         Standard orientation:
 ---------------------------------------------------------------------
 Center     Atomic      Atomic             Coordinates (Angstroms)
 Number     Number       Type             X           Y           Z
 ---------------------------------------------------------------------
      1          6           0        0.000000    0.000000    0.824742
      2          6           0       -0.000000   -0.000000   -1.768258
      3          6           0        0.000000    0.000000    2.156677
      4          6           0       -0.000000   -0.000000   -0.438943
      5          1           0       -0.000000    0.941070   -2.322658
      6          1           0        0.000000   -0.941070   -2.322658
 ---------------------------------------------------------------------

 SCF Done:  E(UB3LYP) =  -153.105391732     A.U. after   15 cycles

 The electronic state is 2-B1.
 Alpha  occ. eigenvalues --  -10.53834 -10.53618 -10.51120 -10.48304  -1.11670
 Alpha  occ. eigenvalues --   -1.04909  -0.94816  -0.78420  -0.74119  -0.65691
 Alpha  occ. eigenvalues --   -0.60358  -0.56453  -0.54810
 Alpha virt. eigenvalues --   -0.39436  -0.35002  -0.18085  -0.17677  -0.14845
 Alpha virt. eigenvalues --   -0.13386  -0.12123  -0.10438  -0.08216  -0.06712
 Alpha virt. eigenvalues --   -0.06563  -0.05467  -0.03831  -0.03169  -0.01765

  Beta  occ. eigenvalues --  -10.53810 -10.53243 -10.50391 -10.47919  -1.10745
  Beta  occ. eigenvalues --   -1.02516  -0.93621  -0.77771  -0.73745  -0.62824
  Beta  occ. eigenvalues --   -0.59937  -0.55269
  Beta virt. eigenvalues --   -0.44500  -0.39097  -0.30486  -0.17632  -0.17472
  Beta virt. eigenvalues --   -0.13094  -0.12437  -0.12044  -0.09771  -0.08059
  Beta virt. eigenvalues --   -0.06663  -0.06308  -0.04588  -0.03525  -0.02690

 Mulliken charges and spin densities:
               1          2
     1  C    0.246468   0.292170
     2  C   -0.357275   0.527477
     3  C    0.072863   0.369545
     4  C    0.526374  -0.138391
     5  H    0.255785  -0.025401
     6  H    0.255785  -0.025401
 Sum of Mulliken charges =   1.00000   1.00000

 Dipole moment (field-independent basis, Debye):
    X=             -0.0000    Y=              0.0000    Z=             -3.8045  Tot=              3.8045
 Quadrupole moment (field-independent basis, Debye-Ang):
   XX=            -21.0315   YY=            -18.5883   ZZ=             -7.4049
   XY=             -0.0000   XZ=             -0.0000   YZ=             -0.0000

  Exact polarizability:  21.733   0.000  23.088  -0.000  -0.000  85.180
 Approx polarizability:  27.882  -0.000  31.943   0.000  -0.000 185.207

                      1                      2                      3
                     B1                     B2                     B1
 Frequencies --     82.5764               144.1128               374.2847
 Red. masses --      8.1349                 6.0493                 6.1136
 Frc consts  --      0.0327                 0.0740                 0.5046
 IR Inten    --      3.4515                 0.0017                14.1593

                      4                      5                      6
                     B2                     A1                     B1
 Frequencies --    400.3416               898.3589               935.3439
 Red. masses --      2.8580                 5.4825                 1.3472
 Frc consts  --      0.2699                 2.6069                 0.6944
 IR Inten    --      1.6710                 7.1072                42.7171

                      7                      8                      9
                     B2                     A1                     A1
 Frequencies --    954.4302              1362.3843              1512.7524
 Red. masses --      1.6726                 1.1808                 7.4087
 Frc consts  --      0.8977                 1.2913                 9.9891
 IR Inten    --      5.6209               107.2343                94.3225

                     10                     11                     12
                     A1                     A1                     B2
 Frequencies --   2077.0600              3072.4522              3168.1948
 Red. masses --     11.9440                 1.0528                 1.1168
 Frc consts  --     30.3596                 5.8553                 6.6048
 IR Inten    --    403.0912               167.2032                87.6671

 - Thermochemistry -
 -------------------
 Temperature   298.150 Kelvin.  Pressure   1.00000 Atm.
 Atom     1 has atomic number  6 and mass  12.00000

 Molecular mass:    50.01565 amu.
 Principal axes and moments of inertia in atomic units:
                           1         2         3
     Eigenvalues --     6.37465 408.02816 414.40281
           X            0.00000   0.00000   1.00000
           Y            0.00000   1.00000  -0.00000
           Z            1.00000  -0.00000  -0.00000
 This molecule is an asymmetric top.
 Rotational symmetry number  2.
 Rotational temperatures (Kelvin)     13.58722     0.21227     0.20901
 Rotational constants (GHZ):         283.11216     4.42308     4.35504
 Zero-point vibrational energy      89614.0 (Joules/Mol)
                                   21.41826 (Kcal/Mol)
 Warning -- explicit consideration of   4 degrees of freedom as
           vibrations may cause significant error
 Vibrational temperatures:    118.81   207.35   538.51   576.00  1292.54
          (Kelvin)           1345.75  1373.21  1960.16  2176.51  2988.42
                             4420.57  4558.32

 Zero-point correction=                           0.034132 (Hartree/Particle)
 Thermal correction to Energy=                    0.039190
 Thermal correction to Enthalpy=                  0.040135
 Thermal correction to Gibbs Free Energy=         0.007699
 Sum of electronic and zero-point Energies=           -153.071260
 Sum of electronic and thermal Energies=              -153.066201
 Sum of electronic and thermal Enthalpies=            -153.065257
 Sum of electronic and thermal Free Energies=         -153.097692

                     E (Thermal)             CV                S
                      KCal/Mol        Cal/Mol-Kelvin    Cal/Mol-Kelvin
 Total                   24.592             14.413             68.266
 Electronic               0.000              0.000              1.377
 Translational            0.889              2.981             37.653
 Rotational               0.889              2.981             20.227
 Vibrational             22.815              8.451              9.008
 Vibration     1          0.600              1.961              3.829
 Vibration     2          0.616              1.909              2.749
 Vibration     3          0.745              1.525              1.062
 Vibration     4          0.766              1.469              0.961

 Optimization completed.
    -- Stationary point found.
 Normal termination of Gaussian 09 at Thu Jan 24 15:41:09 2019.
