 Gaussian 09, Revision D.01,
 Gaussian 09:  ES64L-G09RevD.01 24-Apr-2013

 ---------------------------
 #p b3lyp/6-311++g(d,p) freq
 ---------------------------

 ---
 min
 ---
 Symbolic Z-matrix:
 Charge =  1 Multiplicity = 2

                         Standard orientation:
 ---------------------------------------------------------------------
 Center     Atomic      Atomic             Coordinates (Angstroms)
 Number     Number       Type             X           Y           Z
 ---------------------------------------------------------------------
      1          6           0       -0.591581    0.678559    0.091184
      2          6           0        0.805788    0.431321   -0.094356
      3          6           0        0.446757   -0.842609    0.354418
      4          6           0       -0.732454   -0.647835   -0.350330
      5          1           0       -1.229514    1.403088    0.588885
      6          1           0        1.658449    0.880296   -0.594384
 ---------------------------------------------------------------------

 SCF Done:  E(UB3LYP) =  -153.071755572     A.U. after   17 cycles

 The electronic state is 2-A.
 Alpha  occ. eigenvalues --  -10.54476 -10.54365 -10.54005 -10.53555  -1.27440
 Alpha  occ. eigenvalues --   -0.93735  -0.93237  -0.79156  -0.77828  -0.69840
 Alpha  occ. eigenvalues --   -0.66764  -0.58442  -0.54911
 Alpha virt. eigenvalues --   -0.33823  -0.33101  -0.29367  -0.15463  -0.15390
 Alpha virt. eigenvalues --   -0.12214  -0.11906  -0.10371  -0.08646  -0.07334
 Alpha virt. eigenvalues --   -0.06344  -0.06258  -0.05267  -0.03665  -0.03300

  Beta  occ. eigenvalues --  -10.54281 -10.54215 -10.52913 -10.52603  -1.26874
  Beta  occ. eigenvalues --   -0.93046  -0.92141  -0.77901  -0.76616  -0.68949
  Beta  occ. eigenvalues --   -0.65885  -0.53500
  Beta virt. eigenvalues --   -0.42605  -0.32598  -0.31422  -0.27325  -0.15323
  Beta virt. eigenvalues --   -0.15219  -0.11974  -0.11366  -0.10064  -0.08563
  Beta virt. eigenvalues --   -0.07218  -0.06118  -0.06067  -0.04922  -0.03365

 Mulliken charges and spin densities:
               1          2
     1  C   -0.009220   0.081821
     2  C   -0.024102   0.048770
     3  C    0.240716   0.476565
     4  C    0.204855   0.404491
     5  H    0.293467  -0.005563
     6  H    0.294283  -0.006082
 Sum of Mulliken charges =   1.00000   1.00000

 Dipole moment (field-independent basis, Debye):
    X=              0.5036    Y=              2.1502    Z=              0.0784  Tot=              2.2097
 Quadrupole moment (field-independent basis, Debye-Ang):
   XX=            -15.0336   YY=            -16.6510   ZZ=            -19.9807
   XY=             -0.3937   XZ=             -2.6934   YZ=              0.3428

  Exact polarizability:  41.067  -0.086  36.644   5.937  -0.793  28.557
 Approx polarizability:  78.606   0.644  69.910  14.430  -2.016  44.127

                      1                      2                      3
                      A                      A                      A
 Frequencies --     56.4627               556.9770               779.0851
 Red. masses --      8.5478                 3.5183                 3.1284
 Frc consts  --      0.0161                 0.6431                 1.1188
 IR Inten    --    199.8888                 1.5201                19.3793

                      4                      5                      6
                      A                      A                      A
 Frequencies --    829.0080               941.9726              1057.6342
 Red. masses --      1.2136                 2.3620                 1.1501
 Frc consts  --      0.4914                 1.2348                 0.7580
 IR Inten    --     10.9041                 7.7313                 7.6169

                      7                      8                      9
                      A                      A                      A
 Frequencies --   1075.3543              1294.7090              1321.2717
 Red. masses --      1.2721                 5.6979                 5.1743
 Frc consts  --      0.8667                 5.6274                 5.3221
 IR Inten    --     12.0297                34.4545                45.1042

                     10                     11                     12
                      A                      A                      A
 Frequencies --   1430.9317              3195.6101              3214.5766
 Red. masses --      7.9354                 1.0957                 1.1164
 Frc consts  --      9.5732                 6.5924                 6.7971
 IR Inten    --      0.1381                92.6735                44.3480

 - Thermochemistry -
 -------------------
 Temperature   298.150 Kelvin.  Pressure   1.00000 Atm.
 Atom     1 has atomic number  6 and mass  12.00000

 Molecular mass:    50.01565 amu.
 Principal axes and moments of inertia in atomic units:
                           1         2         3
     Eigenvalues --    98.90809 103.70403 175.81116
           X            0.98330  -0.16379  -0.07933
           Y            0.16553   0.98608   0.01576
           Z            0.07564  -0.02863   0.99672
 This molecule is an asymmetric top.
 Rotational symmetry number  1.
 Rotational temperatures (Kelvin)      0.87570     0.83520     0.49265
 Rotational constants (GHZ):          18.24665    17.40281    10.26523
 Zero-point vibrational energy      94227.4 (Joules/Mol)
                                   22.52089 (Kcal/Mol)
 Warning -- explicit consideration of   2 degrees of freedom as
           vibrations may cause significant error
 Vibrational temperatures:     81.24   801.36  1120.93  1192.76  1355.29
          (Kelvin)           1521.70  1547.19  1862.80  1901.01  2058.79
                             4597.76  4625.05

 Zero-point correction=                           0.035889 (Hartree/Particle)
 Thermal correction to Energy=                    0.040015
 Thermal correction to Enthalpy=                  0.040959
 Thermal correction to Gibbs Free Energy=         0.009128
 Sum of electronic and zero-point Energies=           -153.035866
 Sum of electronic and thermal Energies=              -153.031741
 Sum of electronic and thermal Enthalpies=            -153.030797
 Sum of electronic and thermal Free Energies=         -153.062627

                     E (Thermal)             CV                S
                      KCal/Mol        Cal/Mol-Kelvin    Cal/Mol-Kelvin
 Total                   25.110             11.800             66.993
 Electronic               0.000              0.000              1.377
 Translational            0.889              2.981             37.653
 Rotational               0.889              2.981             22.116
 Vibrational             23.332              5.839              5.847
 Vibration     1          0.596              1.975              4.577
 Vibration     2          0.912              1.124              0.530

 Normal termination of Gaussian 09 at Thu Jan 24 15:42:09 2019.
