 Gaussian 09, Revision D.01,
 Gaussian 09:  ES64L-G09RevD.01 24-Apr-2013

 ---------------------------
 #p b3lyp/6-311++g(d,p) freq
 ---------------------------

 ---
 min
 ---
 Symbolic Z-matrix:
 Charge =  1 Multiplicity = 4

                         Standard orientation:
 ---------------------------------------------------------------------
 Center     Atomic      Atomic             Coordinates (Angstroms)
 Number     Number       Type             X           Y           Z
 ---------------------------------------------------------------------
      1          6           0       -1.494143    0.000000    0.000013
      2          6           0       -0.104465    0.000000    0.000001
      3          6           0        1.138678   -0.677970   -0.000027
      4          6           0        1.138678    0.677971    0.000006
      5          1           0       -2.036248    0.940744    0.000041
      6          1           0       -2.036248   -0.940745   -0.000005
 ---------------------------------------------------------------------

 SCF Done:  E(UB3LYP) =  -153.040832641     A.U. after   13 cycles

 The electronic state is 4-A.
 Alpha  occ. eigenvalues --  -10.56039 -10.55964 -10.53587 -10.48245  -1.24111
 Alpha  occ. eigenvalues --   -1.03213  -0.81434  -0.80324  -0.72037  -0.69715
 Alpha  occ. eigenvalues --   -0.69231  -0.62349  -0.54664  -0.52986
 Alpha virt. eigenvalues --   -0.31036  -0.25683  -0.16153  -0.13954  -0.11674
 Alpha virt. eigenvalues --   -0.10939  -0.10447  -0.10396  -0.08049  -0.07124
 Alpha virt. eigenvalues --   -0.05869  -0.04609  -0.03463  -0.03272  -0.01974

  Beta  occ. eigenvalues --  -10.53992 -10.53929 -10.53161 -10.47172  -1.21239
  Beta  occ. eigenvalues --   -0.99566  -0.77458  -0.75280  -0.67779  -0.66411
  Beta  occ. eigenvalues --   -0.65745
  Beta virt. eigenvalues --   -0.44551  -0.40423  -0.39206  -0.25729  -0.21181
  Beta virt. eigenvalues --   -0.15348  -0.12232  -0.10862  -0.09711  -0.09696
  Beta virt. eigenvalues --   -0.09674  -0.07571  -0.05168  -0.04811  -0.03658

 Mulliken charges and spin densities:
               1          2
     1  C   -0.185431   0.750096
     2  C    0.311123   0.225848
     3  C    0.191340   1.031011
     4  C    0.191340   1.031011
     5  H    0.245814  -0.018982
     6  H    0.245814  -0.018982
 Sum of Mulliken charges =   1.00000   3.00000

 Dipole moment (field-independent basis, Debye):
    X=             -1.1525    Y=             -0.0000    Z=              0.0000  Tot=              1.1525
 Quadrupole moment (field-independent basis, Debye-Ang):
   XX=            -10.4516   YY=            -17.3235   ZZ=            -20.7036
   XY=             -0.0000   XZ=             -0.0001   YZ=              0.0001

  Exact polarizability:  52.420   0.000  31.834  -0.000   0.000  20.353
 Approx polarizability:  80.614   0.000  58.299  -0.000   0.001  29.000

                      1                      2                      3
                      A                      A                      A
 Frequencies --    359.5413               423.6113               473.2658
 Red. masses --      3.3368                 5.5591                 1.1551
 Frc consts  --      0.2541                 0.5877                 0.1524
 IR Inten    --      3.5695                 4.1708                 0.0000

                      4                      5                      6
                      A                      A                      A
 Frequencies --    865.5294               873.8177               937.5411
 Red. masses --      5.6047                 1.3610                 2.2688
 Frc consts  --      2.4738                 0.6123                 1.1749
 IR Inten    --      7.9557                33.8735                17.3959

                      7                      8                      9
                      A                      A                      A
 Frequencies --   1093.5043              1412.8850              1449.9166
 Red. masses --      2.7910                 2.0815                 2.0030
 Frc consts  --      1.9663                 2.4481                 2.4810
 IR Inten    --     47.2682                 1.0568                34.3666

                     10                     11                     12
                      A                      A                      A
 Frequencies --   1634.0962              3127.3179              3244.4388
 Red. masses --     11.4375                 1.0501                 1.1222
 Frc consts  --     17.9943                 6.0508                 6.9598
 IR Inten    --     19.6856                56.1422                28.4341

 - Thermochemistry -
 -------------------
 Temperature   298.150 Kelvin.  Pressure   1.00000 Atm.
 Atom     1 has atomic number  6 and mass  12.00000

 Molecular mass:    50.01565 amu.
 Principal axes and moments of inertia in atomic units:
                           1         2         3
     Eigenvalues --    45.76429 235.93916 281.70345
           X            1.00000   0.00000   0.00001
           Y            0.00000   1.00000  -0.00002
           Z           -0.00001   0.00002   1.00000
 This molecule is an asymmetric top.
 Rotational symmetry number  1.
 Rotational temperatures (Kelvin)      1.89261     0.36710     0.30746
 Rotational constants (GHZ):          39.43558     7.64918     6.40653
 Zero-point vibrational energy      95076.0 (Joules/Mol)
                                   22.72371 (Kcal/Mol)
 Warning -- explicit consideration of   3 degrees of freedom as
           vibrations may cause significant error
 Vibrational temperatures:    517.30   609.48   680.92  1245.30  1257.23
          (Kelvin)           1348.91  1573.31  2032.82  2086.10  2351.10
                             4499.51  4668.02

 Zero-point correction=                           0.036213 (Hartree/Particle)
 Thermal correction to Energy=                    0.040137
 Thermal correction to Enthalpy=                  0.041081
 Thermal correction to Gibbs Free Energy=         0.009574
 Sum of electronic and zero-point Energies=           -153.004620
 Sum of electronic and thermal Energies=              -153.000696
 Sum of electronic and thermal Enthalpies=            -152.999751
 Sum of electronic and thermal Free Energies=         -153.031259

                     E (Thermal)             CV                S
                      KCal/Mol        Cal/Mol-Kelvin    Cal/Mol-Kelvin
 Total                   25.186             12.305             66.313
 Electronic               0.000              0.000              2.755
 Translational            0.889              2.981             37.653
 Rotational               0.889              2.981             22.635
 Vibrational             23.409              6.343              3.270
 Vibration     1          0.734              1.556              1.124
 Vibration     2          0.786              1.419              0.880
 Vibration     3          0.830              1.309              0.728

 Optimization completed.
    -- Stationary point found.
 Normal termination of Gaussian 09 at Thu Jan 24 15:43:32 2019.
