 Gaussian 09, Revision D.01,
 Gaussian 09:  ES64L-G09RevD.01 24-Apr-2013

 ---------------------------
 #p b3lyp/6-311++g(d,p) freq
 ---------------------------

 ---
 min
 ---
 Symbolic Z-matrix:
 Charge =  1 Multiplicity = 2

                         Standard orientation:
 ---------------------------------------------------------------------
 Center     Atomic      Atomic             Coordinates (Angstroms)
 Number     Number       Type             X           Y           Z
 ---------------------------------------------------------------------
      1          6           0       -0.364711   -0.942352    0.057074
      2          6           0        0.956298    0.641945    0.007248
      3          8           0        0.978648   -0.684038   -0.043675
      4          6           0       -0.424297    0.975882   -0.019532
      5          6           0       -1.373900    0.044222   -0.002314
      6          1           0        1.856646    1.227594    0.136588
      7          1           0       -2.446175   -0.073468   -0.042045
 ---------------------------------------------------------------------

 SCF Done:  E(UB3LYP) =  -228.339542310     A.U. after   21 cycles

 The electronic state is 2-A.
 Alpha  occ. eigenvalues --  -19.49977 -10.57574 -10.56090 -10.51980 -10.50409
 Alpha  occ. eigenvalues --   -1.44266  -1.14644  -1.02700  -0.89570  -0.82544
 Alpha  occ. eigenvalues --   -0.80389  -0.76665  -0.74551  -0.68795  -0.59837
 Alpha  occ. eigenvalues --   -0.53228  -0.52940
 Alpha virt. eigenvalues --   -0.38699  -0.30406  -0.22762  -0.17039  -0.13557
 Alpha virt. eigenvalues --   -0.12714  -0.12081  -0.11207  -0.10836  -0.07057
 Alpha virt. eigenvalues --   -0.06722  -0.06246  -0.05313  -0.04963  -0.04030

  Beta  occ. eigenvalues --  -19.50053 -10.56984 -10.55237 -10.51667 -10.50409
  Beta  occ. eigenvalues --   -1.43863  -1.14065  -1.00622  -0.89008  -0.81534
  Beta  occ. eigenvalues --   -0.79796  -0.74763  -0.74022  -0.68447  -0.58988
  Beta  occ. eigenvalues --   -0.52299
  Beta virt. eigenvalues --   -0.41842  -0.37650  -0.26575  -0.20196  -0.16723
  Beta virt. eigenvalues --   -0.13275  -0.12419  -0.11714  -0.10830  -0.10485
  Beta virt. eigenvalues --   -0.06944  -0.06392  -0.05897  -0.04929  -0.04693

 Mulliken charges and spin densities:
               1          2
     1  C    0.157679   0.349585
     2  C   -0.135116   0.534571
     3  O    0.114760  -0.044043
     4  C    0.308109   0.196274
     5  C   -0.013828  -0.009069
     6  H    0.287012  -0.027637
     7  H    0.281385   0.000319
 Sum of Mulliken charges =   1.00000   1.00000

 Dipole moment (field-independent basis, Debye):
    X=             -0.6380    Y=              1.6192    Z=              0.0611  Tot=              1.7414
 Quadrupole moment (field-independent basis, Debye-Ang):
   XX=            -14.2693   YY=            -22.8862   ZZ=            -26.1338
   XY=              3.4973   XZ=              0.4908   YZ=              0.4941

  Exact polarizability:  47.043   2.440  49.870   0.504  -1.029  22.432
 Approx polarizability:  76.784   1.636 167.954   0.405  -5.476  32.491

                      1                      2                      3
                      A                      A                      A
 Frequencies --    281.6860               402.2691               541.4047
 Red. masses --      3.5410                 5.0085                10.3180
 Frc consts  --      0.1655                 0.4775                 1.7819
 IR Inten    --     21.2366                13.9125                44.5717

                      4                      5                      6
                      A                      A                      A
 Frequencies --    657.3340               737.9572               763.1253
 Red. masses --      7.8171                 1.3628                 1.5395
 Frc consts  --      1.9901                 0.4373                 0.5282
 IR Inten    --     72.0403                30.8320                14.9227

                      7                      8                      9
                      A                      A                      A
 Frequencies --    872.2845               973.5401              1054.8844
 Red. masses --      6.8375                 5.6779                 1.5239
 Frc consts  --      3.0652                 3.1706                 0.9991
 IR Inten    --     32.2312                 0.7794                14.1417

                     10                     11                     12
                      A                      A                      A
 Frequencies --   1163.3476              1200.4771              1377.3422
 Red. masses --      1.6410                 3.9506                 2.3530
 Frc consts  --      1.3085                 3.3545                 2.6300
 IR Inten    --      7.0477                27.9229                27.2836

                     13                     14                     15
                      A                      A                      A
 Frequencies --   1588.1944              3243.0458              3273.3938
 Red. masses --      7.3742                 1.0998                 1.1134
 Frc consts  --     10.9590                 6.8151                 7.0292
 IR Inten    --     44.5524                63.2040                84.9404

 - Thermochemistry -
 -------------------
 Temperature   298.150 Kelvin.  Pressure   1.00000 Atm.
 Atom     1 has atomic number  6 and mass  12.00000

 Molecular mass:    66.01056 amu.
 Principal axes and moments of inertia in atomic units:
                           1         2         3
     Eigenvalues --   128.24435 223.25539 350.84004
           X            0.99579   0.09151   0.00588
           Y           -0.09154   0.99579   0.00516
           Z           -0.00538  -0.00568   0.99997
 This molecule is an asymmetric top.
 Rotational symmetry number  1.
 Rotational temperatures (Kelvin)      0.67538     0.38796     0.24688
 Rotational constants (GHZ):          14.07268     8.08375     5.14406
 Zero-point vibrational energy     108443.2 (Joules/Mol)
                                   25.91855 (Kcal/Mol)
 Warning -- explicit consideration of   3 degrees of freedom as
           vibrations may cause significant error
 Vibrational temperatures:    405.28   578.77   778.96   945.76  1061.75
          (Kelvin)           1097.97  1255.02  1400.71  1517.74  1673.80
                             1727.22  1981.69  2285.05  4666.01  4709.68

 Zero-point correction=                           0.041304 (Hartree/Particle)
 Thermal correction to Energy=                    0.045580
 Thermal correction to Enthalpy=                  0.046524
 Thermal correction to Gibbs Free Energy=         0.014197
 Sum of electronic and zero-point Energies=           -228.298238
 Sum of electronic and thermal Energies=              -228.293963
 Sum of electronic and thermal Enthalpies=            -228.293019
 Sum of electronic and thermal Free Energies=         -228.325345

                     E (Thermal)             CV                S
                      KCal/Mol        Cal/Mol-Kelvin    Cal/Mol-Kelvin
 Total                   28.602             14.549             68.036
 Electronic               0.000              0.000              1.377
 Translational            0.889              2.981             38.480
 Rotational               0.889              2.981             23.822
 Vibrational             26.824              8.587              4.357
 Vibration     1          0.681              1.708              1.523
 Vibration     2          0.768              1.465              0.954
 Vibration     3          0.896              1.159              0.562

 Optimization completed.
    -- Stationary point found.
 Normal termination of Gaussian 09 at Thu Jan 24 15:49:11 2019.
