 Gaussian 09, Revision D.01,
 Gaussian 09:  ES64L-G09RevD.01 24-Apr-2013

 ---------------------------
 #p b3lyp/6-311++g(d,p) freq
 ---------------------------

 ---
 min
 ---
 Symbolic Z-matrix:
 Charge =  0 Multiplicity = 3

                         Standard orientation:
 ---------------------------------------------------------------------
 Center     Atomic      Atomic             Coordinates (Angstroms)
 Number     Number       Type             X           Y           Z
 ---------------------------------------------------------------------
      1          6           0        1.764913    0.067156    0.001248
      2          6           0        0.440840   -0.174706   -0.000770
      3          6           0       -0.830564   -0.011959   -0.004656
      4          6           0       -2.150681    0.062264    0.003498
      5          1           0        2.159708    1.083930   -0.000078
      6          1           0        2.493247   -0.740464    0.004148
 ---------------------------------------------------------------------

 SCF Done:  E(UB3LYP) =  -153.410392657     A.U. after   18 cycles

 The electronic state is 3-A.
 Alpha  occ. eigenvalues --  -10.26711 -10.24153 -10.22741 -10.22086  -0.85584
 Alpha  occ. eigenvalues --   -0.78679  -0.68276  -0.54570  -0.50813  -0.40091
 Alpha  occ. eigenvalues --   -0.36199  -0.30963  -0.30096  -0.22053
 Alpha virt. eigenvalues --   -0.10082  -0.02008   0.01148   0.02573   0.04452
 Alpha virt. eigenvalues --    0.04633   0.06550   0.06793   0.08553   0.08775
 Alpha virt. eigenvalues --    0.10394   0.11988   0.12044   0.12421   0.13221

  Beta  occ. eigenvalues --  -10.25977 -10.23486 -10.21904 -10.21470  -0.83254
  Beta  occ. eigenvalues --   -0.75647  -0.65568  -0.53169  -0.49213  -0.36569
  Beta  occ. eigenvalues --   -0.32882  -0.28528
  Beta virt. eigenvalues --   -0.19837  -0.10641  -0.05929  -0.01706   0.01445
  Beta virt. eigenvalues --    0.02831   0.05163   0.05813   0.07039   0.07317
  Beta virt. eigenvalues --    0.08809   0.10395   0.10772   0.12834   0.13146

 Mulliken charges and spin densities:
               1          2
     1  C   -0.535355   0.548678
     2  C    0.109620   0.434331
     3  C    0.645326   0.150765
     4  C   -0.538618   0.844947
     5  H    0.162865   0.026290
     6  H    0.156162  -0.005010
 Sum of Mulliken charges =  -0.00000   2.00000

 Dipole moment (field-independent basis, Debye):
    X=              5.1720    Y=              0.1770    Z=             -0.0183  Tot=              5.1750
 Quadrupole moment (field-independent basis, Debye-Ang):
   XX=            -27.8631   YY=            -23.8364   ZZ=            -23.7900
   XY=              0.6327   XZ=              0.0707   YZ=             -0.0033

  Exact polarizability:  99.895  -0.604  31.128   0.515  -0.015  29.773
 Approx polarizability: 183.032  -4.068  39.677   0.176  -0.010  36.117

                      1                      2                      3
                      A                      A                      A
 Frequencies --     64.1225                90.7964               360.4730
 Red. masses --      6.4617                 3.7214                11.4429
 Frc consts  --      0.0157                 0.0181                 0.8761
 IR Inten    --     29.1223                 3.4331                 6.4453

                      4                      5                      6
                      A                      A                      A
 Frequencies --    389.0439               900.8864               922.6391
 Red. masses --      3.0657                 5.5924                 1.3605
 Frc consts  --      0.2734                 2.6742                 0.6824
 IR Inten    --     22.5508                 2.2804                31.8875

                      7                      8                      9
                      A                      A                      A
 Frequencies --   1018.7935              1410.0388              1500.9203
 Red. masses --      1.3445                 2.0360                 1.9900
 Frc consts  --      0.8222                 2.3851                 2.6413
 IR Inten    --      1.1520                75.1961                43.1489

                     10                     11                     12
                      A                      A                      A
 Frequencies --   1860.6393              3070.4897              3158.9212
 Red. masses --     11.7071                 1.0534                 1.1131
 Frc consts  --     23.8795                 5.8512                 6.5444
 IR Inten    --     10.5201                 9.9845                 1.2063

 - Thermochemistry -
 -------------------
 Temperature   298.150 Kelvin.  Pressure   1.00000 Atm.
 Atom     1 has atomic number  6 and mass  12.00000

 Molecular mass:    50.01565 amu.
 Principal axes and moments of inertia in atomic units:
                           1         2         3
     Eigenvalues --     7.85986 407.23283 415.08951
           X            0.99999   0.00467   0.00010
           Y           -0.00467   0.99999  -0.00120
           Z           -0.00010   0.00120   1.00000
 This molecule is an asymmetric top.
 Rotational symmetry number  1.
 Rotational temperatures (Kelvin)     11.01976     0.21269     0.20866
 Rotational constants (GHZ):         229.61490     4.43172     4.34784
 Zero-point vibrational energy      88211.2 (Joules/Mol)
                                   21.08299 (Kcal/Mol)
 Warning -- explicit consideration of   4 degrees of freedom as
           vibrations may cause significant error
 Vibrational temperatures:     92.26   130.64   518.64   559.75  1296.17
          (Kelvin)           1327.47  1465.81  2028.73  2159.49  2677.04
                             4417.74  4544.98

 Zero-point correction=                           0.033598 (Hartree/Particle)
 Thermal correction to Energy=                    0.038809
 Thermal correction to Enthalpy=                  0.039753
 Thermal correction to Gibbs Free Energy=         0.005484
 Sum of electronic and zero-point Energies=           -153.376795
 Sum of electronic and thermal Energies=              -153.371583
 Sum of electronic and thermal Enthalpies=            -153.370639
 Sum of electronic and thermal Free Energies=         -153.404909

                     E (Thermal)             CV                S
                      KCal/Mol        Cal/Mol-Kelvin    Cal/Mol-Kelvin
 Total                   24.353             14.459             72.126
 Electronic               0.000              0.000              2.183
 Translational            0.889              2.981             37.653
 Rotational               0.889              2.981             21.812
 Vibrational             22.576              8.498             10.478
 Vibration     1          0.597              1.971              4.326
 Vibration     2          0.602              1.956              3.643
 Vibration     3          0.735              1.554              1.120
 Vibration     4          0.757              1.494              1.004

 Normal termination of Gaussian 09 at Sun Mar  4 21:08:34 2018.
