 Gaussian 09, Revision D.01,
 Gaussian 09:  ES64L-G09RevD.01 24-Apr-2013

 ---------------------------
 #p b3lyp/6-311++g(d,p) freq
 ---------------------------

 ---
 min
 ---
 Symbolic Z-matrix:
 Charge =  1 Multiplicity = 2

                         Standard orientation:
 ---------------------------------------------------------------------
 Center     Atomic      Atomic             Coordinates (Angstroms)
 Number     Number       Type             X           Y           Z
 ---------------------------------------------------------------------
      1          6           0       -1.105808   -0.177369   -0.000044
      2          6           0        1.076771   -0.324356    0.000083
      3          8           0       -0.091479   -1.060500   -0.000037
      4          6           0        0.728281    1.027767   -0.000026
      5          6           0       -0.558736    1.130262    0.000006
      6          1           0       -2.114118   -0.571426    0.000264
      7          1           0        2.002897   -0.882396   -0.000081
 ---------------------------------------------------------------------

 SCF Done:  E(UB3LYP) =  -228.347212000     A.U. after   17 cycles

 The electronic state is 2-A.
 Alpha  occ. eigenvalues --  -19.47637 -10.56968 -10.56680 -10.49264 -10.48925
 Alpha  occ. eigenvalues --   -1.41192  -1.10740  -1.04287  -0.86826  -0.85550
 Alpha  occ. eigenvalues --   -0.79086  -0.75002  -0.72491  -0.66362  -0.57962
 Alpha  occ. eigenvalues --   -0.54758  -0.54173
 Alpha virt. eigenvalues --   -0.41314  -0.30976  -0.19358  -0.15859  -0.14623
 Alpha virt. eigenvalues --   -0.13061  -0.10865  -0.10713  -0.09461  -0.08246
 Alpha virt. eigenvalues --   -0.06303  -0.05130  -0.04987  -0.03585  -0.02678

  Beta  occ. eigenvalues --  -19.47825 -10.56138 -10.55802 -10.49203 -10.48910
  Beta  occ. eigenvalues --   -1.40892  -1.10209  -1.02082  -0.85517  -0.84799
  Beta  occ. eigenvalues --   -0.78854  -0.72752  -0.71948  -0.66126  -0.57440
  Beta  occ. eigenvalues --   -0.54764
  Beta virt. eigenvalues --   -0.42694  -0.40827  -0.26425  -0.17184  -0.15651
  Beta virt. eigenvalues --   -0.13938  -0.12871  -0.10734  -0.10271  -0.09370
  Beta virt. eigenvalues --   -0.08113  -0.05767  -0.04838  -0.04374  -0.03107

 Mulliken charges and spin densities:
               1          2
     1  C   -0.055684   0.522757
     2  C   -0.063062   0.556274
     3  O    0.080199  -0.084188
     4  C    0.226027   0.000534
     5  C    0.221148   0.059080
     6  H    0.295571  -0.026631
     7  H    0.295801  -0.027827
 Sum of Mulliken charges =   1.00000   1.00000

 Dipole moment (field-independent basis, Debye):
    X=             -0.0291    Y=             -0.0122    Z=              0.0002  Tot=              0.0316
 Quadrupole moment (field-independent basis, Debye-Ang):
   XX=            -13.6039   YY=            -23.7448   ZZ=            -25.9532
   XY=             -0.7323   XZ=             -0.0005   YZ=             -0.0002

  Exact polarizability:  52.422  -1.178  37.729   0.000  -0.000  21.324
 Approx polarizability: 132.475  -6.386  64.597   0.001  -0.001  30.089

                      1                      2                      3
                      A                      A                      A
 Frequencies --    321.2565               466.7982               494.2163
 Red. masses --      3.9046                 2.5525                10.4546
 Frc consts  --      0.2374                 0.3277                 1.5045
 IR Inten    --      0.0116                34.2059               144.6449

                      4                      5                      6
                      A                      A                      A
 Frequencies --    775.8596               817.6930               871.7416
 Red. masses --      1.5493                 1.5721                10.6641
 Frc consts  --      0.5495                 0.6193                 4.7747
 IR Inten    --      0.6370                 9.9005                 8.2449

                      7                      8                      9
                      A                      A                      A
 Frequencies --    895.9703              1054.5922              1170.3056
 Red. masses --      7.9229                 2.4183                 4.2803
 Frc consts  --      3.7473                 1.5847                 3.4540
 IR Inten    --     25.4633                83.3103                16.8056

                     10                     11                     12
                      A                      A                      A
 Frequencies --   1204.4693              1267.0429              1396.2877
 Red. masses --      2.8550                 1.4174                 2.2156
 Frc consts  --      2.4404                 1.3407                 2.5451
 IR Inten    --     15.4929                24.8805                59.2491

                     13                     14                     15
                      A                      A                      A
 Frequencies --   1685.0381              3242.1545              3258.1558
 Red. masses --     11.2323                 1.0962                 1.1035
 Frc consts  --     18.7906                 6.7891                 6.9021
 IR Inten    --     31.2008                56.8546                19.5343

 - Thermochemistry -
 -------------------
 Temperature   298.150 Kelvin.  Pressure   1.00000 Atm.
 Atom     1 has atomic number  6 and mass  12.00000

 Molecular mass:    66.01056 amu.
 Principal axes and moments of inertia in atomic units:
                           1         2         3
     Eigenvalues --   168.48515 174.67819 343.16334
           X            0.33822   0.94107  -0.00002
           Y            0.94107  -0.33822  -0.00000
           Z            0.00001   0.00001   1.00000
 This molecule is an asymmetric top.
 Rotational symmetry number  1.
 Rotational temperatures (Kelvin)      0.51407     0.49585     0.25240
 Rotational constants (GHZ):          10.71157    10.33181     5.25913
 Zero-point vibrational energy     113176.2 (Joules/Mol)
                                   27.04976 (Kcal/Mol)
 Warning -- explicit consideration of   3 degrees of freedom as
           vibrations may cause significant error
 Vibrational temperatures:    462.22   671.62   711.07  1116.29  1176.48
          (Kelvin)           1254.24  1289.10  1517.32  1683.81  1732.96
                             1822.99  2008.94  2424.39  4664.73  4687.75

 Zero-point correction=                           0.043107 (Hartree/Particle)
 Thermal correction to Energy=                    0.047173
 Thermal correction to Enthalpy=                  0.048118
 Thermal correction to Gibbs Free Energy=         0.016120
 Sum of electronic and zero-point Energies=           -228.304105
 Sum of electronic and thermal Energies=              -228.300039
 Sum of electronic and thermal Enthalpies=            -228.299094
 Sum of electronic and thermal Free Energies=         -228.331092

                     E (Thermal)             CV                S
                      KCal/Mol        Cal/Mol-Kelvin    Cal/Mol-Kelvin
 Total                   29.602             13.599             67.345
 Electronic               0.000              0.000              1.377
 Translational            0.889              2.981             38.480
 Rotational               0.889              2.981             23.828
 Vibrational             27.824              7.637              3.660
 Vibration     1          0.707              1.633              1.304
 Vibration     2          0.824              1.324              0.747
 Vibration     3          0.850              1.263              0.673

 Normal termination of Gaussian 09 at Thu Jan 24 15:49:02 2019.
