 Gaussian 09, Revision D.01,
 Gaussian 09:  ES64L-G09RevD.01 24-Apr-2013

 ---------------------------
 #p b3lyp/6-311++g(d,p) freq
 ---------------------------

 ---
 min
 ---
 Symbolic Z-matrix:
 Charge =  0 Multiplicity = 1

                         Standard orientation:
 ---------------------------------------------------------------------
 Center     Atomic      Atomic             Coordinates (Angstroms)
 Number     Number       Type             X           Y           Z
 ---------------------------------------------------------------------
      1          6           0        0.000000    0.000000    1.889733
      2          6           0       -0.000000   -0.000000   -0.682446
      3          6           0       -0.000000    0.000000   -1.889733
      4          6           0        0.000000   -0.000000    0.682446
      5          1           0       -0.000000   -0.000000   -2.952399
      6          1           0        0.000000    0.000000    2.952399
 ---------------------------------------------------------------------

 SCF Done:  E(RB3LYP) =  -153.531036300     A.U. after   11 cycles

 The electronic state is 1-SG.
 Alpha  occ. eigenvalues --  -10.20736 -10.20679 -10.19802 -10.19802  -0.81465
 Alpha  occ. eigenvalues --   -0.75834  -0.64314  -0.54900  -0.52756  -0.36753
 Alpha  occ. eigenvalues --   -0.36753  -0.27509  -0.27509
 Alpha virt. eigenvalues --   -0.04247  -0.04247  -0.00108   0.00639   0.03927
 Alpha virt. eigenvalues --    0.06149   0.06149   0.06283   0.06283   0.07807
 Alpha virt. eigenvalues --    0.11330   0.11878   0.14080   0.14080   0.15293

 Mulliken charges:
               1
     1  C   -2.140629
     2  C    1.996140
     3  C   -2.140629
     4  C    1.996140
     5  H    0.144489
     6  H    0.144489
 Sum of Mulliken charges =  -0.00000

 Dipole moment (field-independent basis, Debye):
    X=             -0.0000    Y=             -0.0000    Z=             -0.0000  Tot=              0.0000
 Quadrupole moment (field-independent basis, Debye-Ang):
   XX=            -24.8786   YY=            -24.8786   ZZ=            -12.1792
   XY=              0.0000   XZ=              0.0000   YZ=             -0.0000

  Exact polarizability:  21.541  -0.000  21.541   0.000  -0.000  88.354
 Approx polarizability:  26.690  -0.000  26.690   0.000   0.000 178.944

                      1                      2                      3
                     PI                     PI                     PI
 Frequencies --    243.8126               243.8127               539.7641
 Red. masses --      3.7692                 3.7692                 7.3686
 Frc consts  --      0.1320                 0.1320                 1.2649
 IR Inten    --      8.0901                 8.0901                 0.0000

                      4                      5                      6
                     PI                     PI                     PI
 Frequencies --    539.7641               671.8660               671.8661
 Red. masses --      7.3686                 1.2495                 1.2495
 Frc consts  --      1.2649                 0.3323                 0.3323
 IR Inten    --      0.0000                 0.0000                 0.0000

                      7                      8                      9
                     PI                     PI                     SG
 Frequencies --    674.1774               674.1774               916.4118
 Red. masses --      1.2926                 1.2926                 6.9787
 Frc consts  --      0.3461                 0.3461                 3.4531
 IR Inten    --    102.9456               102.9457                 0.0000

                     10                     11                     12
                     SG                     SG                     SG
 Frequencies --   2104.4580              2280.5825              3475.0467
 Red. masses --      5.7096                 6.6790                 1.1549
 Frc consts  --     14.8983                20.4670                 8.2170
 IR Inten    --      4.8462                 0.0000                 0.0002

                     13
                     SG
 Frequencies --   3476.7408
 Red. masses --      1.1577
 Frc consts  --      8.2449
 IR Inten    --    195.6303

 - Thermochemistry -
 -------------------
 Temperature   298.150 Kelvin.  Pressure   1.00000 Atm.
 Atom     1 has atomic number  6 and mass  12.00000

 Molecular mass:    50.01565 amu.
 Principal axes and moments of inertia in atomic units:
                           1         2         3
     Eigenvalues --     0.00000 408.72087 408.72087
           X            0.00000   0.38269   0.92388
           Y           -0.00000   0.92388  -0.38269
           Z            1.00000  -0.00000  -0.00000
 This molecule is a prolate symmetric top.
 Rotational symmetry number  1.
 Rotational temperature (Kelvin)      0.21191
 Rotational constant (GHZ):           4.415584
 Zero-point vibrational energy      98766.6 (Joules/Mol)
                                   23.60578 (Kcal/Mol)
 Warning -- explicit consideration of   4 degrees of freedom as
           vibrations may cause significant error
 Vibrational temperatures:    350.79   350.79   776.60   776.60   966.66
          (Kelvin)            966.66   969.99   969.99  1318.51  3027.84
                             3281.25  4999.81  5002.25

 Zero-point correction=                           0.037618 (Hartree/Particle)
 Thermal correction to Energy=                    0.041909
 Thermal correction to Enthalpy=                  0.042853
 Thermal correction to Gibbs Free Energy=         0.014242
 Sum of electronic and zero-point Energies=           -153.493418
 Sum of electronic and thermal Energies=              -153.489127
 Sum of electronic and thermal Enthalpies=            -153.488183
 Sum of electronic and thermal Free Energies=         -153.516795

                     E (Thermal)             CV                S
                      KCal/Mol        Cal/Mol-Kelvin    Cal/Mol-Kelvin
 Total                   26.298             14.855             60.218
 Electronic               0.000              0.000              0.000
 Translational            0.889              2.981             37.653
 Rotational               0.592              1.987             16.393
 Vibrational             24.817              9.887              6.172
 Vibration     1          0.659              1.773              1.775
 Vibration     2          0.659              1.773              1.775
 Vibration     3          0.895              1.162              0.566
 Vibration     4          0.895              1.162              0.566

 Optimization completed.
    -- Stationary point found.

 1\1\ CITASK-GV1136\Freq\RB3LYP\6-311++G(d,p)\C4H2\EERD\04-Mar-2018\0\\
 #p b3lyp/6-311++g(d,p) freq\\min\\0,1\C,0.8888488738,-1.7912495436,0.1
 430141702\C,-0.0396999324,0.4238985333,-0.7773231043\C,-0.4755269178,1
 .4636083494,-1.2092958958\C,0.4530218883,-0.7515397273,-0.2889586214\H
 ,-0.8591461684,2.3787712782,-1.5895226465\H,1.272468124,-2.7064124715,
 0.5232409205\\Version=ES64L-G09RevD.01\State=1-SG\HF=-153.5310363\RMSD
 =6.268e-09\RMSF=1.998e-05\ZeroPoint=0.0376182\Thermal=0.041909\Dipole=
 0.,0.,0.\DipoleDeriv=-0.2675275,0.085469,-0.0355125,0.0854735,-0.43560

 Normal termination of Gaussian 09 at Sun Mar  4 21:07:20 2018.
