 Gaussian 09, Revision D.01,
 Gaussian 09:  ES64L-G09RevD.01 24-Apr-2013

 ---------------------------
 #p b3lyp/6-311++g(d,p) freq
 ---------------------------

 ---
 min
 ---
 Symbolic Z-matrix:
 Charge =  1 Multiplicity = 4

                         Standard orientation:
 ---------------------------------------------------------------------
 Center     Atomic      Atomic             Coordinates (Angstroms)
 Number     Number       Type             X           Y           Z
 ---------------------------------------------------------------------
      1          6           0       -1.575342   -0.405916    0.000015
      2          6           0       -0.596148    0.553520    0.000010
      3          6           0        0.722605    0.154125   -0.000007
      4          6           0        1.863551   -0.322698   -0.000022
      5          1           0       -1.643153   -1.489907    0.000009
      6          1           0       -0.844849    1.615720    0.000019
 ---------------------------------------------------------------------

 SCF Done:  E(UB3LYP) =  -153.018420044     A.U. after   18 cycles

 The electronic state is 4-A.
 Alpha  occ. eigenvalues --  -10.54118 -10.51732 -10.49870 -10.48858  -1.11107
 Alpha  occ. eigenvalues --   -1.04044  -0.89640  -0.79025  -0.72659  -0.66787
 Alpha  occ. eigenvalues --   -0.64210  -0.57695  -0.55454  -0.52697
 Alpha virt. eigenvalues --   -0.33763  -0.24067  -0.17584  -0.15889  -0.14544
 Alpha virt. eigenvalues --   -0.10806  -0.10162  -0.08280  -0.07505  -0.07081
 Alpha virt. eigenvalues --   -0.05364  -0.04438  -0.03664  -0.03240  -0.01700

  Beta  occ. eigenvalues --  -10.51097 -10.49708 -10.49490 -10.48573  -1.08861
  Beta  occ. eigenvalues --   -0.99204  -0.85966  -0.77242  -0.71213  -0.60137
  Beta  occ. eigenvalues --   -0.55036
  Beta virt. eigenvalues --   -0.43540  -0.43358  -0.34366  -0.27284  -0.20659
  Beta virt. eigenvalues --   -0.15591  -0.13796  -0.13432  -0.09956  -0.09580
  Beta virt. eigenvalues --   -0.07744  -0.07136  -0.05674  -0.04501  -0.03675

 Mulliken charges and spin densities:
               1          2
     1  C    0.089529   1.337738
     2  C   -0.127848   0.188916
     3  C    0.490917   0.208472
     4  C    0.013755   1.248685
     5  H    0.255928  -0.007931
     6  H    0.277719   0.024119
 Sum of Mulliken charges =   1.00000   3.00000

 Dipole moment (field-independent basis, Debye):
    X=             -0.3409    Y=             -0.4949    Z=              0.0000  Tot=              0.6010
 Quadrupole moment (field-independent basis, Debye-Ang):
   XX=             -8.5576   YY=            -15.9236   ZZ=            -20.8482
   XY=              0.4025   XZ=             -0.0001   YZ=              0.0000

  Exact polarizability:  65.998  -2.714  36.067  -0.001   0.000  18.985
 Approx polarizability: 120.392  -9.105  46.938  -0.001   0.000  25.655

                      1                      2                      3
                      A                      A                      A
 Frequencies --    166.6073               367.9782               436.2401
 Red. masses --      5.5317                 4.1003                 3.4912
 Frc consts  --      0.0905                 0.3271                 0.3915
 IR Inten    --      0.4316                 1.5690                16.1298

                      4                      5                      6
                      A                      A                      A
 Frequencies --    780.8765               829.3063               847.7363
 Red. masses --      1.8779                 1.5161                 1.1822
 Frc consts  --      0.6747                 0.6143                 0.5006
 IR Inten    --      5.4021                23.5612                40.2496

                      7                      8                      9
                      A                      A                      A
 Frequencies --   1066.2392              1253.1504              1426.6147
 Red. masses --      4.2136                 1.3451                 4.7186
 Frc consts  --      2.8224                 1.2445                 5.6581
 IR Inten    --      1.5684                 3.2043                88.9028

                     10                     11                     12
                      A                      A                      A
 Frequencies --   2059.0046              3120.6693              3209.2662
 Red. masses --     11.8559                 1.0880                 1.0996
 Frc consts  --     29.6142                 6.2426                 6.6725
 IR Inten    --     31.5380                58.2945                51.3946

 - Thermochemistry -
 -------------------
 Temperature   298.150 Kelvin.  Pressure   1.00000 Atm.
 Atom     1 has atomic number  6 and mass  12.00000

 Molecular mass:    50.01565 amu.
 Principal axes and moments of inertia in atomic units:
                           1         2         3
     Eigenvalues --    42.99839 304.67996 347.67835
           X            0.99989   0.01458   0.00001
           Y           -0.01458   0.99989  -0.00001
           Z           -0.00001   0.00001   1.00000
 This molecule is an asymmetric top.
 Rotational symmetry number  1.
 Rotational temperatures (Kelvin)      2.01435     0.28428     0.24912
 Rotational constants (GHZ):          41.97230     5.92340     5.19084
 Zero-point vibrational energy      93091.5 (Joules/Mol)
                                   22.24941 (Kcal/Mol)
 Warning -- explicit consideration of   3 degrees of freedom as
           vibrations may cause significant error
 Vibrational temperatures:    239.71   529.44   627.65  1123.51  1193.19
          (Kelvin)           1219.70  1534.08  1803.00  2052.58  2962.44
                             4489.94  4617.41

 Zero-point correction=                           0.035457 (Hartree/Particle)
 Thermal correction to Energy=                    0.039791
 Thermal correction to Enthalpy=                  0.040735
 Thermal correction to Gibbs Free Energy=         0.008167
 Sum of electronic and zero-point Energies=           -152.982963
 Sum of electronic and thermal Energies=              -152.978629
 Sum of electronic and thermal Enthalpies=            -152.977685
 Sum of electronic and thermal Free Energies=         -153.010253

                     E (Thermal)             CV                S
                      KCal/Mol        Cal/Mol-Kelvin    Cal/Mol-Kelvin
 Total                   24.969             13.225             68.546
 Electronic               0.000              0.000              2.755
 Translational            0.889              2.981             37.653
 Rotational               0.889              2.981             23.037
 Vibrational             23.192              7.264              5.102
 Vibration     1          0.624              1.884              2.473
 Vibration     2          0.741              1.538              1.088
 Vibration     3          0.797              1.391              0.839

 Normal termination of Gaussian 09 at Thu Jan 24 15:43:07 2019.
