 Gaussian 09, Revision D.01,
 Gaussian 09:  ES64L-G09RevD.01 24-Apr-2013

 ---------------------------
 #p b3lyp/6-311++g(d,p) freq
 ---------------------------

 ---
 min
 ---
 Symbolic Z-matrix:
 Charge =  0 Multiplicity = 1

                         Standard orientation:
 ---------------------------------------------------------------------
 Center     Atomic      Atomic             Coordinates (Angstroms)
 Number     Number       Type             X           Y           Z
 ---------------------------------------------------------------------
      1          6           0       -0.000000   -0.642677   -0.880383
      2          6           0       -0.000000    0.000000    0.459013
      3          6           0       -0.000000    0.000000    1.750069
      4          6           0        0.000000    0.642677   -0.880383
      5          1           0        0.000000    1.611969   -1.344950
      6          1           0       -0.000000   -1.611969   -1.344950
 ---------------------------------------------------------------------

 SCF Done:  E(RB3LYP) =  -153.416892893     A.U. after   11 cycles

 The electronic state is 1-A1.
 Alpha  occ. eigenvalues --  -10.26469 -10.26346 -10.20402 -10.19537  -0.94478
 Alpha  occ. eigenvalues --   -0.72221  -0.63078  -0.59090  -0.45855  -0.41582
 Alpha  occ. eigenvalues --   -0.36870  -0.27575  -0.23666
 Alpha virt. eigenvalues --   -0.09345  -0.05818  -0.01224   0.00445   0.03112
 Alpha virt. eigenvalues --    0.03493   0.05067   0.06482   0.07285   0.08031
 Alpha virt. eigenvalues --    0.09592   0.10433   0.10440   0.10520   0.13168

 Mulliken charges:
               1
     1  C   -0.143523
     2  C    0.184801
     3  C   -0.275066
     4  C   -0.143523
     5  H    0.188656
     6  H    0.188656
 Sum of Mulliken charges =  -0.00000

 Dipole moment (field-independent basis, Debye):
    X=             -0.0000    Y=              0.0000    Z=             -5.1803  Tot=              5.1803
 Quadrupole moment (field-independent basis, Debye-Ang):
   XX=            -25.4834   YY=            -18.1204   ZZ=            -30.0265
   XY=              0.0000   XZ=              0.0000   YZ=              0.0000

  Exact polarizability:  27.610  -0.000  39.439   0.000   0.000  60.846
 Approx polarizability:  37.282   0.000  64.255  -0.000  -0.000  98.023

                      1                      2                      3
                     B2                     B1                     B1
 Frequencies --    183.4744               374.2283               666.0301
 Red. masses --      5.3725                 6.0095                 1.2282
 Frc consts  --      0.1066                 0.4959                 0.3210
 IR Inten    --      4.4853                 6.1911                56.7035

                      4                      5                      6
                     B2                     A2                     A1
 Frequencies --    729.6143               818.0240               829.4376
 Red. masses --      7.2614                 1.4749                 2.5943
 Frc consts  --      2.2775                 0.5815                 1.0516
 IR Inten    --      0.0480                 0.0000                 2.8823

                      7                      8                      9
                     A1                     B2                     A1
 Frequencies --    968.1171               985.5662              1600.0811
 Red. masses --      1.5153                 1.3168                 7.1855
 Frc consts  --      0.8368                 0.7536                10.8391
 IR Inten    --      1.7060                20.1459                89.5049

                     10                     11                     12
                     A1                     B2                     A1
 Frequencies --   1863.9879              3278.1411              3333.0080
 Red. masses --      6.7151                 1.0843                 1.1569
 Frc consts  --     13.7465                 6.8653                 7.5723
 IR Inten    --     16.7795                29.9206                12.3720

 - Thermochemistry -
 -------------------
 Temperature   298.150 Kelvin.  Pressure   1.00000 Atm.
 Atom     1 has atomic number  6 and mass  12.00000

 Molecular mass:    50.01565 amu.
 Principal axes and moments of inertia in atomic units:
                           1         2         3
     Eigenvalues --    54.10289 219.21587 273.31876
           X            0.00000  -0.00000   1.00000
           Y            0.00000   1.00000   0.00000
           Z            1.00000  -0.00000  -0.00000
 This molecule is an asymmetric top.
 Rotational symmetry number  2.
 Rotational temperatures (Kelvin)      1.60091     0.39511     0.31690
 Rotational constants (GHZ):          33.35758     8.23271     6.60306
 Zero-point vibrational energy      93486.4 (Joules/Mol)
                                   22.34379 (Kcal/Mol)
 Warning -- explicit consideration of   2 degrees of freedom as
           vibrations may cause significant error
 Vibrational temperatures:    263.98   538.43   958.27  1049.75  1176.95
          (Kelvin)           1193.37  1392.90  1418.01  2302.16  2681.86
                             4716.51  4795.45

 Zero-point correction=                           0.035607 (Hartree/Particle)
 Thermal correction to Energy=                    0.039819
 Thermal correction to Enthalpy=                  0.040763
 Thermal correction to Gibbs Free Energy=         0.010571
 Sum of electronic and zero-point Energies=           -153.381286
 Sum of electronic and thermal Energies=              -153.377074
 Sum of electronic and thermal Enthalpies=            -153.376130
 Sum of electronic and thermal Free Energies=         -153.406322

                     E (Thermal)             CV                S
                      KCal/Mol        Cal/Mol-Kelvin    Cal/Mol-Kelvin
 Total                   24.987             13.122             63.545
 Electronic               0.000              0.000              0.000
 Translational            0.889              2.981             37.653
 Rotational               0.889              2.981             21.321
 Vibrational             23.209              7.161              4.570
 Vibration     1          0.631              1.862              2.293
 Vibration     2          0.745              1.525              1.062

 Optimization completed.
    -- Stationary point found.

 1\1\ CITASK-GV1802\Freq\RB3LYP\6-311++G(d,p)\C4H2\EERD\04-Mar-2018\0\\
 #p b3lyp/6-311++g(d,p) freq\\min\\0,1\C,0.214695541,1.096431567,0.5364
 9878\C,-0.4405898323,-0.107433998,-0.0364969257\C,-1.3486479798,-0.727
 5573941,-0.7130351082\C,0.7882401603,-0.02461542,0.7942456519\H,1.5475
 041369,-0.646861248,1.2320558902\H,0.1089331826,2.1649611974,0.5855723
 368\\Version=ES64L-G09RevD.01\State=1-A1\HF=-153.4168929\RMSD=5.932e-0
 9\RMSF=4.665e-05\ZeroPoint=0.0356071\Thermal=0.039819\Dipole=1.4334919
 ,0.9789482,1.0680065\DipoleDeriv=0.1839367,0.1943904,0.1400477,-0.2249

 Normal termination of Gaussian 09 at Sun Mar  4 21:07:23 2018.
