 Gaussian 09, Revision D.01,
 Gaussian 09:  ES64L-G09RevD.01 24-Apr-2013

 ---------------------------
 #p b3lyp/6-311++g(d,p) freq
 ---------------------------

 ---
 min
 ---
 Symbolic Z-matrix:
 Charge =  0 Multiplicity = 3

                         Standard orientation:
 ---------------------------------------------------------------------
 Center     Atomic      Atomic             Coordinates (Angstroms)
 Number     Number       Type             X           Y           Z
 ---------------------------------------------------------------------
      1          6           0       -0.000000    1.074037   -0.123180
      2          6           0       -0.896311    0.000000    0.135423
      3          6           0       -0.000000   -1.074037   -0.123180
      4          6           0        0.896311   -0.000000    0.135423
      5          1           0       -0.000000    2.148073   -0.073461
      6          1           0       -0.000000   -2.148073   -0.073461
 ---------------------------------------------------------------------

 SCF Done:  E(UB3LYP) =  -153.400861515     A.U. after   13 cycles

 The electronic state is 3-A2.
 Alpha  occ. eigenvalues --  -10.24318 -10.24311 -10.23704 -10.23699  -0.96410
 Alpha  occ. eigenvalues --   -0.71098  -0.59242  -0.57406  -0.45135  -0.44081
 Alpha  occ. eigenvalues --   -0.42787  -0.31831  -0.24030  -0.21524
 Alpha virt. eigenvalues --   -0.05403  -0.00517   0.00381   0.00985   0.03823
 Alpha virt. eigenvalues --    0.04586   0.06904   0.07618   0.08876   0.09651
 Alpha virt. eigenvalues --    0.10298   0.10739   0.12300   0.12323   0.12605

  Beta  occ. eigenvalues --  -10.23657 -10.23647 -10.22688 -10.22686  -0.94362
  Beta  occ. eigenvalues --   -0.68308  -0.56755  -0.56000  -0.44311  -0.41075
  Beta  occ. eigenvalues --   -0.38004  -0.28570
  Beta virt. eigenvalues --   -0.11736  -0.09744  -0.04717   0.00169   0.01067
  Beta virt. eigenvalues --    0.03248   0.04075   0.05153   0.07630   0.07979
  Beta virt. eigenvalues --    0.09663   0.10696   0.10859   0.10874   0.12534

 Mulliken charges and spin densities:
               1          2
     1  C   -0.118721   0.717085
     2  C   -0.063837   0.298353
     3  C   -0.118721   0.717085
     4  C   -0.063837   0.298353
     5  H    0.182558  -0.015438
     6  H    0.182558  -0.015438
 Sum of Mulliken charges =  -0.00000   2.00000

 Dipole moment (field-independent basis, Debye):
    X=             -0.0000    Y=             -0.0000    Z=             -0.6155  Tot=              0.6155
 Quadrupole moment (field-independent basis, Debye-Ang):
   XX=            -28.1200   YY=            -17.2903   ZZ=            -24.9805
   XY=              0.0000   XZ=             -0.0000   YZ=             -0.0000

  Exact polarizability:  52.719   0.000  50.161   0.000  -0.000  28.306
 Approx polarizability: 109.455  -0.000  80.423  -0.000   0.000  39.649

                      1                      2                      3
                     A1                     B2                     A1
 Frequencies --    582.8975               588.6917               660.9299
 Red. masses --      2.2237                 1.3280                 2.0445
 Frc consts  --      0.4452                 0.2712                 0.5262
 IR Inten    --     15.4862                31.1483                25.7278

                      4                      5                      6
                     A1                     B1                     A2
 Frequencies --    821.9720               839.8169              1035.9353
 Red. masses --      4.8577                 2.3951                 2.3822
 Frc consts  --      1.9337                 0.9953                 1.5062
 IR Inten    --     14.5610                71.6505                 0.0000

                      7                      8                      9
                     A2                     B1                     B2
 Frequencies --   1073.3792              1149.9383              1205.5225
 Red. masses --      1.9780                 1.6106                 7.0801
 Frc consts  --      1.3427                 1.2548                 6.0624
 IR Inten    --      0.0000                 0.1414                 0.9969

                     10                     11                     12
                     A1                     B2                     A1
 Frequencies --   1314.5532              3291.7316              3298.1105
 Red. masses --      6.7093                 1.0953                 1.1060
 Frc consts  --      6.8310                 6.9922                 7.0885
 IR Inten    --      0.5123                10.3377                 0.2177

 - Thermochemistry -
 -------------------
 Temperature   298.150 Kelvin.  Pressure   1.00000 Atm.
 Atom     1 has atomic number  6 and mass  12.00000

 Molecular mass:    50.01565 amu.
 Principal axes and moments of inertia in atomic units:
                           1         2         3
     Eigenvalues --    71.76311 134.98888 200.93291
           X            0.00000   1.00000   0.00000
           Y            1.00000  -0.00000   0.00000
           Z           -0.00000  -0.00000   1.00000
 This molecule is an asymmetric top.
 Rotational symmetry number  2.
 Rotational temperatures (Kelvin)      1.20694     0.64164     0.43106
 Rotational constants (GHZ):          25.14859    13.36955     8.98181
 Zero-point vibrational energy      94884.7 (Joules/Mol)
                                   22.67798 (Kcal/Mol)
 Warning -- explicit consideration of   2 degrees of freedom as
           vibrations may cause significant error
 Vibrational temperatures:    838.66   847.00   950.93  1182.63  1208.31
          (Kelvin)           1490.48  1544.35  1654.50  1734.48  1891.35
                             4736.06  4745.24

 Zero-point correction=                           0.036140 (Hartree/Particle)
 Thermal correction to Energy=                    0.039685
 Thermal correction to Enthalpy=                  0.040629
 Thermal correction to Gibbs Free Energy=         0.010890
 Sum of electronic and zero-point Energies=           -153.364722
 Sum of electronic and thermal Energies=              -153.361177
 Sum of electronic and thermal Enthalpies=            -153.360233
 Sum of electronic and thermal Free Energies=         -153.389972

                     E (Thermal)             CV                S
                      KCal/Mol        Cal/Mol-Kelvin    Cal/Mol-Kelvin
 Total                   24.902             11.420             62.591
 Electronic               0.000              0.000              2.183
 Translational            0.889              2.981             37.653
 Rotational               0.889              2.981             20.814
 Vibrational             23.125              5.458              1.940
 Vibration     1          0.940              1.068              0.480
 Vibration     2          0.946              1.056              0.470

 Optimization completed.
    -- Stationary point found.
 Normal termination of Gaussian 09 at Sun Mar  4 21:07:45 2018.
