 Gaussian 09, Revision D.01,
 Gaussian 09:  ES64L-G09RevD.01 24-Apr-2013

 ---------------------------
 #p b3lyp/6-311++g(d,p) freq
 ---------------------------

 ---
 min
 ---
 Symbolic Z-matrix:
 Charge =  1 Multiplicity = 2

                         Standard orientation:
 ---------------------------------------------------------------------
 Center     Atomic      Atomic             Coordinates (Angstroms)
 Number     Number       Type             X           Y           Z
 ---------------------------------------------------------------------
      1          6           0        0.000000    1.147291    0.000000
      2          6           0        0.000000   -0.000000    0.793667
      3          6           0       -0.000000   -1.147291   -0.000000
      4          6           0       -0.000000    0.000000   -0.793667
      5          1           0        0.000000    2.225348    0.000000
      6          1           0       -0.000000   -2.225348   -0.000000
 ---------------------------------------------------------------------

 SCF Done:  E(UB3LYP) =  -153.121041512     A.U. after   11 cycles

 The electronic state is 2-AG.
 Alpha  occ. eigenvalues --  -10.55628 -10.55609 -10.52959 -10.52953  -1.29334
 Alpha  occ. eigenvalues --   -1.02050  -0.83838  -0.83823  -0.75674  -0.72337
 Alpha  occ. eigenvalues --   -0.70939  -0.57228  -0.51745
 Alpha virt. eigenvalues --   -0.34796  -0.30645  -0.23019  -0.16383  -0.13634
 Alpha virt. eigenvalues --   -0.13609  -0.13458  -0.11287  -0.08885  -0.06572
 Alpha virt. eigenvalues --   -0.06435  -0.06224  -0.04252  -0.04019  -0.02496

  Beta  occ. eigenvalues --  -10.55794 -10.55774 -10.51986 -10.51982  -1.28433
  Beta  occ. eigenvalues --   -0.99434  -0.83660  -0.82429  -0.75043  -0.70169
  Beta  occ. eigenvalues --   -0.69088  -0.57498
  Beta virt. eigenvalues --   -0.38826  -0.35436  -0.30097  -0.18668  -0.15754
  Beta virt. eigenvalues --   -0.13462  -0.13325  -0.13043  -0.10567  -0.08877
  Beta virt. eigenvalues --   -0.06562  -0.06156  -0.05489  -0.04345  -0.03728

 Mulliken charges and spin densities:
               1          2
     1  C   -0.334785   0.658041
     2  C    0.563812  -0.133838
     3  C   -0.334785   0.658041
     4  C    0.563812  -0.133838
     5  H    0.270974  -0.024203
     6  H    0.270974  -0.024203
 Sum of Mulliken charges =   1.00000   1.00000

 Dipole moment (field-independent basis, Debye):
    X=             -0.0000    Y=             -0.0000    Z=             -0.0000  Tot=              0.0000
 Quadrupole moment (field-independent basis, Debye-Ang):
   XX=            -20.5361   YY=             -7.4618   ZZ=            -21.0790
   XY=              0.0000   XZ=              0.0000   YZ=              0.0000

  Exact polarizability:  19.024  -0.000  41.241   0.000   0.000  33.552
 Approx polarizability:  28.308  -0.000  67.721   0.000  -0.000  79.721

                      1                      2                      3
                     AG                     BU                     BU
 Frequencies --    499.4411               517.4993               552.5173
 Red. masses --      1.2920                 6.1190                 1.1422
 Frc consts  --      0.1899                 0.9655                 0.2054
 IR Inten    --      0.0000                20.8100                49.4980

                      4                      5                      6
                     AU                     BG                     AG
 Frequencies --    741.8212               751.5310               857.1227
 Red. masses --      4.6613                 5.8030                 9.4532
 Frc consts  --      1.5113                 1.9311                 4.0918
 IR Inten    --     66.0597                 0.0000                 0.0000

                      7                      8                      9
                     AU                     BG                     AG
 Frequencies --   1032.2322              1050.9572              1370.3414
 Red. masses --      1.2130                 1.3455                 6.1895
 Frc consts  --      0.7615                 0.8756                 6.8480
 IR Inten    --     12.4047                 0.0000                 0.0000

                     10                     11                     12
                     BU                     BU                     AG
 Frequencies --   1405.6018              3287.7106              3305.1795
 Red. masses --      7.4637                 1.1050                 1.1216
 Frc consts  --      8.6882                 7.0373                 7.2193
 IR Inten    --     21.2901               275.1004                 0.0000

 - Thermochemistry -
 -------------------
 Temperature   298.150 Kelvin.  Pressure   1.00000 Atm.
 Atom     1 has atomic number  6 and mass  12.00000

 Molecular mass:    50.01565 amu.
 Principal axes and moments of inertia in atomic units:
                           1         2         3
     Eigenvalues --    53.98649 148.45794 202.44443
           X            0.00000   0.00000   1.00000
           Y            1.00000   0.00000  -0.00000
           Z           -0.00000   1.00000  -0.00000
 This molecule is an asymmetric top.
 Rotational symmetry number  2.
 Rotational temperatures (Kelvin)      1.60436     0.58342     0.42784
 Rotational constants (GHZ):          33.42950    12.15658     8.91475
 Zero-point vibrational energy      91944.7 (Joules/Mol)
                                   21.97531 (Kcal/Mol)
 Warning -- explicit consideration of   3 degrees of freedom as
           vibrations may cause significant error
 Vibrational temperatures:    718.58   744.57   794.95  1067.31  1081.28
          (Kelvin)           1233.21  1485.15  1512.09  1971.61  2022.34
                             4730.28  4755.41

 Zero-point correction=                           0.035020 (Hartree/Particle)
 Thermal correction to Energy=                    0.038809
 Thermal correction to Enthalpy=                  0.039753
 Thermal correction to Gibbs Free Energy=         0.010128
 Sum of electronic and zero-point Energies=           -153.086022
 Sum of electronic and thermal Energies=              -153.082233
 Sum of electronic and thermal Enthalpies=            -153.081288
 Sum of electronic and thermal Free Energies=         -153.110913

                     E (Thermal)             CV                S
                      KCal/Mol        Cal/Mol-Kelvin    Cal/Mol-Kelvin
 Total                   24.353             12.494             62.351
 Electronic               0.000              0.000              1.377
 Translational            0.889              2.981             37.653
 Rotational               0.889              2.981             20.634
 Vibrational             22.575              6.532              2.687
 Vibration     1          0.855              1.251              0.660
 Vibration     2          0.873              1.211              0.616
 Vibration     3          0.908              1.134              0.539

 Optimization completed.
    -- Stationary point found.
 Normal termination of Gaussian 09 at Thu Jan 24 15:41:34 2019.
