 Gaussian 09, Revision D.01,
 Gaussian 09:  ES64L-G09RevD.01 24-Apr-2013

 ---------------------------
 #p b3lyp/6-311++g(d,p) freq
 ---------------------------

 ---
 min
 ---
 Symbolic Z-matrix:
 Charge =  1 Multiplicity = 4

                         Standard orientation:
 ---------------------------------------------------------------------
 Center     Atomic      Atomic             Coordinates (Angstroms)
 Number     Number       Type             X           Y           Z
 ---------------------------------------------------------------------
      1          6           0       -0.000000    1.950583   -0.084377
      2          6           0       -0.000000    0.624958   -0.006857
      3          6           0       -0.000000   -0.624958   -0.006857
      4          6           0       -0.000000   -1.950583   -0.084377
      5          1           0        0.000000    2.832169    0.547406
      6          1           0       -0.000000   -2.832169    0.547406
 ---------------------------------------------------------------------

 SCF Done:  E(UB3LYP) =  -153.067612896     A.U. after   12 cycles

 The electronic state is 4-B1.
 Alpha  occ. eigenvalues --  -10.51938 -10.51937 -10.48675 -10.48517  -1.09750
 Alpha  occ. eigenvalues --   -1.03706  -0.93820  -0.78308  -0.76565  -0.65007
 Alpha  occ. eigenvalues --   -0.63975  -0.57898  -0.54548  -0.45140
 Alpha virt. eigenvalues --   -0.35072  -0.19961  -0.15758  -0.13725  -0.13154
 Alpha virt. eigenvalues --   -0.11300  -0.09644  -0.09462  -0.06609  -0.05548
 Alpha virt. eigenvalues --   -0.05299  -0.03329  -0.03114  -0.02344  -0.00928

  Beta  occ. eigenvalues --  -10.49770 -10.49769 -10.48378 -10.48217  -1.07003
  Beta  occ. eigenvalues --   -0.98446  -0.90327  -0.75951  -0.74603  -0.60509
  Beta  occ. eigenvalues --   -0.58812
  Beta virt. eigenvalues --   -0.42673  -0.41738  -0.29868  -0.28560  -0.15549
  Beta virt. eigenvalues --   -0.15372  -0.12194  -0.11123  -0.10762  -0.09104
  Beta virt. eigenvalues --   -0.08708  -0.05935  -0.03669  -0.03517  -0.02174

 Mulliken charges and spin densities:
               1          2
     1  C   -0.463627   1.238279
     2  C    0.722486   0.273818
     3  C    0.722486   0.273818
     4  C   -0.463627   1.238279
     5  H    0.241142  -0.012097
     6  H    0.241142  -0.012097
 Sum of Mulliken charges =   1.00000   3.00000

 Dipole moment (field-independent basis, Debye):
    X=             -0.0000    Y=             -0.0000    Z=              1.1454  Tot=              1.1454
 Quadrupole moment (field-independent basis, Debye-Ang):
   XX=            -20.6685   YY=              3.5627   ZZ=            -21.0383
   XY=              0.0000   XZ=             -0.0000   YZ=              0.0000

  Exact polarizability:  18.206  -0.000  91.180   0.000   0.000  19.328
 Approx polarizability:  23.576   0.000 196.154  -0.000   0.000  24.521

                      1                      2                      3
                     B1                     A1                     B2
 Frequencies --    209.2016               221.5420               279.2533
 Red. masses --      5.9904                 3.3162                 3.1448
 Frc consts  --      0.1545                 0.0959                 0.1445
 IR Inten    --      4.6346                16.9955                 6.6954

                      4                      5                      6
                     A2                     B2                     A1
 Frequencies --    482.4911               602.0224               759.5501
 Red. masses --      5.2421                 1.7302                 1.3103
 Frc consts  --      0.7190                 0.3695                 0.4454
 IR Inten    --      0.0000                41.3596                11.8751

                      7                      8                      9
                     A2                     A1                     B2
 Frequencies --    772.3865               949.1044              1328.9734
 Red. masses --      1.3174                 7.5808                 5.5488
 Frc consts  --      0.4631                 4.0234                 5.7741
 IR Inten    --      0.0000                 1.3013               175.9902

                     10                     11                     12
                     A1                     B2                     A1
 Frequencies --   2214.2870              3215.0778              3217.3589
 Red. masses --     10.3418                 1.1009                 1.1056
 Frc consts  --     29.8754                 6.7048                 6.7426
 IR Inten    --      0.1973               131.1039                47.2702

 - Thermochemistry -
 -------------------
 Temperature   298.150 Kelvin.  Pressure   1.00000 Atm.
 Atom     1 has atomic number  6 and mass  12.00000

 Molecular mass:    50.01565 amu.
 Principal axes and moments of inertia in atomic units:
                           1         2         3
     Eigenvalues --     2.68687 417.30118 419.98805
           X            0.00000   0.00000   1.00000
           Y            1.00000   0.00000  -0.00000
           Z            0.00000   1.00000   0.00000
 This molecule is an asymmetric top.
 Rotational symmetry number  2.
 Rotational temperatures (Kelvin)     32.23594     0.20756     0.20623
 Rotational constants (GHZ):         671.68877     4.32479     4.29713
 Zero-point vibrational energy      85241.4 (Joules/Mol)
                                   20.37318 (Kcal/Mol)
 Warning -- explicit consideration of   5 degrees of freedom as
           vibrations may cause significant error
 Vibrational temperatures:    300.99   318.75   401.78   694.20   866.17
          (Kelvin)           1092.82  1111.29  1365.55  1912.09  3185.86
                             4625.77  4629.06

 Zero-point correction=                           0.032467 (Hartree/Particle)
 Thermal correction to Energy=                    0.037449
 Thermal correction to Enthalpy=                  0.038393
 Thermal correction to Gibbs Free Energy=         0.006507
 Sum of electronic and zero-point Energies=           -153.035146
 Sum of electronic and thermal Energies=              -153.030164
 Sum of electronic and thermal Enthalpies=            -153.029220
 Sum of electronic and thermal Free Energies=         -153.061106

                     E (Thermal)             CV                S
                      KCal/Mol        Cal/Mol-Kelvin    Cal/Mol-Kelvin
 Total                   23.500             15.618             67.110
 Electronic               0.000              0.000              2.755
 Translational            0.889              2.981             37.653
 Rotational               0.889              2.981             19.404
 Vibrational             21.722              9.657              7.298
 Vibration     1          0.642              1.827              2.051
 Vibration     2          0.648              1.808              1.946
 Vibration     3          0.680              1.712              1.538
 Vibration     4          0.839              1.289              0.703
 Vibration     5          0.960              1.028              0.446

 Optimization completed.
    -- Stationary point found.
 Normal termination of Gaussian 09 at Thu Jan 24 15:42:04 2019.
