 Gaussian 09, Revision D.01,
 Gaussian 09:  ES64L-G09RevD.01 24-Apr-2013

 ---------------------------
 #p b3lyp/6-311++g(d,p) freq
 ---------------------------

 ---
 min
 ---
 Symbolic Z-matrix:
 Charge =  1 Multiplicity = 4

                         Standard orientation:
 ---------------------------------------------------------------------
 Center     Atomic      Atomic             Coordinates (Angstroms)
 Number     Number       Type             X           Y           Z
 ---------------------------------------------------------------------
      1          6           0       -0.536912   -0.537956   -0.000000
      2          6           0       -0.000000    0.731036    0.000000
      3          6           0       -1.049082   -1.659463   -0.000000
      4          6           0        1.356846    0.910751    0.000000
      5          1           0        2.053978    1.743275    0.000000
      6          1           0       -0.679092    1.590515    0.000000
 ---------------------------------------------------------------------

 SCF Done:  E(UB3LYP) =  -153.018648868     A.U. after   18 cycles

 The electronic state is 4-A".
 Alpha  occ. eigenvalues --  -10.53812 -10.51439 -10.49661 -10.48387  -1.10544
 Alpha  occ. eigenvalues --   -1.03889  -0.89933  -0.76490  -0.74699  -0.66504
 Alpha  occ. eigenvalues --   -0.63892  -0.57042  -0.55305  -0.52681
 Alpha virt. eigenvalues --   -0.33491  -0.24143  -0.17201  -0.15472  -0.12988
 Alpha virt. eigenvalues --   -0.12026  -0.10014  -0.08915  -0.07443  -0.06415
 Alpha virt. eigenvalues --   -0.05418  -0.04521  -0.03469  -0.03469  -0.01477

  Beta  occ. eigenvalues --  -10.50813 -10.49517 -10.49199 -10.48133  -1.08388
  Beta  occ. eigenvalues --   -0.99161  -0.86441  -0.74521  -0.72890  -0.59839
  Beta  occ. eigenvalues --   -0.54620
  Beta virt. eigenvalues --   -0.43253  -0.43211  -0.34221  -0.26993  -0.21172
  Beta virt. eigenvalues --   -0.15052  -0.13054  -0.12358  -0.11330  -0.09452
  Beta virt. eigenvalues --   -0.08226  -0.06848  -0.05407  -0.04531  -0.03802

 Mulliken charges and spin densities:
               1          2
     1  C    0.642984   0.130554
     2  C   -0.436702   0.330886
     3  C    0.277255   1.118735
     4  C   -0.037141   1.377801
     5  H    0.273142  -0.006251
     6  H    0.280461   0.048274
 Sum of Mulliken charges =   1.00000   3.00000

 Dipole moment (field-independent basis, Debye):
    X=              0.4629    Y=              1.1369    Z=              0.0000  Tot=              1.2275
 Quadrupole moment (field-independent basis, Debye-Ang):
   XX=            -13.1679   YY=             -8.6045   ZZ=            -20.8418
   XY=              7.6944   XZ=              0.0000   YZ=             -0.0000

  Exact polarizability:  48.978  19.762  53.837   0.000  -0.000  18.996
 Approx polarizability:  71.773  40.035  91.784   0.000   0.000  25.643

                      1                      2                      3
                     A'                     A"                     A'
 Frequencies --    147.7586               345.2850               452.3647
 Red. masses --      6.0378                 2.9505                 4.0350
 Frc consts  --      0.0777                 0.2073                 0.4865
 IR Inten    --      0.3116                24.8852                 8.1748

                      4                      5                      6
                     A"                     A'                     A"
 Frequencies --    661.7542               803.4402               939.8473
 Red. masses --      1.5765                 1.4281                 1.4347
 Frc consts  --      0.4068                 0.5432                 0.7467
 IR Inten    --     21.4255                18.9980                 3.4894

                      7                      8                      9
                     A'                     A'                     A'
 Frequencies --   1060.8547              1241.9983              1459.0251
 Red. masses --      3.5910                 1.4169                 4.9401
 Frc consts  --      2.3811                 1.2877                 6.1960
 IR Inten    --      1.4228                 6.5358               133.1106

                     10                     11                     12
                     A'                     A'                     A'
 Frequencies --   2127.4962              3067.5084              3211.3589
 Red. masses --     11.8263                 1.0856                 1.0998
 Frc consts  --     31.5381                 6.0184                 6.6826
 IR Inten    --     49.1521                38.3857                63.2975

 - Thermochemistry -
 -------------------
 Temperature   298.150 Kelvin.  Pressure   1.00000 Atm.
 Atom     1 has atomic number  6 and mass  12.00000

 Molecular mass:    50.01565 amu.
 Principal axes and moments of inertia in atomic units:
                           1         2         3
     Eigenvalues --    30.66152 332.57523 363.23675
           X            0.64205   0.76666   0.00000
           Y            0.76666  -0.64205  -0.00000
           Z            0.00000  -0.00000   1.00000
 This molecule is an asymmetric top.
 Rotational symmetry number  1.
 Rotational temperatures (Kelvin)      2.82484     0.26043     0.23845
 Rotational constants (GHZ):          58.86014     5.42657     4.96850
 Zero-point vibrational energy      92822.4 (Joules/Mol)
                                   22.18508 (Kcal/Mol)
 Warning -- explicit consideration of   3 degrees of freedom as
           vibrations may cause significant error
 Vibrational temperatures:    212.59   496.79   650.85   952.12  1155.97
          (Kelvin)           1352.23  1526.33  1786.96  2099.21  3060.99
                             4413.45  4620.42

 Zero-point correction=                           0.035354 (Hartree/Particle)
 Thermal correction to Energy=                    0.039765
 Thermal correction to Enthalpy=                  0.040709
 Thermal correction to Gibbs Free Energy=         0.008059
 Sum of electronic and zero-point Energies=           -152.983295
 Sum of electronic and thermal Energies=              -152.978884
 Sum of electronic and thermal Enthalpies=            -152.977940
 Sum of electronic and thermal Free Energies=         -153.010590

                     E (Thermal)             CV                S
                      KCal/Mol        Cal/Mol-Kelvin    Cal/Mol-Kelvin
 Total                   24.953             13.393             68.717
 Electronic               0.000              0.000              2.755
 Translational            0.889              2.981             37.653
 Rotational               0.889              2.981             22.831
 Vibrational             23.175              7.431              5.478
 Vibration     1          0.617              1.905              2.701
 Vibration     2          0.724              1.585              1.188
 Vibration     3          0.811              1.356              0.789

 Optimization completed.
    -- Stationary point found.
 Normal termination of Gaussian 09 at Thu Jan 24 15:42:00 2019.
