 Gaussian 09, Revision D.01,
 Gaussian 09:  ES64L-G09RevD.01 24-Apr-2013

 ---------------------------
 #p b3lyp/6-311++g(d,p) freq
 ---------------------------

 ---
 min
 ---
 Symbolic Z-matrix:
 Charge =  0 Multiplicity = 3

                         Standard orientation:
 ---------------------------------------------------------------------
 Center     Atomic      Atomic             Coordinates (Angstroms)
 Number     Number       Type             X           Y           Z
 ---------------------------------------------------------------------
      1          6           0        1.735302   -0.169421    0.005255
      2          6           0        0.554900    0.140388   -0.004402
      3          6           0       -0.796746    0.443785   -0.023817
      4          6           0       -1.774298   -0.589597    0.009343
      5          1           0        2.761596   -0.450550    0.008737
      6          1           0       -1.076545    1.499627    0.072988
 ---------------------------------------------------------------------

 SCF Done:  E(UB3LYP) =  -153.381554173     A.U. after   21 cycles

 The electronic state is 3-A.
 Alpha  occ. eigenvalues --  -10.24690 -10.23737 -10.23323 -10.22201  -0.85233
 Alpha  occ. eigenvalues --   -0.77873  -0.62602  -0.57104  -0.51747  -0.39657
 Alpha  occ. eigenvalues --   -0.34614  -0.30369  -0.29003  -0.21253
 Alpha virt. eigenvalues --   -0.07659  -0.01638  -0.00885   0.00918   0.03472
 Alpha virt. eigenvalues --    0.04431   0.05094   0.06148   0.08074   0.09082
 Alpha virt. eigenvalues --    0.09682   0.10252   0.10952   0.12099   0.12291

  Beta  occ. eigenvalues --  -10.24162 -10.23447 -10.23023 -10.20395  -0.83560
  Beta  occ. eigenvalues --   -0.75073  -0.59855  -0.55574  -0.50260  -0.36439
  Beta  occ. eigenvalues --   -0.33250  -0.26919
  Beta virt. eigenvalues --   -0.19125  -0.05879  -0.03746  -0.01010  -0.00648
  Beta virt. eigenvalues --    0.01063   0.04328   0.04842   0.05395   0.07417
  Beta virt. eigenvalues --    0.08637   0.09729   0.10041   0.11058   0.11365

 Mulliken charges and spin densities:
               1          2
     1  C   -1.742815   0.375258
     2  C    1.776558  -0.018219
     3  C   -0.066327   0.389890
     4  C   -0.281053   1.235029
     5  H    0.148514  -0.019050
     6  H    0.165122   0.037091
 Sum of Mulliken charges =  -0.00000   2.00000

 Dipole moment (field-independent basis, Debye):
    X=              3.5730    Y=              1.8317    Z=             -0.1997  Tot=              4.0201
 Quadrupole moment (field-independent basis, Debye-Ang):
   XX=            -23.7414   YY=            -25.1726   ZZ=            -24.1072
   XY=             -5.4839   XZ=              0.5836   YZ=              0.2371

  Exact polarizability: 102.992   9.419  42.886   8.089   3.895  30.423
 Approx polarizability: 147.817   2.394  54.139   2.368   0.366  37.219

                      1                      2                      3
                      A                      A                      A
 Frequencies --    206.3783               339.2308               496.8916
 Red. masses --      5.2089                 2.1809                 2.8486
 Frc consts  --      0.1307                 0.1479                 0.4144
 IR Inten    --      3.3823                27.6008               273.7382

                      4                      5                      6
                      A                      A                      A
 Frequencies --    546.7012               614.9478               675.4022
 Red. masses --      4.5386                 1.2154                 1.3573
 Frc consts  --      0.7992                 0.2708                 0.3648
 IR Inten    --     77.5363                84.0982                33.0232

                      7                      8                      9
                      A                      A                      A
 Frequencies --    998.8118              1096.9692              1320.0582
 Red. masses --      7.0765                 1.9480                 1.9580
 Frc consts  --      4.1595                 1.3811                 2.0103
 IR Inten    --     25.1429                58.5246                 8.3904

                     10                     11                     12
                      A                      A                      A
 Frequencies --   2032.0801              3020.1133              3455.5128
 Red. masses --      6.5694                 1.0831                 1.1422
 Frc consts  --     15.9829                 5.8205                 8.0357
 IR Inten    --    178.8969                11.6356                58.1385

 - Thermochemistry -
 -------------------
 Temperature   298.150 Kelvin.  Pressure   1.00000 Atm.
 Atom     1 has atomic number  6 and mass  12.00000

 Molecular mass:    50.01565 amu.
 Principal axes and moments of inertia in atomic units:
                           1         2         3
     Eigenvalues --    33.87538 336.14092 369.92719
           X            0.99945  -0.03311  -0.00089
           Y            0.03311   0.99939   0.01140
           Z            0.00051  -0.01142   0.99993
 This molecule is an asymmetric top.
 Rotational symmetry number  1.
 Rotational temperatures (Kelvin)      2.55684     0.25767     0.23414
 Rotational constants (GHZ):          53.27590     5.36900     4.87864
 Zero-point vibrational energy      88542.2 (Joules/Mol)
                                   21.16209 (Kcal/Mol)
 Warning -- explicit consideration of   5 degrees of freedom as
           vibrations may cause significant error
 Vibrational temperatures:    296.93   488.08   714.92   786.58   884.77
          (Kelvin)            971.75  1437.07  1578.29  1899.27  2923.71
                             4345.26  4971.71

 Zero-point correction=                           0.033724 (Hartree/Particle)
 Thermal correction to Energy=                    0.038247
 Thermal correction to Enthalpy=                  0.039191
 Thermal correction to Gibbs Free Energy=         0.006764
 Sum of electronic and zero-point Energies=           -153.347830
 Sum of electronic and thermal Energies=              -153.343307
 Sum of electronic and thermal Enthalpies=            -153.342363
 Sum of electronic and thermal Free Energies=         -153.374790

                     E (Thermal)             CV                S
                      KCal/Mol        Cal/Mol-Kelvin    Cal/Mol-Kelvin
 Total                   24.000             14.481             68.248
 Electronic               0.000              0.000              2.183
 Translational            0.889              2.981             37.653
 Rotational               0.889              2.981             22.959
 Vibrational             22.223              8.519              5.453
 Vibration     1          0.641              1.831              2.075
 Vibration     2          0.719              1.597              1.216
 Vibration     3          0.852              1.257              0.666
 Vibration     4          0.902              1.147              0.551
 Vibration     5          0.974              1.000              0.425

 Optimization completed.
    -- Stationary point found.
 Normal termination of Gaussian 09 at Sun Mar  4 21:08:44 2018.
