 Gaussian 09, Revision D.01,
 Gaussian 09:  ES64L-G09RevD.01 24-Apr-2013

 ---------------------------
 #p b3lyp/6-311++g(d,p) freq
 ---------------------------

 ---
 min
 ---
 Symbolic Z-matrix:
 Charge =  1 Multiplicity = 4

                         Standard orientation:
 ---------------------------------------------------------------------
 Center     Atomic      Atomic             Coordinates (Angstroms)
 Number     Number       Type             X           Y           Z
 ---------------------------------------------------------------------
      1          6           0       -0.517688    1.665373   -0.000000
      2          6           0        0.000000    0.551646   -0.000000
      3          6           0        0.587882   -0.685728   -0.000000
      4          6           0       -0.188619   -1.839491    0.000000
      5          1           0       -0.967175    2.640097   -0.000000
      6          1           0        1.677723   -0.790892   -0.000000
 ---------------------------------------------------------------------

 SCF Done:  E(UB3LYP) =  -153.029649190     A.U. after   18 cycles

 The electronic state is 4-A".
 Alpha  occ. eigenvalues --  -10.54713 -10.51550 -10.48808 -10.47051  -1.10715
 Alpha  occ. eigenvalues --   -1.03030  -0.88614  -0.79239  -0.76157  -0.66066
 Alpha  occ. eigenvalues --   -0.63677  -0.55824  -0.54728  -0.50330
 Alpha virt. eigenvalues --   -0.33844  -0.23253  -0.17023  -0.15450  -0.12994
 Alpha virt. eigenvalues --   -0.11818  -0.10099  -0.09822  -0.07185  -0.05910
 Alpha virt. eigenvalues --   -0.05406  -0.05367  -0.03233  -0.03037  -0.01644

  Beta  occ. eigenvalues --  -10.51167 -10.50702 -10.48019 -10.46911  -1.08084
  Beta  occ. eigenvalues --   -0.99264  -0.83911  -0.77664  -0.74286  -0.59834
  Beta  occ. eigenvalues --   -0.55226
  Beta virt. eigenvalues --   -0.43240  -0.42955  -0.30152  -0.26642  -0.21909
  Beta virt. eigenvalues --   -0.14971  -0.14223  -0.12646  -0.11251  -0.09316
  Beta virt. eigenvalues --   -0.09189  -0.06459  -0.05514  -0.04736  -0.04349

 Mulliken charges and spin densities:
               1          2
     1  C   -1.698934   0.415528
     2  C    1.609906   0.073038
     3  C    0.290303   0.258181
     4  C    0.285165   2.214435
     5  H    0.235227  -0.018499
     6  H    0.278333   0.057317
 Sum of Mulliken charges =   1.00000   3.00000

 Dipole moment (field-independent basis, Debye):
    X=             -0.0354    Y=              0.5464    Z=              0.0000  Tot=              0.5475
 Quadrupole moment (field-independent basis, Debye-Ang):
   XX=            -17.1476   YY=             -3.9248   ZZ=            -20.8451
   XY=             -4.5760   XZ=              0.0000   YZ=              0.0000

  Exact polarizability:  29.293  -8.077  74.616  -0.000   0.000  18.966
 Approx polarizability:  44.022 -17.205 146.210  -0.000  -0.000  25.594

                      1                      2                      3
                     A'                     A"                     A'
 Frequencies --    219.2248               328.6026               569.7776
 Red. masses --      5.1525                 2.8124                 8.1216
 Frc consts  --      0.1459                 0.1789                 1.5535
 IR Inten    --      6.3577                19.5079                 5.1259

                      4                      5                      6
                     A'                     A"                     A"
 Frequencies --    698.4655               781.5438               838.0915
 Red. masses --      1.2453                 1.3393                 1.7331
 Frc consts  --      0.3579                 0.4820                 0.7172
 IR Inten    --     47.0978                10.4065                19.3149

                      7                      8                      9
                     A'                     A'                     A'
 Frequencies --   1051.9048              1233.6583              1316.2370
 Red. masses --      4.6043                 1.7716                 2.7348
 Frc consts  --      3.0017                 1.5886                 2.7915
 IR Inten    --      2.5529                 2.0585                13.3795

                     10                     11                     12
                     A'                     A'                     A'
 Frequencies --   2098.6325              3072.3431              3377.4389
 Red. masses --      6.4206                 1.0877                 1.1538
 Frc consts  --     16.6609                 6.0490                 7.7546
 IR Inten    --    273.3496                45.2580               139.9697

 - Thermochemistry -
 -------------------
 Temperature   298.150 Kelvin.  Pressure   1.00000 Atm.
 Atom     1 has atomic number  6 and mass  12.00000

 Molecular mass:    50.01565 amu.
 Principal axes and moments of inertia in atomic units:
                           1         2         3
     Eigenvalues --    31.53189 333.88917 365.42106
           X           -0.17956   0.98375   0.00000
           Y            0.98375   0.17956   0.00000
           Z           -0.00000  -0.00000   1.00000
 This molecule is an asymmetric top.
 Rotational symmetry number  1.
 Rotational temperatures (Kelvin)      2.74686     0.25941     0.23702
 Rotational constants (GHZ):          57.23543     5.40521     4.93880
 Zero-point vibrational energy      93224.5 (Joules/Mol)
                                   22.28119 (Kcal/Mol)
 Warning -- explicit consideration of   3 degrees of freedom as
           vibrations may cause significant error
 Vibrational temperatures:    315.42   472.79   819.78  1004.93  1124.47
          (Kelvin)           1205.83  1513.45  1774.96  1893.77  3019.46
                             4420.41  4859.38

 Zero-point correction=                           0.035507 (Hartree/Particle)
 Thermal correction to Energy=                    0.039755
 Thermal correction to Enthalpy=                  0.040699
 Thermal correction to Gibbs Free Energy=         0.008456
 Sum of electronic and zero-point Energies=           -152.994142
 Sum of electronic and thermal Energies=              -152.989894
 Sum of electronic and thermal Enthalpies=            -152.988950
 Sum of electronic and thermal Free Energies=         -153.021193

                     E (Thermal)             CV                S
                      KCal/Mol        Cal/Mol-Kelvin    Cal/Mol-Kelvin
 Total                   24.947             13.248             67.861
 Electronic               0.000              0.000              2.755
 Translational            0.889              2.981             37.653
 Rotational               0.889              2.981             22.869
 Vibrational             23.169              7.287              4.585
 Vibration     1          0.647              1.812              1.965
 Vibration     2          0.712              1.618              1.267
 Vibration     3          0.926              1.097              0.505

 Optimization completed.
    -- Stationary point found.
 Normal termination of Gaussian 09 at Thu Jan 24 15:43:01 2019.
