 Gaussian 09, Revision D.01,
 Gaussian 09:  ES64L-G09RevD.01 24-Apr-2013

 ---------------------------
 #p b3lyp/6-311++g(d,p) freq
 ---------------------------

 ---
 min
 ---
 Symbolic Z-matrix:
 Charge =  1 Multiplicity = 2

                         Standard orientation:
 ---------------------------------------------------------------------
 Center     Atomic      Atomic             Coordinates (Angstroms)
 Number     Number       Type             X           Y           Z
 ---------------------------------------------------------------------
      1          6           0       -1.173649    0.051876    0.000000
      2          6           0        1.204586    0.129836   -0.000000
      3          6           0       -0.000000    0.775840   -0.000000
      4          6           0        2.298952   -0.419448   -0.000000
      5          1           0        3.256692   -0.899405   -0.000000
      6          1           0       -0.098401    1.861782   -0.000000
      7          8           0       -2.142203   -0.523875    0.000000
 ---------------------------------------------------------------------

 SCF Done:  E(UB3LYP) =  -228.490557367     A.U. after   16 cycles

 The electronic state is 2-A".
 Alpha  occ. eigenvalues --  -19.48966 -10.58830 -10.49657 -10.45595 -10.44846
 Alpha  occ. eigenvalues --   -1.42653  -1.09880  -1.00812  -0.85875  -0.79413
 Alpha  occ. eigenvalues --   -0.77094  -0.75801  -0.74782  -0.70415  -0.60808
 Alpha  occ. eigenvalues --   -0.54013  -0.50070
 Alpha virt. eigenvalues --   -0.30141  -0.26453  -0.21449  -0.18276  -0.14430
 Alpha virt. eigenvalues --   -0.12495  -0.11984  -0.10757  -0.10035  -0.07363
 Alpha virt. eigenvalues --   -0.06624  -0.05581  -0.05480  -0.04766  -0.04246

  Beta  occ. eigenvalues --  -19.48550 -10.58789 -10.49091 -10.44999 -10.44731
  Beta  occ. eigenvalues --   -1.41991  -1.08556  -0.98720  -0.85154  -0.78823
  Beta  occ. eigenvalues --   -0.76666  -0.75138  -0.72679  -0.70075  -0.57141
  Beta  occ. eigenvalues --   -0.53440
  Beta virt. eigenvalues --   -0.40401  -0.29900  -0.23568  -0.21090  -0.17974
  Beta virt. eigenvalues --   -0.12317  -0.12292  -0.11863  -0.10487  -0.09390
  Beta virt. eigenvalues --   -0.07098  -0.06368  -0.05347  -0.04862  -0.04580

 Mulliken charges and spin densities:
               1          2
     1  C    0.217357   0.037425
     2  C    1.598519  -0.070646
     3  C    0.422900   0.436074
     4  C   -1.786317   0.489683
     5  H    0.226939  -0.019926
     6  H    0.289398  -0.019184
     7  O    0.031202   0.146574
 Sum of Mulliken charges =   1.00000   1.00000

 Dipole moment (field-independent basis, Debye):
    X=              1.9895    Y=              0.8435    Z=             -0.0000  Tot=              2.1610
 Quadrupole moment (field-independent basis, Debye-Ang):
   XX=             -7.6613   YY=            -20.9467   ZZ=            -25.9530
   XY=             -4.8633   XZ=             -0.0000   YZ=             -0.0000

  Exact polarizability:  81.045  -6.042  32.123   0.001  -0.000  20.612
 Approx polarizability: 140.059 -12.031  51.261  -0.000  -0.000  27.601

                      1                      2                      3
                     A'                     A"                     A'
 Frequencies --    133.9359               358.1095               372.7006
 Red. masses --      5.9909                 2.4742                 5.8509
 Frc consts  --      0.0633                 0.1869                 0.4788
 IR Inten    --      1.8020                21.8007                18.9930

                      4                      5                      6
                     A"                     A'                     A"
 Frequencies --    458.7636               641.0230               694.2210
 Red. masses --      5.0081                 9.6772                 1.5063
 Frc consts  --      0.6210                 2.3429                 0.4277
 IR Inten    --      5.2507                 6.3054                 1.0379

                      7                      8                      9
                     A"                     A'                     A'
 Frequencies --    707.0423               730.1911               980.8730
 Red. masses --      1.7488                 1.2534                 7.4890
 Frc consts  --      0.5151                 0.3938                 4.2452
 IR Inten    --     52.8030                39.9128                 1.7994

                     10                     11                     12
                     A'                     A'                     A'
 Frequencies --   1138.7918              1374.3665              2093.1365
 Red. masses --      1.5748                 2.6389                 6.6085
 Frc consts  --      1.2033                 2.9368                17.0587
 IR Inten    --      1.0298                35.9692               131.0424

                     13                     14                     15
                     A'                     A'                     A'
 Frequencies --   2300.0969              3125.4096              3394.7388
 Red. masses --     13.0250                 1.0878                 1.1504
 Frc consts  --     40.5994                 6.2603                 7.8112
 IR Inten    --    608.8128                78.3201               137.4683

 - Thermochemistry -
 -------------------
 Temperature   298.150 Kelvin.  Pressure   1.00000 Atm.
 Atom     1 has atomic number  6 and mass  12.00000

 Molecular mass:    66.01056 amu.
 Principal axes and moments of inertia in atomic units:
                           1         2         3
     Eigenvalues --    64.77188 647.90478 712.67667
           X            0.99965  -0.02661   0.00000
           Y            0.02661   0.99965   0.00000
           Z           -0.00000  -0.00000   1.00000
 This molecule is an asymmetric top.
 Rotational symmetry number  1.
 Rotational temperatures (Kelvin)      1.33721     0.13368     0.12153
 Rotational constants (GHZ):          27.86303     2.78550     2.53234
 Zero-point vibrational energy     110674.9 (Joules/Mol)
                                   26.45194 (Kcal/Mol)
 Warning -- explicit consideration of   4 degrees of freedom as
           vibrations may cause significant error
 Vibrational temperatures:    192.70   515.24   536.23   660.06   922.29
          (Kelvin)            998.83  1017.27  1050.58  1411.26  1638.47
                             1977.40  3011.55  3309.32  4496.76  4884.27

 Zero-point correction=                           0.042154 (Hartree/Particle)
 Thermal correction to Energy=                    0.047138
 Thermal correction to Enthalpy=                  0.048083
 Thermal correction to Gibbs Free Energy=         0.013843
 Sum of electronic and zero-point Energies=           -228.448404
 Sum of electronic and thermal Energies=              -228.443419
 Sum of electronic and thermal Enthalpies=            -228.442475
 Sum of electronic and thermal Free Energies=         -228.476715

                     E (Thermal)             CV                S
                      KCal/Mol        Cal/Mol-Kelvin    Cal/Mol-Kelvin
 Total                   29.580             16.459             72.064
 Electronic               0.000              0.000              1.377
 Translational            0.889              2.981             38.480
 Rotational               0.889              2.981             24.906
 Vibrational             27.802             10.497              7.300
 Vibration     1          0.613              1.919              2.889
 Vibration     2          0.733              1.559              1.130
 Vibration     3          0.744              1.528              1.069
 Vibration     4          0.817              1.342              0.770

 Optimization completed.
    -- Stationary point found.
 Normal termination of Gaussian 09 at Thu Jan 24 15:47:31 2019.
