 Gaussian 09, Revision D.01,
 Gaussian 09:  ES64L-G09RevD.01 24-Apr-2013

 ---------------------------
 #p b3lyp/6-311++g(d,p) freq
 ---------------------------

 ---
 min
 ---
 Symbolic Z-matrix:
 Charge =  1 Multiplicity = 4

                         Standard orientation:
 ---------------------------------------------------------------------
 Center     Atomic      Atomic             Coordinates (Angstroms)
 Number     Number       Type             X           Y           Z
 ---------------------------------------------------------------------
      1          6           0       -1.666078   -0.653139   -0.016473
      2          6           0       -0.636212    0.479326   -0.005493
      3          6           0        0.726886    0.103553    0.008279
      4          6           0        1.894298   -0.277862   -0.005665
      5          1           0       -0.930736    1.147867   -0.833781
      6          1           0       -0.982626    0.940862    0.949899
 ---------------------------------------------------------------------

 SCF Done:  E(UB3LYP) =  -152.910885540     A.U. after   26 cycles

 The electronic state is 4-A.
 Alpha  occ. eigenvalues --  -10.56783 -10.52996 -10.50042 -10.48389  -1.10641
 Alpha  occ. eigenvalues --   -1.03449  -0.86926  -0.77121  -0.73000  -0.66060
 Alpha  occ. eigenvalues --   -0.62956  -0.57299  -0.56645  -0.50624
 Alpha virt. eigenvalues --   -0.38311  -0.25495  -0.23883  -0.17375  -0.12645
 Alpha virt. eigenvalues --   -0.11556  -0.10886  -0.08731  -0.07149  -0.07046
 Alpha virt. eigenvalues --   -0.06728  -0.04622  -0.04344  -0.02401  -0.01658

  Beta  occ. eigenvalues --  -10.54455 -10.50102 -10.49832 -10.48058  -1.08705
  Beta  occ. eigenvalues --   -0.99149  -0.82706  -0.74605  -0.72656  -0.55334
  Beta  occ. eigenvalues --   -0.54417
  Beta virt. eigenvalues --   -0.45520  -0.42948  -0.35493  -0.32004  -0.21189
  Beta virt. eigenvalues --   -0.20172  -0.16707  -0.12313  -0.10773  -0.10109
  Beta virt. eigenvalues --   -0.08219  -0.06974  -0.06363  -0.05541  -0.04225

 Mulliken charges and spin densities:
               1          2
     1  C    0.334756   1.365894
     2  C   -0.447263   0.103136
     3  C    0.551439   0.365246
     4  C    0.012726   1.127282
     5  H    0.277967   0.028036
     6  H    0.270375   0.010407
 Sum of Mulliken charges =   1.00000   3.00000

 Dipole moment (field-independent basis, Debye):
    X=             -0.4490    Y=              0.8612    Z=              0.1094  Tot=              0.9773
 Quadrupole moment (field-independent basis, Debye-Ang):
   XX=            -10.0067   YY=            -18.8128   ZZ=            -19.3157
   XY=             -2.0620   XZ=             -0.2649   YZ=              0.2552

  Exact polarizability:  97.611   8.107  31.329  -0.557  -0.325  28.350
 Approx polarizability: 203.787  23.347  50.062  -0.037   1.241  36.008

                      1                      2                      3
                      A                      A                      A
 Frequencies --    215.7999               226.9572               288.6801
 Red. masses --      4.2025                 4.9330                 1.7408
 Frc consts  --      0.1153                 0.1497                 0.0855
 IR Inten    --      0.9162                 4.1343                12.5951

                      4                      5                      6
                      A                      A                      A
 Frequencies --    550.0736               776.8472              1006.2846
 Red. masses --      9.4154                 7.1204                 3.6766
 Frc consts  --      1.6785                 2.5318                 2.1935
 IR Inten    --      5.2870                13.4444                 3.7091

                      7                      8                      9
                      A                      A                      A
 Frequencies --   1051.9225              1132.9509              1320.1714
 Red. masses --      1.2075                 1.1995                 1.2015
 Frc consts  --      0.7872                 0.9071                 1.2338
 IR Inten    --     16.0372                53.6862                47.1348

                     10                     11                     12
                      A                      A                      A
 Frequencies --   2106.3300              2873.9457              2974.5532
 Red. masses --     11.8091                 1.0692                 1.0820
 Frc consts  --     30.8688                 5.2030                 5.6405
 IR Inten    --    406.7381               102.4642                83.5581

 - Thermochemistry -
 -------------------
 Temperature   298.150 Kelvin.  Pressure   1.00000 Atm.
 Atom     1 has atomic number  6 and mass  12.00000

 Molecular mass:    50.01565 amu.
 Principal axes and moments of inertia in atomic units:
                           1         2         3
     Eigenvalues --    45.08746 325.00276 358.56316
           X            0.99965  -0.02625  -0.00169
           Y            0.02624   0.99964  -0.00578
           Z            0.00185   0.00573   0.99998
 This molecule is an asymmetric top.
 Rotational symmetry number  1.
 Rotational temperatures (Kelvin)      1.92102     0.26650     0.24156
 Rotational constants (GHZ):          40.02756     5.55300     5.03326
 Zero-point vibrational energy      86875.9 (Joules/Mol)
                                   20.76384 (Kcal/Mol)
 Warning -- explicit consideration of   4 degrees of freedom as
           vibrations may cause significant error
 Vibrational temperatures:    310.49   326.54   415.35   791.43  1117.71
          (Kelvin)           1447.82  1513.48  1630.06  1899.43  3030.54
                             4134.96  4279.71

 Zero-point correction=                           0.033089 (Hartree/Particle)
 Thermal correction to Energy=                    0.037786
 Thermal correction to Enthalpy=                  0.038730
 Thermal correction to Gibbs Free Energy=         0.005479
 Sum of electronic and zero-point Energies=           -152.877796
 Sum of electronic and thermal Energies=              -152.873100
 Sum of electronic and thermal Enthalpies=            -152.872155
 Sum of electronic and thermal Free Energies=         -152.905407

                     E (Thermal)             CV                S
                      KCal/Mol        Cal/Mol-Kelvin    Cal/Mol-Kelvin
 Total                   23.711             14.197             69.983
 Electronic               0.000              0.000              2.755
 Translational            0.889              2.981             37.653
 Rotational               0.889              2.981             23.178
 Vibrational             21.934              8.235              6.397
 Vibration     1          0.645              1.817              1.994
 Vibration     2          0.651              1.800              1.903
 Vibration     3          0.685              1.695              1.482
 Vibration     4          0.905              1.140              0.544

 Optimization completed.
    -- Stationary point found.
 Normal termination of Gaussian 09 at Thu Jan 24 15:43:19 2019.
