 Gaussian 09, Revision D.01,
 Gaussian 09:  ES64L-G09RevD.01 24-Apr-2013

 ---------------------------
 #p b3lyp/6-311++g(d,p) freq
 ---------------------------

 ---
 min
 ---
 Symbolic Z-matrix:
 Charge =  1 Multiplicity = 2

                         Standard orientation:
 ---------------------------------------------------------------------
 Center     Atomic      Atomic             Coordinates (Angstroms)
 Number     Number       Type             X           Y           Z
 ---------------------------------------------------------------------
      1          6           0        0.133986    1.035674   -0.000349
      2          6           0        0.499072   -1.033284    0.000013
      3          8           0        1.169577    0.112005    0.000201
      4          6           0       -0.759676   -0.979827   -0.000154
      5          6           0       -1.148470    0.342979    0.000031
      6          1           0        0.411374    2.085601    0.000119
      7          1           0       -2.117465    0.825109    0.001027
 ---------------------------------------------------------------------

 SCF Done:  E(UB3LYP) =  -228.318161886     A.U. after   21 cycles

 The electronic state is 2-A.
 Alpha  occ. eigenvalues --  -19.49329 -10.56201 -10.54597 -10.50607 -10.48467
 Alpha  occ. eigenvalues --   -1.42129  -1.11831  -1.03288  -0.89559  -0.83124
 Alpha  occ. eigenvalues --   -0.79102  -0.75573  -0.71745  -0.67611  -0.58436
 Alpha  occ. eigenvalues --   -0.54406  -0.54334
 Alpha virt. eigenvalues --   -0.42512  -0.30463  -0.19426  -0.16084  -0.14390
 Alpha virt. eigenvalues --   -0.12730  -0.10991  -0.10894  -0.09556  -0.08257
 Alpha virt. eigenvalues --   -0.06087  -0.05862  -0.05251  -0.05008  -0.02705

  Beta  occ. eigenvalues --  -19.49492 -10.55292 -10.54072 -10.50447 -10.48309
  Beta  occ. eigenvalues --   -1.41889  -1.11065  -1.01199  -0.88877  -0.82202
  Beta  occ. eigenvalues --   -0.78676  -0.73462  -0.71467  -0.67371  -0.57327
  Beta  occ. eigenvalues --   -0.53729
  Beta virt. eigenvalues --   -0.43379  -0.41774  -0.26160  -0.16885  -0.15937
  Beta virt. eigenvalues --   -0.13803  -0.12613  -0.10678  -0.10504  -0.09331
  Beta virt. eigenvalues --   -0.08192  -0.05653  -0.05282  -0.05024  -0.04593

 Mulliken charges and spin densities:
               1          2
     1  C    0.069154   0.573748
     2  C    0.093589   0.334886
     3  O    0.074718  -0.068160
     4  C    0.389044   0.056820
     5  C   -0.196143   0.138258
     6  H    0.300009  -0.029865
     7  H    0.269628  -0.005687
 Sum of Mulliken charges =   1.00000   1.00000

 Dipole moment (field-independent basis, Debye):
    X=             -1.6074    Y=              1.7068    Z=              0.0000  Tot=              2.3446
 Quadrupole moment (field-independent basis, Debye-Ang):
   XX=            -20.7379   YY=            -17.1505   ZZ=            -25.8742
   XY=             -1.2883   XZ=             -0.0028   YZ=              0.0017

  Exact polarizability:  47.960  -2.015  45.654  -0.001   0.005  22.380
 Approx polarizability: 127.431  -8.602  77.516   0.007   0.004  30.723

                      1                      2                      3
                      A                      A                      A
 Frequencies --    255.1981               386.6759               471.3689
 Red. masses --      8.1909                 2.3081                10.8859
 Frc consts  --      0.3143                 0.2033                 1.4251
 IR Inten    --      1.3350                 6.8814               157.7574

                      4                      5                      6
                      A                      A                      A
 Frequencies --    689.8330               774.4920               875.7561
 Red. masses --      1.4574                10.0091                 1.4702
 Frc consts  --      0.4086                 3.5374                 0.6643
 IR Inten    --      6.0729                 9.6403                 1.7873

                      7                      8                      9
                      A                      A                      A
 Frequencies --    946.5920               979.7062              1133.1224
 Red. masses --      4.9083                 2.3833                 4.3867
 Frc consts  --      2.5912                 1.3478                 3.3185
 IR Inten    --      4.3115                 4.4416                70.3119

                     10                     11                     12
                      A                      A                      A
 Frequencies --   1224.8149              1295.0533              1395.1502
 Red. masses --      1.5767                 1.9631                 3.5560
 Frc consts  --      1.3936                 1.9399                 4.0780
 IR Inten    --     29.5640                24.2740                19.9081

                     13                     14                     15
                      A                      A                      A
 Frequencies --   1797.3500              3209.2006              3234.9217
 Red. masses --     11.4843                 1.0966                 1.1020
 Frc consts  --     21.8585                 6.6540                 6.7943
 IR Inten    --     97.6512                32.5799                25.4750

 - Thermochemistry -
 -------------------
 Temperature   298.150 Kelvin.  Pressure   1.00000 Atm.
 Atom     1 has atomic number  6 and mass  12.00000

 Molecular mass:    66.01056 amu.
 Principal axes and moments of inertia in atomic units:
                           1         2         3
     Eigenvalues --   155.90076 187.79024 343.69097
           X            0.99419  -0.10761  -0.00004
           Y            0.10761   0.99419   0.00003
           Z            0.00004  -0.00003   1.00000
 This molecule is an asymmetric top.
 Rotational symmetry number  1.
 Rotational temperatures (Kelvin)      0.55557     0.46123     0.25201
 Rotational constants (GHZ):          11.57622     9.61041     5.25106
 Zero-point vibrational energy     111666.8 (Joules/Mol)
                                   26.68901 (Kcal/Mol)
 Warning -- explicit consideration of   3 degrees of freedom as
           vibrations may cause significant error
 Vibrational temperatures:    367.17   556.34   678.19   992.51  1114.32
          (Kelvin)           1260.02  1361.93  1409.58  1630.31  1762.23
                             1863.29  2007.31  2585.98  4617.32  4654.33

 Zero-point correction=                           0.042532 (Hartree/Particle)
 Thermal correction to Energy=                    0.046817
 Thermal correction to Enthalpy=                  0.047761
 Thermal correction to Gibbs Free Energy=         0.015365
 Sum of electronic and zero-point Energies=           -228.275630
 Sum of electronic and thermal Energies=              -228.271345
 Sum of electronic and thermal Enthalpies=            -228.270401
 Sum of electronic and thermal Free Energies=         -228.302797

                     E (Thermal)             CV                S
                      KCal/Mol        Cal/Mol-Kelvin    Cal/Mol-Kelvin
 Total                   29.378             14.170             68.182
 Electronic               0.000              0.000              1.377
 Translational            0.889              2.981             38.480
 Rotational               0.889              2.981             23.824
 Vibrational             27.600              8.208              4.501
 Vibration     1          0.666              1.754              1.694
 Vibration     2          0.755              1.499              1.013
 Vibration     3          0.828              1.314              0.734

 Normal termination of Gaussian 09 at Thu Jan 24 15:49:12 2019.
