 Gaussian 09, Revision D.01,
 Gaussian 09:  ES64L-G09RevD.01 24-Apr-2013

 ---------------------------
 #p b3lyp/6-311++g(d,p) freq
 ---------------------------

 ---
 min
 ---
 Symbolic Z-matrix:
 Charge =  1 Multiplicity = 4

                         Standard orientation:
 ---------------------------------------------------------------------
 Center     Atomic      Atomic             Coordinates (Angstroms)
 Number     Number       Type             X           Y           Z
 ---------------------------------------------------------------------
      1          6           0        0.000000    0.000000   -1.773469
      2          6           0        0.000000    0.000000   -0.421970
      3          6           0        0.000000    0.000000    0.846751
      4          6           0        0.000000    0.000000    2.126794
      5          1           0        0.000000    0.935820   -2.334323
      6          1           0       -0.000000   -0.935820   -2.334323
 ---------------------------------------------------------------------

 SCF Done:  E(UB3LYP) =  -153.049269858     A.U. after   15 cycles

 The electronic state is 4-A2.
 Alpha  occ. eigenvalues --  -10.54956 -10.50209 -10.48737 -10.48412  -1.09695
 Alpha  occ. eigenvalues --   -1.04117  -0.93690  -0.76480  -0.72293  -0.67442
 Alpha  occ. eigenvalues --   -0.64037  -0.61695  -0.55026  -0.47738
 Alpha virt. eigenvalues --   -0.34962  -0.18306  -0.16471  -0.13784  -0.12610
 Alpha virt. eigenvalues --   -0.11154  -0.09753  -0.08405  -0.06720  -0.05675
 Alpha virt. eigenvalues --   -0.05312  -0.04016  -0.02650  -0.01977  -0.00607

  Beta  occ. eigenvalues --  -10.51076 -10.49586 -10.48486 -10.47738  -1.06972
  Beta  occ. eigenvalues --   -0.99887  -0.90218  -0.74904  -0.70500  -0.60231
  Beta  occ. eigenvalues --   -0.57491
  Beta virt. eigenvalues --   -0.43202  -0.42553  -0.33518  -0.28141  -0.16087
  Beta virt. eigenvalues --   -0.14013  -0.11952  -0.11049  -0.10335  -0.09273
  Beta virt. eigenvalues --   -0.07336  -0.05313  -0.05190  -0.03544  -0.03339

 Mulliken charges and spin densities:
               1          2
     1  C   -0.326681   0.461958
     2  C    0.426988   0.628795
     3  C    0.385992   0.015063
     4  C    0.038845   1.869522
     5  H    0.237429   0.012331
     6  H    0.237429   0.012331
 Sum of Mulliken charges =   1.00000   3.00000

 Dipole moment (field-independent basis, Debye):
    X=             -0.0000    Y=              0.0000    Z=             -1.1295  Tot=              1.1295
 Quadrupole moment (field-independent basis, Debye-Ang):
   XX=            -20.5811   YY=            -19.8839   ZZ=              0.6944
   XY=              0.0000   XZ=              0.0000   YZ=              0.0000

  Exact polarizability:  17.069  -0.000  20.635  -0.000  -0.000  83.112
 Approx polarizability:  22.517   0.000  25.845   0.000  -0.000 166.174

                      1                      2                      3
                     B2                     B1                     B2
 Frequencies --    145.3905               218.6823               360.2597
 Red. masses --      3.5897                 5.6569                11.7613
 Frc consts  --      0.0447                 0.1594                 0.8994
 IR Inten    --     13.1053                 9.9470                 1.1452

                      4                      5                      6
                     B1                     A1                     B2
 Frequencies --    506.4665               915.2360               998.3598
 Red. masses --      9.2019                 5.4626                 1.3339
 Frc consts  --      1.3907                 2.6960                 0.7834
 IR Inten    --      0.0636                 8.5561                 0.0003

                      7                      8                      9
                     B1                     A1                     A1
 Frequencies --   1027.4632              1432.5734              1534.4041
 Red. masses --      1.3484                 1.2196                 6.3302
 Frc consts  --      0.8387                 1.4747                 8.7811
 IR Inten    --     23.7412                36.0601                58.5557

                     10                     11                     12
                     A1                     A1                     B2
 Frequencies --   2019.7980              3078.3934              3177.7980
 Red. masses --     11.5897                 1.0520                 1.1191
 Frc consts  --     27.8572                 5.8737                 6.6587
 IR Inten    --      0.0005                41.7702                31.1638

 - Thermochemistry -
 -------------------
 Temperature   298.150 Kelvin.  Pressure   1.00000 Atm.
 Atom     1 has atomic number  6 and mass  12.00000

 Molecular mass:    50.01565 amu.
 Principal axes and moments of inertia in atomic units:
                           1         2         3
     Eigenvalues --     6.30373 404.65988 410.96361
           X            0.00000   0.00000   1.00000
           Y            0.00000   1.00000   0.00000
           Z            1.00000   0.00000   0.00000
 This molecule is an asymmetric top.
 Rotational symmetry number  2.
 Rotational temperatures (Kelvin)     13.74009     0.21404     0.21076
 Rotational constants (GHZ):         286.29741     4.45990     4.39149
 Zero-point vibrational energy      92201.1 (Joules/Mol)
                                   22.03660 (Kcal/Mol)
 Warning -- explicit consideration of   4 degrees of freedom as
           vibrations may cause significant error
 Vibrational temperatures:    209.18   314.63   518.33   728.69  1316.82
          (Kelvin)           1436.42  1478.29  2061.15  2207.66  2906.04
                             4429.12  4572.14

 Zero-point correction=                           0.035118 (Hartree/Particle)
 Thermal correction to Energy=                    0.039835
 Thermal correction to Enthalpy=                  0.040780
 Thermal correction to Gibbs Free Energy=         0.008752
 Sum of electronic and zero-point Energies=           -153.014152
 Sum of electronic and thermal Energies=              -153.009434
 Sum of electronic and thermal Enthalpies=            -153.008490
 Sum of electronic and thermal Free Energies=         -153.040518

                     E (Thermal)             CV                S
                      KCal/Mol        Cal/Mol-Kelvin    Cal/Mol-Kelvin
 Total                   24.997             13.851             67.408
 Electronic               0.000              0.000              2.755
 Translational            0.889              2.981             37.653
 Rotational               0.889              2.981             20.199
 Vibrational             23.220              7.889              6.801
 Vibration     1          0.617              1.908              2.732
 Vibration     2          0.646              1.813              1.970
 Vibration     3          0.735              1.554              1.121
 Vibration     4          0.862              1.236              0.642

 Optimization completed.
    -- Stationary point found.
 Normal termination of Gaussian 09 at Thu Jan 24 15:42:11 2019.
