 Gaussian 09, Revision D.01,
 Gaussian 09:  ES64L-G09RevD.01 24-Apr-2013

 ---------------------------
 #p b3lyp/6-311++g(d,p) freq
 ---------------------------

 ---
 min
 ---
 Symbolic Z-matrix:
 Charge =  0 Multiplicity = 1

                         Standard orientation:
 ---------------------------------------------------------------------
 Center     Atomic      Atomic             Coordinates (Angstroms)
 Number     Number       Type             X           Y           Z
 ---------------------------------------------------------------------
      1          6           0        0.000000    0.723938    0.327825
      2          6           0       -0.000000   -0.723938    0.327825
      3          6           0       -0.000000   -1.693701   -0.541787
      4          6           0        0.000000    1.693701   -0.541787
      5          1           0        0.000000    1.279654    1.283768
      6          1           0       -0.000000   -1.279654    1.283768
 ---------------------------------------------------------------------

 SCF Done:  E(RB3LYP) =  -153.368959741     A.U. after   11 cycles

 The electronic state is 1-A1.
 Alpha  occ. eigenvalues --  -10.26182 -10.26181 -10.22870 -10.22836  -0.86604
 Alpha  occ. eigenvalues --   -0.79190  -0.62243  -0.52734  -0.48658  -0.38264
 Alpha  occ. eigenvalues --   -0.32739  -0.32168  -0.28658
 Alpha virt. eigenvalues --   -0.12970  -0.11752  -0.06326  -0.01521   0.01441
 Alpha virt. eigenvalues --    0.04525   0.05267   0.05496   0.06290   0.07842
 Alpha virt. eigenvalues --    0.08769   0.09187   0.10043   0.11005   0.11611

 Mulliken charges:
               1
     1  C   -0.053979
     2  C   -0.053979
     3  C   -0.151447
     4  C   -0.151447
     5  H    0.205426
     6  H    0.205426
 Sum of Mulliken charges =  -0.00000

 Dipole moment (field-independent basis, Debye):
    X=             -0.0000    Y=              0.0000    Z=              3.1758  Tot=              3.1758
 Quadrupole moment (field-independent basis, Debye-Ang):
   XX=            -26.4334   YY=            -31.4285   ZZ=            -21.8639
   XY=             -0.0000   XZ=              0.0000   YZ=             -0.0000

  Exact polarizability:  31.051  -0.000  64.027   0.000   0.000  41.637
 Approx polarizability:  41.911   0.000 100.806   0.000  -0.000  69.838

                      1                      2                      3
                     A2                     A1                     B2
 Frequencies --    101.7660               147.6196               244.7441
 Red. masses --      1.6327                10.6041                 4.8061
 Frc consts  --      0.0100                 0.1361                 0.1696
 IR Inten    --      0.0000                11.6127                48.8753

                      4                      5                      6
                     B1                     A2                     A1
 Frequencies --    509.5404               656.4023               862.4379
 Red. masses --      1.4266                 2.3382                 1.9394
 Frc consts  --      0.2182                 0.5936                 0.8499
 IR Inten    --     35.6982                 0.0000                 0.8686

                      7                      8                      9
                     A1                     B2                     B2
 Frequencies --    950.2778              1022.2010              1737.0596
 Red. masses --      1.7358                 1.2873                 7.3661
 Frc consts  --      0.9235                 0.7925                13.0954
 IR Inten    --      2.6505                 4.5227                41.7345

                     10                     11                     12
                     A1                     B2                     A1
 Frequencies --   1796.9717              2991.4977              3001.5265
 Red. masses --     11.5355                 1.0757                 1.0809
 Frc consts  --     21.9467                 5.6716                 5.7376
 IR Inten    --     70.9023                 2.5807                76.7346

 - Thermochemistry -
 -------------------
 Temperature   298.150 Kelvin.  Pressure   1.00000 Atm.
 Atom     1 has atomic number  6 and mass  12.00000

 Molecular mass:    50.01565 amu.
 Principal axes and moments of inertia in atomic units:
                           1         2         3
     Eigenvalues --    45.76755 302.56075 348.32831
           X           -0.00000  -0.00000   1.00000
           Y            1.00000   0.00000  -0.00000
           Z           -0.00000   1.00000   0.00000
 This molecule is an asymmetric top.
 Rotational symmetry number  2.
 Rotational temperatures (Kelvin)      1.89247     0.28627     0.24866
 Rotational constants (GHZ):          39.43277     5.96489     5.18115
 Zero-point vibrational energy      83870.5 (Joules/Mol)
                                   20.04552 (Kcal/Mol)
 Warning -- explicit consideration of   4 degrees of freedom as
           vibrations may cause significant error
 Vibrational temperatures:    146.42   212.39   352.13   733.11   944.42
          (Kelvin)           1240.85  1367.24  1470.72  2499.24  2585.44
                             4304.09  4318.52

 Zero-point correction=                           0.031945 (Hartree/Particle)
 Thermal correction to Energy=                    0.037142
 Thermal correction to Enthalpy=                  0.038086
 Thermal correction to Gibbs Free Energy=         0.005480
 Sum of electronic and zero-point Energies=           -153.337015
 Sum of electronic and thermal Energies=              -153.331818
 Sum of electronic and thermal Enthalpies=            -153.330873
 Sum of electronic and thermal Free Energies=         -153.363480

                     E (Thermal)             CV                S
                      KCal/Mol        Cal/Mol-Kelvin    Cal/Mol-Kelvin
 Total                   23.307             15.130             68.626
 Electronic               0.000              0.000              0.000
 Translational            0.889              2.981             37.653
 Rotational               0.889              2.981             21.716
 Vibrational             21.530              9.168              9.257
 Vibration     1          0.604              1.948              3.420
 Vibration     2          0.617              1.905              2.703
 Vibration     3          0.660              1.771              1.768
 Vibration     4          0.865              1.229              0.635

 Optimization completed.
    -- Stationary point found.

 1\1\ CITASK-GV1547\Freq\RB3LYP\6-311++G(d,p)\C4H2\EERD\04-Mar-2018\0\\
 #p b3lyp/6-311++g(d,p) freq\\min\\0,1\C,0.712771742,-0.1028494908,0.41
 18919681\C,-0.7238755677,-0.0349092884,0.5785437111\C,-1.764987566,0.3
 235629201,-0.117335787\C,1.5961439207,0.164612319,-0.5072285721\H,1.35
 0877879,-0.4729628131,1.23559332\H,-1.1885822328,-0.3528697097,1.53017
 18509\\Version=ES64L-G09RevD.01\State=1-A1\HF=-153.3689597\RMSD=1.781e
 -09\RMSF=1.730e-04\ZeroPoint=0.0319446\Thermal=0.0371422\Dipole=0.1133
 193,-0.4496672,1.1602063\DipoleDeriv=0.0889847,-0.1272344,0.3144228,-0

 Normal termination of Gaussian 09 at Sun Mar  4 21:07:19 2018.
