 Gaussian 09, Revision D.01,
 Gaussian 09:  ES64L-G09RevD.01 24-Apr-2013

 ---------------------------
 #p b3lyp/6-311++g(d,p) freq
 ---------------------------

 ---
 min
 ---
 Symbolic Z-matrix:
 Charge =  0 Multiplicity = 3

                         Standard orientation:
 ---------------------------------------------------------------------
 Center     Atomic      Atomic             Coordinates (Angstroms)
 Number     Number       Type             X           Y           Z
 ---------------------------------------------------------------------
      1          6           0        0.758775    0.071952    0.072211
      2          6           0       -0.576554    0.439850   -0.005937
      3          6           0       -1.589844   -0.448812   -0.000764
      4          6           0        1.989351   -0.246209   -0.045680
      5          1           0       -0.820698    1.506973   -0.069752
      6          1           0       -2.669670   -0.407658   -0.049227
 ---------------------------------------------------------------------

 SCF Done:  E(UB3LYP) =  -153.380808103     A.U. after   24 cycles

 The electronic state is 3-A.
 Alpha  occ. eigenvalues --  -10.27512 -10.25673 -10.20977 -10.20838  -0.86386
 Alpha  occ. eigenvalues --   -0.76935  -0.66179  -0.53898  -0.52853  -0.39631
 Alpha  occ. eigenvalues --   -0.31356  -0.30087  -0.29198  -0.29037
 Alpha virt. eigenvalues --   -0.09088  -0.02209   0.00649   0.01971   0.03735
 Alpha virt. eigenvalues --    0.04525   0.05668   0.06722   0.07490   0.08194
 Alpha virt. eigenvalues --    0.09208   0.10328   0.10886   0.11010   0.12016

  Beta  occ. eigenvalues --  -10.25920 -10.25334 -10.20416 -10.20267  -0.84507
  Beta  occ. eigenvalues --   -0.73597  -0.63419  -0.52120  -0.51290  -0.36558
  Beta  occ. eigenvalues --   -0.28289  -0.28209
  Beta virt. eigenvalues --   -0.18807  -0.13454  -0.05298  -0.01900   0.00822
  Beta virt. eigenvalues --    0.02565   0.04790   0.05110   0.06719   0.07112
  Beta virt. eigenvalues --    0.08052   0.08459   0.09631   0.10602   0.11268

 Mulliken charges and spin densities:
               1          2
     1  C    0.414625   0.252073
     2  C   -0.455787  -0.128507
     3  C   -0.148388   1.393221
     4  C   -0.184763   0.413713
     5  H    0.187491   0.075799
     6  H    0.186822  -0.006299
 Sum of Mulliken charges =  -0.00000   2.00000

 Dipole moment (field-independent basis, Debye):
    X=             -5.1407    Y=              1.3041    Z=              0.2278  Tot=              5.3084
 Quadrupole moment (field-independent basis, Debye-Ang):
   XX=            -27.1251   YY=            -23.8824   ZZ=            -24.1431
   XY=              0.9563   XZ=              1.1099   YZ=             -0.1545

  Exact polarizability:  96.537  -1.472  37.107   4.705  -0.678  29.815
 Approx polarizability: 139.837  -0.599  51.758  -0.252   0.050  38.350

                      1                      2                      3
                      A                      A                      A
 Frequencies --    188.0112               198.1482               479.4433
 Red. masses --      5.1332                 4.7169                 3.9197
 Frc consts  --      0.1069                 0.1091                 0.5309
 IR Inten    --     27.1821                24.8763                 0.4557

                      4                      5                      6
                      A                      A                      A
 Frequencies --    611.2097               809.7529               885.4265
 Red. masses --      1.3242                 1.5931                 1.4584
 Frc consts  --      0.2915                 0.6155                 0.6736
 IR Inten    --     68.7787                16.5781                 5.5682

                      7                      8                      9
                      A                      A                      A
 Frequencies --   1025.2386              1256.2855              1440.7933
 Red. masses --      3.2762                 1.3956                 4.6834
 Frc consts  --      2.0290                 1.2977                 5.7282
 IR Inten    --     11.4451                 3.5980                62.9741

                     10                     11                     12
                      A                      A                      A
 Frequencies --   1906.6045              3025.2939              3229.8801
 Red. masses --     11.7714                 1.0818                 1.0977
 Frc consts  --     25.2117                 5.8334                 6.7469
 IR Inten    --     45.6829                 3.1243                 2.1060

 - Thermochemistry -
 -------------------
 Temperature   298.150 Kelvin.  Pressure   1.00000 Atm.
 Atom     1 has atomic number  6 and mass  12.00000

 Molecular mass:    50.01565 amu.
 Principal axes and moments of inertia in atomic units:
                           1         2         3
     Eigenvalues --    28.76474 344.37896 372.47417
           X            0.99999  -0.00250   0.00206
           Y            0.00252   0.99994  -0.01111
           Z           -0.00203   0.01112   0.99994
 This molecule is an asymmetric top.
 Rotational symmetry number  1.
 Rotational temperatures (Kelvin)      3.01111     0.25151     0.23254
 Rotational constants (GHZ):          62.74144     5.24057     4.84528
 Zero-point vibrational energy      90055.4 (Joules/Mol)
                                   21.52376 (Kcal/Mol)
 Warning -- explicit consideration of   4 degrees of freedom as
           vibrations may cause significant error
 Vibrational temperatures:    270.51   285.09   689.81   879.39  1165.05
          (Kelvin)           1273.93  1475.09  1807.51  2072.98  2743.18
                             4352.72  4647.07

 Zero-point correction=                           0.034300 (Hartree/Particle)
 Thermal correction to Energy=                    0.038857
 Thermal correction to Enthalpy=                  0.039801
 Thermal correction to Gibbs Free Energy=         0.007166
 Sum of electronic and zero-point Energies=           -153.346508
 Sum of electronic and thermal Energies=              -153.341952
 Sum of electronic and thermal Enthalpies=            -153.341007
 Sum of electronic and thermal Free Energies=         -153.373642

                     E (Thermal)             CV                S
                      KCal/Mol        Cal/Mol-Kelvin    Cal/Mol-Kelvin
 Total                   24.383             13.750             68.685
 Electronic               0.000              0.000              2.183
 Translational            0.889              2.981             37.653
 Rotational               0.889              2.981             22.827
 Vibrational             22.605              7.788              6.022
 Vibration     1          0.633              1.856              2.247
 Vibration     2          0.637              1.842              2.150
 Vibration     3          0.836              1.296              0.712
 Vibration     4          0.970              1.008              0.431

 Optimization completed.
    -- Stationary point found.
 Normal termination of Gaussian 09 at Sun Mar  4 21:08:45 2018.
