 Gaussian 09, Revision D.01,
 Gaussian 09:  ES64L-G09RevD.01 24-Apr-2013

 ---------------------------
 #p b3lyp/6-311++g(d,p) freq
 ---------------------------

 ---
 min
 ---
 Symbolic Z-matrix:
 Charge =  1 Multiplicity = 2

                         Standard orientation:
 ---------------------------------------------------------------------
 Center     Atomic      Atomic             Coordinates (Angstroms)
 Number     Number       Type             X           Y           Z
 ---------------------------------------------------------------------
      1          6           0       -0.000000    0.706680    0.427596
      2          6           0       -0.000000   -0.706680    0.427596
      3          6           0       -0.000000   -1.525011   -0.656959
      4          6           0        0.000000    1.525011   -0.656959
      5          1           0       -0.000000    1.270072    1.376172
      6          1           0       -0.000000   -1.270072    1.376172
 ---------------------------------------------------------------------

 SCF Done:  E(UB3LYP) =  -152.998872002     A.U. after   15 cycles

 The electronic state is 2-A2.
 Alpha  occ. eigenvalues --  -10.56372 -10.56370 -10.50380 -10.50335  -1.14045
 Alpha  occ. eigenvalues --   -1.04491  -0.89026  -0.77864  -0.74875  -0.65353
 Alpha  occ. eigenvalues --   -0.58731  -0.57421  -0.55428
 Alpha virt. eigenvalues --   -0.38918  -0.38901  -0.34554  -0.21322  -0.17345
 Alpha virt. eigenvalues --   -0.13399  -0.12495  -0.11052  -0.09549  -0.07605
 Alpha virt. eigenvalues --   -0.06610  -0.06235  -0.04422  -0.03955  -0.02492

  Beta  occ. eigenvalues --  -10.55768 -10.55767 -10.50196 -10.50149  -1.12808
  Beta  occ. eigenvalues --   -1.02323  -0.88011  -0.77656  -0.74216  -0.61803
  Beta  occ. eigenvalues --   -0.57779  -0.56370
  Beta virt. eigenvalues --   -0.45433  -0.38184  -0.38138  -0.30337  -0.18237
  Beta virt. eigenvalues --   -0.17288  -0.13316  -0.12294  -0.10742  -0.09492
  Beta virt. eigenvalues --   -0.07393  -0.06551  -0.05818  -0.04076  -0.03874

 Mulliken charges and spin densities:
               1          2
     1  C   -0.082240   0.155434
     2  C   -0.082240   0.155434
     3  C    0.264830   0.354266
     4  C    0.264830   0.354266
     5  H    0.317410  -0.009701
     6  H    0.317410  -0.009701
 Sum of Mulliken charges =   1.00000   1.00000

 Dipole moment (field-independent basis, Debye):
    X=             -0.0000    Y=             -0.0000    Z=              2.9129  Tot=              2.9129
 Quadrupole moment (field-independent basis, Debye-Ang):
   XX=            -21.8994   YY=            -14.8380   ZZ=            -17.6568
   XY=              0.0000   XZ=             -0.0000   YZ=             -0.0000

  Exact polarizability:  26.483  -0.000  61.847   0.000  -0.000  36.106
 Approx polarizability:  34.889   0.000 107.500  -0.000  -0.000  60.528

                      1                      2                      3
                     A1                     A2                     B2
 Frequencies --    159.3816               229.6832               260.8673
 Red. masses --     11.2596                 2.9251                 6.3073
 Frc consts  --      0.1685                 0.0909                 0.2529
 IR Inten    --      7.9633                 0.0000                24.8816

                      4                      5                      6
                     B1                     A2                     A1
 Frequencies --    534.6653               855.5715               978.4911
 Red. masses --      1.3299                 1.4449                 1.2255
 Frc consts  --      0.2240                 0.6231                 0.6913
 IR Inten    --     12.6241                 0.0000                 4.2675

                      7                      8                      9
                     B2                     A1                     B2
 Frequencies --   1023.9099              1035.8592              1493.0354
 Red. masses --      1.4152                 3.4963                 4.0541
 Frc consts  --      0.8742                 2.2104                 5.3246
 IR Inten    --     17.5909                 4.8997               313.1593

                     10                     11                     12
                     A1                     B2                     A1
 Frequencies --   1596.2963              3004.3350              3018.3626
 Red. masses --     11.5871                 1.0779                 1.0861
 Frc consts  --     17.3961                 5.7322                 5.8298
 IR Inten    --    125.3388                21.9530               217.6615

 - Thermochemistry -
 -------------------
 Temperature   298.150 Kelvin.  Pressure   1.00000 Atm.
 Atom     1 has atomic number  6 and mass  12.00000

 Molecular mass:    50.01565 amu.
 Principal axes and moments of inertia in atomic units:
                           1         2         3
     Eigenvalues --    65.75987 253.73381 319.49368
           X            0.00000  -0.00000   1.00000
           Y            1.00000  -0.00000  -0.00000
           Z            0.00000   1.00000   0.00000
 This molecule is an asymmetric top.
 Rotational symmetry number  2.
 Rotational temperatures (Kelvin)      1.31712     0.34136     0.27110
 Rotational constants (GHZ):          27.44441     7.11273     5.64875
 Zero-point vibrational energy      84877.8 (Joules/Mol)
                                   20.28628 (Kcal/Mol)
 Warning -- explicit consideration of   4 degrees of freedom as
           vibrations may cause significant error
 Vibrational temperatures:    229.31   330.46   375.33   769.26  1230.97
          (Kelvin)           1407.83  1473.18  1490.37  2148.14  2296.71
                             4322.56  4342.75

 Zero-point correction=                           0.032328 (Hartree/Particle)
 Thermal correction to Energy=                    0.037153
 Thermal correction to Enthalpy=                  0.038097
 Thermal correction to Gibbs Free Energy=         0.005801
 Sum of electronic and zero-point Energies=           -152.966544
 Sum of electronic and thermal Energies=              -152.961719
 Sum of electronic and thermal Enthalpies=            -152.960775
 Sum of electronic and thermal Free Energies=         -152.993071

                     E (Thermal)             CV                S
                      KCal/Mol        Cal/Mol-Kelvin    Cal/Mol-Kelvin
 Total                   23.314             14.354             67.971
 Electronic               0.000              0.000              1.377
 Translational            0.889              2.981             37.653
 Rotational               0.889              2.981             21.815
 Vibrational             21.536              8.392              7.126
 Vibration     1          0.621              1.892              2.557
 Vibration     2          0.652              1.796              1.881
 Vibration     3          0.669              1.744              1.656
 Vibration     4          0.890              1.173              0.577

 Optimization completed.
    -- Stationary point found.
 Normal termination of Gaussian 09 at Thu Jan 24 15:41:10 2019.
