 Gaussian 09, Revision D.01,
 Gaussian 09:  ES64L-G09RevD.01 24-Apr-2013

 ---------------------------
 #p b3lyp/6-311++g(d,p) freq
 ---------------------------

 ---
 min
 ---
 Symbolic Z-matrix:
 Charge =  1 Multiplicity = 2

                         Standard orientation:
 ---------------------------------------------------------------------
 Center     Atomic      Atomic             Coordinates (Angstroms)
 Number     Number       Type             X           Y           Z
 ---------------------------------------------------------------------
      1          6           0       -1.127004    0.255140    0.398565
      2          6           0        1.601880    0.456886   -0.268394
      3          6           0        1.454584   -0.811808    0.156495
      4          6           0        0.370556    0.006340    0.233626
      5          1           0        2.144602    1.295929   -0.689365
      6          1           0       -1.452360    0.817752    1.284898
      7          8           0       -1.811541   -0.194129   -0.464661
 ---------------------------------------------------------------------

 SCF Done:  E(UB3LYP) =  -228.393179380     A.U. after   19 cycles

 The electronic state is 2-A.
 Alpha  occ. eigenvalues --  -19.38314 -10.54573 -10.54138 -10.54026 -10.52497
 Alpha  occ. eigenvalues --   -1.31765  -1.24637  -0.94138  -0.87179  -0.79095
 Alpha  occ. eigenvalues --   -0.75623  -0.70526  -0.68170  -0.66958  -0.64291
 Alpha  occ. eigenvalues --   -0.57028  -0.51737
 Alpha virt. eigenvalues --   -0.32393  -0.30114  -0.27883  -0.16256  -0.15432
 Alpha virt. eigenvalues --   -0.12985  -0.12112  -0.10643  -0.09893  -0.07678
 Alpha virt. eigenvalues --   -0.06573  -0.05889  -0.04618  -0.04223  -0.03327

  Beta  occ. eigenvalues --  -19.38124 -10.53908 -10.53804 -10.53045 -10.52541
  Beta  occ. eigenvalues --   -1.31428  -1.23691  -0.93630  -0.86283  -0.78329
  Beta  occ. eigenvalues --   -0.72335  -0.69850  -0.67449  -0.66305  -0.62821
  Beta  occ. eigenvalues --   -0.51408
  Beta virt. eigenvalues --   -0.42298  -0.32303  -0.28060  -0.26973  -0.15993
  Beta virt. eigenvalues --   -0.15170  -0.12762  -0.11960  -0.10358  -0.09617
  Beta virt. eigenvalues --   -0.07054  -0.06375  -0.04790  -0.04278  -0.04026

 Mulliken charges and spin densities:
               1          2
     1  C   -0.084679  -0.050034
     2  C    0.085467   0.177105
     3  C    0.260942   0.695542
     4  C    0.314802   0.102962
     5  H    0.294448  -0.002009
     6  H    0.209279   0.005349
     7  O   -0.080258   0.071085
 Sum of Mulliken charges =   1.00000   1.00000

 Dipole moment (field-independent basis, Debye):
    X=              4.3541    Y=              2.1013    Z=              1.3614  Tot=              5.0226
 Quadrupole moment (field-independent basis, Debye-Ang):
   XX=            -16.0773   YY=            -21.7407   ZZ=            -23.1239
   XY=              1.0174   XZ=             -4.7853   YZ=             -0.6197

  Exact polarizability:  62.793  -4.457  33.514  -0.299   0.125  28.032
 Approx polarizability:  97.727  -5.356  55.434   6.320  -0.185  44.991

                      1                      2                      3
                      A                      A                      A
 Frequencies --     58.5041               188.9954               295.2019
 Red. masses --      3.4372                 8.6039                 3.0558
 Frc consts  --      0.0069                 0.1811                 0.1569
 IR Inten    --     10.1222                19.3467                 5.0401

                      4                      5                      6
                      A                      A                      A
 Frequencies --    526.3704               777.4469               928.8095
 Red. masses --      7.2220                 3.9481                 1.4179
 Frc consts  --      1.1789                 1.4060                 0.7207
 IR Inten    --      2.3718                66.0560                45.2926

                      7                      8                      9
                      A                      A                      A
 Frequencies --    929.0950               981.4184              1164.0568
 Red. masses --      1.4791                 1.5727                 7.2617
 Frc consts  --      0.7522                 0.8925                 5.7974
 IR Inten    --     13.4756                20.1680                34.8034

                     10                     11                     12
                      A                      A                      A
 Frequencies --   1327.6032              1355.6727              1688.9045
 Red. masses --      8.4476                 1.1636                 8.4262
 Frc consts  --      8.7725                 1.2600                14.1610
 IR Inten    --     17.6291                 8.6345                37.6790

                     13                     14                     15
                      A                      A                      A
 Frequencies --   1817.2119              3043.9845              3235.0114
 Red. masses --      9.3541                 1.0982                 1.1209
 Frc consts  --     18.1997                 5.9952                 6.9112
 IR Inten    --     68.7304                 0.3166                93.4229

 - Thermochemistry -
 -------------------
 Temperature   298.150 Kelvin.  Pressure   1.00000 Atm.
 Atom     1 has atomic number  6 and mass  12.00000

 Molecular mass:    66.01056 amu.
 Principal axes and moments of inertia in atomic units:
                           1         2         3
     Eigenvalues --    83.19715 505.82220 523.18262
           X            0.99955   0.01430  -0.02650
           Y           -0.01358   0.99954   0.02719
           Z            0.02688  -0.02682   0.99928
 This molecule is an asymmetric top.
 Rotational symmetry number  1.
 Rotational temperatures (Kelvin)      1.04107     0.17123     0.16555
 Rotational constants (GHZ):          21.69234     3.56794     3.44954
 Zero-point vibrational energy     109567.7 (Joules/Mol)
                                   26.18730 (Kcal/Mol)
 Warning -- explicit consideration of   4 degrees of freedom as
           vibrations may cause significant error
 Vibrational temperatures:     84.17   271.92   424.73   757.33  1118.57
          (Kelvin)           1336.35  1336.76  1412.04  1674.82  1910.12
                             1950.51  2429.95  2614.56  4379.61  4654.45

 Zero-point correction=                           0.041732 (Hartree/Particle)
 Thermal correction to Energy=                    0.046855
 Thermal correction to Enthalpy=                  0.047799
 Thermal correction to Gibbs Free Energy=         0.012676
 Sum of electronic and zero-point Energies=           -228.351447
 Sum of electronic and thermal Energies=              -228.346325
 Sum of electronic and thermal Enthalpies=            -228.345380
 Sum of electronic and thermal Free Energies=         -228.380503

                     E (Thermal)             CV                S
                      KCal/Mol        Cal/Mol-Kelvin    Cal/Mol-Kelvin
 Total                   29.402             15.225             73.922
 Electronic               0.000              0.000              1.377
 Translational            0.889              2.981             38.480
 Rotational               0.889              2.981             24.602
 Vibrational             27.624              9.263              9.462
 Vibration     1          0.596              1.974              4.507
 Vibration     2          0.633              1.855              2.238
 Vibration     3          0.689              1.683              1.444
 Vibration     4          0.881              1.192              0.595

 Normal termination of Gaussian 09 at Thu Jan 24 15:48:54 2019.
