 Gaussian 09, Revision D.01,
 Gaussian 09:  ES64L-G09RevD.01 24-Apr-2013

 ---------------------------
 #p b3lyp/6-311++g(d,p) freq
 ---------------------------

 ---
 min
 ---
 Symbolic Z-matrix:
 Charge =  0 Multiplicity = 1

                         Standard orientation:
 ---------------------------------------------------------------------
 Center     Atomic      Atomic             Coordinates (Angstroms)
 Number     Number       Type             X           Y           Z
 ---------------------------------------------------------------------
      1          6           0        0.612110   -0.987840   -0.000000
      2          6           0        0.612110    0.568913    0.000000
      3          6           0       -0.612110    0.987840    0.000000
      4          6           0       -0.612110   -0.568913    0.000000
      5          1           0        1.347461   -1.761874   -0.000000
      6          1           0       -1.347461    1.761874    0.000000
 ---------------------------------------------------------------------

 SCF Done:  E(RB3LYP) =  -153.428675208     A.U. after   10 cycles

 The electronic state is 1-AG.
 Alpha  occ. eigenvalues --  -10.25047 -10.25036 -10.21930 -10.21926  -0.95936
 Alpha  occ. eigenvalues --   -0.72422  -0.57178  -0.56004  -0.46686  -0.42386
 Alpha  occ. eigenvalues --   -0.41147  -0.29922  -0.23062
 Alpha virt. eigenvalues --   -0.06236  -0.04599   0.00032   0.01109   0.03223
 Alpha virt. eigenvalues --    0.03673   0.05657   0.06972   0.07114   0.09022
 Alpha virt. eigenvalues --    0.09258   0.10376   0.11309   0.11766   0.11799

 Mulliken charges:
               1
     1  C   -0.342769
     2  C    0.169306
     3  C   -0.342769
     4  C    0.169306
     5  H    0.173463
     6  H    0.173463
 Sum of Mulliken charges =  -0.00000

 Dipole moment (field-independent basis, Debye):
    X=             -0.0000    Y=             -0.0000    Z=             -0.0000  Tot=              0.0000
 Quadrupole moment (field-independent basis, Debye-Ang):
   XX=            -22.5121   YY=            -20.9343   ZZ=            -25.3433
   XY=             -4.7902   XZ=             -0.0000   YZ=             -0.0000

  Exact polarizability:  45.350  -3.650  48.693   0.000   0.000  28.184
 Approx polarizability:  94.706   2.189  78.982  -0.000   0.000  39.251

                      1                      2                      3
                     BG                     BU                     AU
 Frequencies --    386.2500               418.0279               433.0153
 Red. masses --      1.2962                 7.8920                 2.9670
 Frc consts  --      0.1139                 0.8125                 0.3278
 IR Inten    --      0.0000                71.8568                66.3140

                      4                      5                      6
                     AU                     AG                     AG
 Frequencies --    532.3567               628.7182               871.9712
 Red. masses --      1.4247                10.5798                 5.0501
 Frc consts  --      0.2379                 2.4640                 2.2623
 IR Inten    --     78.2933                 0.0000                 0.0000

                      7                      8                      9
                     BU                     AG                     AG
 Frequencies --   1000.6996              1017.2141              1625.2545
 Red. masses --      1.0942                 1.3227                 7.2253
 Frc consts  --      0.6456                 0.8064                11.2448
 IR Inten    --     12.8141                 0.0000                 0.0000

                     10                     11                     12
                     BU                     BU                     AG
 Frequencies --   1704.5339              3387.3747              3390.7472
 Red. masses --      7.2041                 1.1131                 1.1173
 Frc consts  --     12.3321                 7.5249                 7.5688
 IR Inten    --     37.4121                82.2057                 0.0000

 - Thermochemistry -
 -------------------
 Temperature   298.150 Kelvin.  Pressure   1.00000 Atm.
 Atom     1 has atomic number  6 and mass  12.00000

 Molecular mass:    50.01565 amu.
 Principal axes and moments of inertia in atomic units:
                           1         2         3
     Eigenvalues --    57.31746 153.69329 211.01075
           X           -0.45527   0.89035   0.00000
           Y            0.89035   0.45527   0.00000
           Z            0.00000   0.00000   1.00000
 This molecule is an asymmetric top.
 Rotational symmetry number  2.
 Rotational temperatures (Kelvin)      1.51112     0.56355     0.41047
 Rotational constants (GHZ):          31.48676    11.74249     8.55284
 Zero-point vibrational energy      92089.5 (Joules/Mol)
                                   22.00992 (Kcal/Mol)
 Warning -- explicit consideration of   4 degrees of freedom as
           vibrations may cause significant error
 Vibrational temperatures:    555.73   601.45   623.01   765.94   904.58
          (Kelvin)           1254.57  1439.78  1463.54  2338.38  2452.44
                             4873.67  4878.52

 Zero-point correction=                           0.035075 (Hartree/Particle)
 Thermal correction to Energy=                    0.039284
 Thermal correction to Enthalpy=                  0.040228
 Thermal correction to Gibbs Free Energy=         0.010524
 Sum of electronic and zero-point Energies=           -153.393600
 Sum of electronic and thermal Energies=              -153.389392
 Sum of electronic and thermal Enthalpies=            -153.388447
 Sum of electronic and thermal Free Energies=         -153.418151

                     E (Thermal)             CV                S
                      KCal/Mol        Cal/Mol-Kelvin    Cal/Mol-Kelvin
 Total                   24.651             13.799             62.517
 Electronic               0.000              0.000              0.000
 Translational            0.889              2.981             37.653
 Rotational               0.889              2.981             20.769
 Vibrational             22.873              7.838              4.095
 Vibration     1          0.755              1.500              1.015
 Vibration     2          0.781              1.431              0.899
 Vibration     3          0.794              1.398              0.849
 Vibration     4          0.887              1.178              0.582

 Optimization completed.
    -- Stationary point found.

 1\1\ CITASK-GV1923\Freq\RB3LYP\6-311++G(d,p)\C4H2\EERD\04-Mar-2018\0\\
 #p b3lyp/6-311++g(d,p) freq\\min\\0,1\C,1.161512,-0.03734474,0.0002809
 2\C,-0.187446,-0.81438524,0.00006742\C,-1.161514,0.03732226,-0.0002120
 8\C,0.187444,0.81436276,0.00000142\H,2.199273,-0.28818824,0.000520451\
 H,-2.199275,0.28816576,-0.000451611\\Version=ES64L-G09RevD.01\State=1-
 AG\HF=-153.4286752\RMSD=7.070e-09\RMSF=4.073e-05\ZeroPoint=0.035075\Th
 ermal=0.0392837\Dipole=0.,0.,0.\DipoleDeriv=-0.3681617,0.06375,-0.0000
 309,0.2732781,0.4002189,-0.0000003,-0.0000495,-0.0000441,-0.2475826,0.

 Normal termination of Gaussian 09 at Sun Mar  4 21:07:19 2018.
