 Gaussian 09, Revision D.01,
 Gaussian 09:  ES64L-G09RevD.01 24-Apr-2013

 ---------------------------
 #p b3lyp/6-311++g(d,p) freq
 ---------------------------

 ---
 min
 ---
 Symbolic Z-matrix:
 Charge =  0 Multiplicity = 1

                         Standard orientation:
 ---------------------------------------------------------------------
 Center     Atomic      Atomic             Coordinates (Angstroms)
 Number     Number       Type             X           Y           Z
 ---------------------------------------------------------------------
      1          6           0       -0.671177    0.191420    0.568980
      2          6           0        0.671177   -0.191420    0.568980
      3          6           0        0.671177    0.318285   -0.763396
      4          6           0       -0.671177   -0.318285   -0.763396
      5          1           0       -1.314736    0.822130    1.166496
      6          1           0        1.314736   -0.822130    1.166496
 ---------------------------------------------------------------------

 SCF Done:  E(RB3LYP) =  -153.409289429     A.U. after   11 cycles

 The electronic state is 1-A.
 Alpha  occ. eigenvalues --  -10.25777 -10.25724 -10.23373 -10.23343  -0.97776
 Alpha  occ. eigenvalues --   -0.66328  -0.65607  -0.53122  -0.50874  -0.40017
 Alpha  occ. eigenvalues --   -0.38015  -0.28655  -0.25088
 Alpha virt. eigenvalues --   -0.06873  -0.05881  -0.04332  -0.00196   0.00607
 Alpha virt. eigenvalues --    0.04275   0.04864   0.07661   0.07744   0.09233
 Alpha virt. eigenvalues --    0.09425   0.09621   0.10982   0.11089   0.12437

 Mulliken charges:
               1
     1  C   -0.053970
     2  C   -0.053970
     3  C   -0.133524
     4  C   -0.133524
     5  H    0.187494
     6  H    0.187494
 Sum of Mulliken charges =  -0.00000

 Dipole moment (field-independent basis, Debye):
    X=             -0.0000    Y=              0.0000    Z=              3.6564  Tot=              3.6564
 Quadrupole moment (field-independent basis, Debye-Ang):
   XX=            -23.9189   YY=            -24.1004   ZZ=            -25.2282
   XY=             -4.5131   XZ=              0.0000   YZ=             -0.0000

  Exact polarizability:  49.559   1.743  31.855  -0.000   0.000  48.074
 Approx polarizability:  93.962   4.067  48.467  -0.000  -0.000  89.694

                      1                      2                      3
                      B                      A                      A
 Frequencies --    540.9794               557.1862               613.0633
 Red. masses --      2.2577                 8.2149                 3.7507
 Frc consts  --      0.3893                 1.5026                 0.8306
 IR Inten    --     24.9396                 0.0120                 2.8504

                      4                      5                      6
                      A                      B                      B
 Frequencies --    805.4646               924.2892              1033.7246
 Red. masses --      1.6281                 2.1909                 1.4090
 Frc consts  --      0.6223                 1.1028                 0.8871
 IR Inten    --     37.6928                58.8430                 6.9730

                      7                      8                      9
                      A                      A                      B
 Frequencies --   1038.8049              1247.0259              1284.3903
 Red. masses --      1.1744                 5.0923                 3.4480
 Frc consts  --      0.7467                 4.6657                 3.3512
 IR Inten    --      2.4155                18.7811                 3.7745

                     10                     11                     12
                      A                      B                      A
 Frequencies --   1412.2654              3210.8612              3227.7404
 Red. masses --      5.6609                 1.0897                 1.1131
 Frc consts  --      6.6523                 6.6194                 6.8325
 IR Inten    --      0.0918                 1.8197                 1.1667

 - Thermochemistry -
 -------------------
 Temperature   298.150 Kelvin.  Pressure   1.00000 Atm.
 Atom     1 has atomic number  6 and mass  12.00000

 Molecular mass:    50.01565 amu.
 Principal axes and moments of inertia in atomic units:
                           1         2         3
     Eigenvalues --   103.78980 106.34701 176.76730
           X            0.99998   0.00000   0.00661
           Y           -0.00661   0.00000   0.99998
           Z            0.00000   1.00000  -0.00000
 This molecule is an asymmetric top.
 Rotational symmetry number  2.
 Rotational temperatures (Kelvin)      0.83451     0.81445     0.48999
 Rotational constants (GHZ):          17.38843    16.97031    10.20970
 Zero-point vibrational energy      95078.0 (Joules/Mol)
                                   22.72418 (Kcal/Mol)
 Warning -- explicit consideration of   3 degrees of freedom as
           vibrations may cause significant error
 Vibrational temperatures:    778.35   801.67   882.06  1158.88  1329.84
          (Kelvin)           1487.30  1494.61  1794.19  1847.95  2031.93
                             4619.71  4643.99

 Zero-point correction=                           0.036213 (Hartree/Particle)
 Thermal correction to Energy=                    0.039802
 Thermal correction to Enthalpy=                  0.040747
 Thermal correction to Gibbs Free Energy=         0.011972
 Sum of electronic and zero-point Energies=           -153.373076
 Sum of electronic and thermal Energies=              -153.369487
 Sum of electronic and thermal Enthalpies=            -153.368543
 Sum of electronic and thermal Free Energies=         -153.397318

                     E (Thermal)             CV                S
                      KCal/Mol        Cal/Mol-Kelvin    Cal/Mol-Kelvin
 Total                   24.976             11.471             60.561
 Electronic               0.000              0.000              0.000
 Translational            0.889              2.981             37.653
 Rotational               0.889              2.981             20.817
 Vibrational             23.199              5.509              2.092
 Vibration     1          0.896              1.159              0.563
 Vibration     2          0.913              1.124              0.529
 Vibration     3          0.972              1.004              0.428

 Optimization completed.
    -- Stationary point found.

 1\1\ CITASK-GV1538\Freq\RB3LYP\6-311++G(d,p)\C4H2\EERD\04-Mar-2018\0\\
 #p b3lyp/6-311++g(d,p) freq\\min\\0,1\C,0.701415333,0.522531846,-0.528
 315143\C,-0.6292157565,0.329028538,-0.9030931662\C,-0.806063521,-0.074
 374558,0.453747777\C,0.5240677222,-0.6878162075,0.2056003489\H,1.41899
 4246,1.331121551,-0.544198205\H,-1.1879525755,0.2441400151,-1.82482858
 64\\Version=ES64L-G09RevD.01\State=1-A\HF=-153.4092894\RMSD=2.523e-09\
 RMSF=1.095e-04\ZeroPoint=0.0362133\Thermal=0.0398024\Dipole=0.1912061,
 0.8711548,-1.1286576\DipoleDeriv=0.0600102,0.1135189,0.1682731,-0.0118

 Normal termination of Gaussian 09 at Sun Mar  4 21:07:32 2018.
