 Gaussian 09, Revision D.01,
 Gaussian 09:  ES64L-G09RevD.01 24-Apr-2013

 ---------------------------
 #p b3lyp/6-311++g(d,p) freq
 ---------------------------

 ---
 min
 ---
 Symbolic Z-matrix:
 Charge =  1 Multiplicity = 4

                         Standard orientation:
 ---------------------------------------------------------------------
 Center     Atomic      Atomic             Coordinates (Angstroms)
 Number     Number       Type             X           Y           Z
 ---------------------------------------------------------------------
      1          6           0        1.256611    0.387253    0.000064
      2          6           0       -1.320782   -0.013273   -0.000556
      3          6           0       -2.572375   -0.060394    0.000328
      4          6           0       -0.035947   -0.064445   -0.000541
      5          1           0       -3.643840   -0.084727    0.001555
      6          1           0        1.531394    1.466641    0.000444
      7          8           0        2.268426   -0.359595    0.000279
 ---------------------------------------------------------------------

 SCF Done:  E(UB3LYP) =  -228.368093431     A.U. after   19 cycles

 The electronic state is 4-A.
 Alpha  occ. eigenvalues --  -19.51931 -10.55339 -10.48035 -10.46719 -10.44594
 Alpha  occ. eigenvalues --   -1.40033  -1.07389  -1.00975  -0.90531  -0.84024
 Alpha  occ. eigenvalues --   -0.77907  -0.76180  -0.72966  -0.65703  -0.60496
 Alpha  occ. eigenvalues --   -0.59944  -0.50012  -0.47409
 Alpha virt. eigenvalues --   -0.30420  -0.19262  -0.14043  -0.13062  -0.12359
 Alpha virt. eigenvalues --   -0.11857  -0.11156  -0.09802  -0.07397  -0.06781
 Alpha virt. eigenvalues --   -0.05379  -0.03701  -0.02668  -0.02492  -0.01630

  Beta  occ. eigenvalues --  -19.48788 -10.55252 -10.46418 -10.45176 -10.45000
  Beta  occ. eigenvalues --   -1.33595  -1.04572  -0.96849  -0.87754  -0.78809
  Beta  occ. eigenvalues --   -0.75006  -0.73867  -0.67924  -0.56752  -0.56137
  Beta virt. eigenvalues --   -0.44619  -0.39434  -0.34273  -0.26053  -0.17176
  Beta virt. eigenvalues --   -0.13333  -0.12569  -0.11169  -0.10263  -0.10101
  Beta virt. eigenvalues --   -0.09489  -0.06542  -0.05650  -0.04231  -0.02661

 Mulliken charges and spin densities:
               1          2
     1  C   -0.045681  -0.025584
     2  C    1.550442  -0.259499
     3  C   -0.915330   1.015747
     4  C   -0.389466   1.088864
     5  H    0.248479  -0.039383
     6  H    0.305976   0.130413
     7  O    0.245580   1.089443
 Sum of Mulliken charges =   1.00000   3.00000

 Dipole moment (field-independent basis, Debye):
    X=             -1.6682    Y=              1.7382    Z=              0.0019  Tot=              2.4092
 Quadrupole moment (field-independent basis, Debye-Ang):
   XX=              0.2674   YY=            -23.5791   ZZ=            -26.1430
   XY=              3.5969   XZ=             -0.0058   YZ=              0.0007

  Exact polarizability: 101.297   1.660  26.729  -0.005   0.001  20.559
 Approx polarizability: 189.971  -0.926  37.537  -0.014   0.001  27.206

                      1                      2                      3
                      A                      A                      A
 Frequencies --     96.7774               163.3638               388.3644
 Red. masses --      5.9284                 4.8554                 7.9234
 Frc consts  --      0.0327                 0.0763                 0.7041
 IR Inten    --      5.0142                10.9952                 2.7893

                      4                      5                      6
                      A                      A                      A
 Frequencies --    431.9503               442.4595               480.4383
 Red. masses --     10.2287                 6.0341                 1.2060
 Frc consts  --      1.1244                 0.6960                 0.1640
 IR Inten    --     11.8572                 2.1395                43.7903

                      7                      8                      9
                      A                      A                      A
 Frequencies --    679.1410               826.1304               864.8126
 Red. masses --      1.3282                 1.7035                 6.8773
 Frc consts  --      0.3609                 0.6850                 3.0305
 IR Inten    --     22.4652                10.3748                16.0564

                     10                     11                     12
                      A                      A                      A
 Frequencies --   1155.0613              1394.7459              1615.5192
 Red. masses --      1.1747                 7.5455                 7.9711
 Frc consts  --      0.9234                 8.6482                12.2572
 IR Inten    --     26.4404                81.7528               287.4828

                     13                     14                     15
                      A                      A                      A
 Frequencies --   1929.5552              2855.6162              3375.8059
 Red. masses --      9.6873                 1.0735                 1.1264
 Frc consts  --     21.2504                 5.1575                 7.5628
 IR Inten    --     22.7483                86.9471               197.8017

 - Thermochemistry -
 -------------------
 Temperature   298.150 Kelvin.  Pressure   1.00000 Atm.
 Atom     1 has atomic number  6 and mass  12.00000

 Molecular mass:    66.01056 amu.
 Principal axes and moments of inertia in atomic units:
                           1         2         3
     Eigenvalues --    21.71565 776.05570 797.77126
           X            0.99993   0.01178  -0.00002
           Y           -0.01178   0.99993   0.00008
           Z            0.00002  -0.00008   1.00000
 This molecule is an asymmetric top.
 Rotational symmetry number  1.
 Rotational temperatures (Kelvin)      3.98854     0.11161     0.10857
 Rotational constants (GHZ):          83.10787     2.32553     2.26223
 Zero-point vibrational energy      99886.6 (Joules/Mol)
                                   23.87348 (Kcal/Mol)
 Warning -- explicit consideration of   6 degrees of freedom as
           vibrations may cause significant error
 Vibrational temperatures:    139.24   235.04   558.77   621.48   636.60
          (Kelvin)            691.24   977.13  1188.62  1244.27  1661.87
                             2006.73  2324.37  2776.20  4108.59  4857.03

 Zero-point correction=                           0.038045 (Hartree/Particle)
 Thermal correction to Energy=                    0.043634
 Thermal correction to Enthalpy=                  0.044578
 Thermal correction to Gibbs Free Energy=         0.008697
 Sum of electronic and zero-point Energies=           -228.330049
 Sum of electronic and thermal Energies=              -228.324460
 Sum of electronic and thermal Enthalpies=            -228.323515
 Sum of electronic and thermal Free Energies=         -228.359397

                     E (Thermal)             CV                S
                      KCal/Mol        Cal/Mol-Kelvin    Cal/Mol-Kelvin
 Total                   27.381             17.805             75.519
 Electronic               0.000              0.000              2.755
 Translational            0.889              2.981             38.480
 Rotational               0.889              2.981             24.112
 Vibrational             25.603             11.843             10.172
 Vibration     1          0.603              1.951              3.518
 Vibration     2          0.623              1.887              2.510
 Vibration     3          0.757              1.495              1.006
 Vibration     4          0.793              1.401              0.852
 Vibration     5          0.802              1.378              0.819
 Vibration     6          0.837              1.293              0.709

 Normal termination of Gaussian 09 at Thu Jan 24 15:49:35 2019.
