 Gaussian 09, Revision D.01,
 Gaussian 09:  ES64L-G09RevD.01 24-Apr-2013

 ---------------------------
 #p b3lyp/6-311++g(d,p) freq
 ---------------------------

 ---
 min
 ---
 Symbolic Z-matrix:
 Charge =  1 Multiplicity = 2

                         Standard orientation:
 ---------------------------------------------------------------------
 Center     Atomic      Atomic             Coordinates (Angstroms)
 Number     Number       Type             X           Y           Z
 ---------------------------------------------------------------------
      1          6           0       -0.670983    1.394858   -0.000000
      2          6           0        0.000000    0.315951    0.000000
      3          6           0       -0.093081   -1.150503   -0.000000
      4          6           0        1.129004   -0.636021    0.000000
      5          1           0       -1.260935    2.295275   -0.000000
      6          1           0       -0.928705   -1.840984   -0.000000
 ---------------------------------------------------------------------

 SCF Done:  E(UB3LYP) =  -153.088431401     A.U. after   18 cycles

 The electronic state is 2-A".
 Alpha  occ. eigenvalues --  -10.52937 -10.52724 -10.52652 -10.50533  -1.20802
 Alpha  occ. eigenvalues --   -1.05201  -0.85490  -0.82611  -0.72076  -0.68281
 Alpha  occ. eigenvalues --   -0.66366  -0.54983  -0.52917
 Alpha virt. eigenvalues --   -0.36867  -0.27975  -0.23552  -0.16029  -0.15806
 Alpha virt. eigenvalues --   -0.13817  -0.12573  -0.10489  -0.09873  -0.06209
 Alpha virt. eigenvalues --   -0.06117  -0.05501  -0.04766  -0.03072  -0.02861

  Beta  occ. eigenvalues --  -10.52912 -10.52245 -10.51574 -10.50544  -1.20094
  Beta  occ. eigenvalues --   -1.01895  -0.85029  -0.81305  -0.71988  -0.66036
  Beta  occ. eigenvalues --   -0.65044  -0.52719
  Beta virt. eigenvalues --   -0.43401  -0.35463  -0.25725  -0.20508  -0.15668
  Beta virt. eigenvalues --   -0.15314  -0.13397  -0.12519  -0.09835  -0.09745
  Beta virt. eigenvalues --   -0.06093  -0.05541  -0.05099  -0.04584  -0.02845

 Mulliken charges and spin densities:
               1          2
     1  C   -0.114963   0.930290
     2  C    0.344106  -0.120820
     3  C    0.106251   0.244172
     4  C    0.054618  -0.011767
     5  H    0.297638  -0.031203
     6  H    0.312350  -0.010671
 Sum of Mulliken charges =   1.00000   1.00000

 Dipole moment (field-independent basis, Debye):
    X=             -3.2517    Y=              0.6473    Z=             -0.0000  Tot=              3.3155
 Quadrupole moment (field-independent basis, Debye-Ang):
   XX=            -18.4905   YY=             -6.4750   ZZ=            -20.7351
   XY=             -2.7684   XZ=             -0.0000   YZ=             -0.0000

  Exact polarizability:  40.383 -15.030  53.552   0.000  -0.000  20.222
 Approx polarizability:  88.985 -53.808 122.808   0.000  -0.000  28.876

                      1                      2                      3
                     A'                     A"                     A"
 Frequencies --    287.1126               392.8859               532.6823
 Red. masses --      3.2198                 3.3766                 1.4752
 Frc consts  --      0.1564                 0.3071                 0.2466
 IR Inten    --     12.9363                11.9982                20.6075

                      4                      5                      6
                     A'                     A'                     A"
 Frequencies --    589.0923               711.7123               789.5341
 Red. masses --      3.5528                 1.8095                 1.3454
 Frc consts  --      0.7264                 0.5400                 0.4941
 IR Inten    --     58.5671                24.8682                36.3752

                      7                      8                      9
                     A'                     A'                     A'
 Frequencies --    842.1301               960.4510              1494.0333
 Red. masses --      6.3128                 1.2577                 6.7117
 Frc consts  --      2.6377                 0.6836                 8.8268
 IR Inten    --      5.2355                18.4285                 5.8255

                     10                     11                     12
                     A'                     A'                     A'
 Frequencies --   1684.9124              3240.8068              3328.2639
 Red. masses --      6.7355                 1.1200                 1.1242
 Frc consts  --     11.2662                 6.9305                 7.3369
 IR Inten    --     50.6870               130.6825               266.6444

 - Thermochemistry -
 -------------------
 Temperature   298.150 Kelvin.  Pressure   1.00000 Atm.
 Atom     1 has atomic number  6 and mass  12.00000

 Molecular mass:    50.01565 amu.
 Principal axes and moments of inertia in atomic units:
                           1         2         3
     Eigenvalues --    48.38909 227.24169 275.63078
           X           -0.43848   0.89874   0.00000
           Y            0.89874   0.43848   0.00000
           Z            0.00000   0.00000   1.00000
 This molecule is an asymmetric top.
 Rotational symmetry number  1.
 Rotational temperatures (Kelvin)      1.78995     0.38115     0.31424
 Rotational constants (GHZ):          37.29645     7.94195     6.54768
 Zero-point vibrational energy      88844.4 (Joules/Mol)
                                   21.23431 (Kcal/Mol)
 Warning -- explicit consideration of   4 degrees of freedom as
           vibrations may cause significant error
 Vibrational temperatures:    413.09   565.27   766.41   847.57  1023.99
          (Kelvin)           1135.96  1211.64  1381.87  2149.58  2424.21
                             4662.79  4788.62

 Zero-point correction=                           0.033839 (Hartree/Particle)
 Thermal correction to Energy=                    0.038098
 Thermal correction to Enthalpy=                  0.039043
 Thermal correction to Gibbs Free Energy=         0.007682
 Sum of electronic and zero-point Energies=           -153.054592
 Sum of electronic and thermal Energies=              -153.050333
 Sum of electronic and thermal Enthalpies=            -153.049389
 Sum of electronic and thermal Free Energies=         -153.080749

                     E (Thermal)             CV                S
                      KCal/Mol        Cal/Mol-Kelvin    Cal/Mol-Kelvin
 Total                   23.907             13.974             66.003
 Electronic               0.000              0.000              1.377
 Translational            0.889              2.981             37.653
 Rotational               0.889              2.981             22.632
 Vibrational             22.130              8.013              4.341
 Vibration     1          0.684              1.698              1.491
 Vibration     2          0.760              1.485              0.989
 Vibration     3          0.888              1.178              0.581
 Vibration     4          0.946              1.055              0.469

 Normal termination of Gaussian 09 at Thu Jan 24 15:42:02 2019.
