 Gaussian 09, Revision D.01,
 Gaussian 09:  ES64L-G09RevD.01 24-Apr-2013

 ---------------------------
 #p b3lyp/6-311++g(d,p) freq
 ---------------------------

 ---
 min
 ---
 Symbolic Z-matrix:
 Charge =  0 Multiplicity = 1

                         Standard orientation:
 ---------------------------------------------------------------------
 Center     Atomic      Atomic             Coordinates (Angstroms)
 Number     Number       Type             X           Y           Z
 ---------------------------------------------------------------------
      1          6           0        0.000000    0.000000   -1.748534
      2          6           0       -0.000000   -0.000000    0.841315
      3          6           0       -0.000000   -0.000000    2.123168
      4          6           0        0.000000    0.000000   -0.447893
      5          1           0        0.000000    0.932312   -2.304168
      6          1           0       -0.000000   -0.932312   -2.304168
 ---------------------------------------------------------------------

 SCF Done:  E(RB3LYP) =  -153.465193413     A.U. after   12 cycles

 The electronic state is 1-A1.
 Alpha  occ. eigenvalues --  -10.27969 -10.23184 -10.22806 -10.19486  -0.85462
 Alpha  occ. eigenvalues --   -0.77861  -0.67691  -0.53782  -0.50158  -0.39348
 Alpha  occ. eigenvalues --   -0.34858  -0.30329  -0.27430
 Alpha virt. eigenvalues --   -0.14536  -0.07680  -0.01587   0.01429   0.03096
 Alpha virt. eigenvalues --    0.04898   0.05638   0.06502   0.07257   0.08959
 Alpha virt. eigenvalues --    0.09598   0.10671   0.12886   0.13113   0.13238

 Mulliken charges:
               1
     1  C   -0.495516
     2  C    0.202381
     3  C   -0.404489
     4  C    0.363911
     5  H    0.166856
     6  H    0.166856
 Sum of Mulliken charges =   0.00000

 Dipole moment (field-independent basis, Debye):
    X=              0.0000    Y=             -0.0000    Z=             -4.6298  Tot=              4.6298
 Quadrupole moment (field-independent basis, Debye-Ang):
   XX=            -25.6330   YY=            -21.6984   ZZ=            -27.5906
   XY=              0.0000   XZ=              0.0000   YZ=              0.0000

  Exact polarizability:  26.855  -0.000  27.533  -0.000   0.000  98.211
 Approx polarizability:  34.523   0.000  37.446  -0.000  -0.000 212.959

                      1                      2                      3
                     B2                     B1                     B2
 Frequencies --    165.1547               209.2774               422.5523
 Red. masses --      5.7645                 6.7474                 2.7057
 Frc consts  --      0.0926                 0.1741                 0.2846
 IR Inten    --      3.4759                 0.0919                 0.7851

                      4                      5                      6
                     B1                     B1                     A1
 Frequencies --    522.8867               790.6489               924.1949
 Red. masses --      7.9705                 1.3250                 5.1330
 Frc consts  --      1.2840                 0.4880                 2.5832
 IR Inten    --      0.0099                82.4529                 0.2773

                      7                      8                      9
                     B2                     A1                     A1
 Frequencies --    949.1903              1373.2564              1744.9462
 Red. masses --      1.7636                 1.1518                 9.6343
 Frc consts  --      0.9362                 1.2798                17.2836
 IR Inten    --      5.7923                18.8978                 1.0857

                     10                     11                     12
                     A1                     A1                     B2
 Frequencies --   2160.1399              3130.6806              3210.5551
 Red. masses --     11.6153                 1.0583                 1.1136
 Frc consts  --     31.9333                 6.1111                 6.7633
 IR Inten    --    859.8056                40.0125                10.8061

 - Thermochemistry -
 -------------------
 Temperature   298.150 Kelvin.  Pressure   1.00000 Atm.
 Atom     1 has atomic number  6 and mass  12.00000

 Molecular mass:    50.01565 amu.
 Principal axes and moments of inertia in atomic units:
                           1         2         3
     Eigenvalues --     6.25656 399.84177 406.09833
           X           -0.00000  -0.00000   1.00000
           Y           -0.00000   1.00000   0.00000
           Z            1.00000   0.00000   0.00000
 This molecule is an asymmetric top.
 Rotational symmetry number  2.
 Rotational temperatures (Kelvin)     13.84367     0.21662     0.21328
 Rotational constants (GHZ):         288.45565     4.51364     4.44410
 Zero-point vibrational energy      93329.6 (Joules/Mol)
                                   22.30630 (Kcal/Mol)
 Warning -- explicit consideration of   4 degrees of freedom as
           vibrations may cause significant error
 Vibrational temperatures:    237.62   301.10   607.96   752.32  1137.57
          (Kelvin)           1329.71  1365.67  1975.81  2510.59  3107.96
                             4504.35  4619.27

 Zero-point correction=                           0.035547 (Hartree/Particle)
 Thermal correction to Energy=                    0.040225
 Thermal correction to Enthalpy=                  0.041169
 Thermal correction to Gibbs Free Energy=         0.010604
 Sum of electronic and zero-point Energies=           -153.429646
 Sum of electronic and thermal Energies=              -153.424968
 Sum of electronic and thermal Enthalpies=            -153.424024
 Sum of electronic and thermal Free Energies=         -153.454589

                     E (Thermal)             CV                S
                      KCal/Mol        Cal/Mol-Kelvin    Cal/Mol-Kelvin
 Total                   25.242             14.018             64.329
 Electronic               0.000              0.000              0.000
 Translational            0.889              2.981             37.653
 Rotational               0.889              2.981             20.168
 Vibrational             23.464              8.056              6.508
 Vibration     1          0.624              1.885              2.490
 Vibration     2          0.642              1.827              2.050
 Vibration     3          0.785              1.421              0.883
 Vibration     4          0.878              1.199              0.603

 Optimization completed.
    -- Stationary point found.

 1\1\ CITASK-GV1813\Freq\RB3LYP\6-311++G(d,p)\C4H2\EERD\04-Mar-2018\0\\
 #p b3lyp/6-311++g(d,p) freq\\min\\0,1\C,0.933596872,0.6990129539,1.100
 3449471\C,-0.8855891346,-0.4304662341,-0.3564187305\C,-1.7859999402,-0
 .9895048711,-1.0774476697\C,0.0199882037,0.1317801514,0.3687474531\H,1
 .4185548071,0.1548312589,1.9044700439\H,1.2292251932,1.7278377406,0.92
 12959564\\Version=ES64L-G09RevD.01\State=1-A1\HF=-153.4651934\RMSD=2.5
 43e-09\RMSF=1.422e-05\ZeroPoint=0.0355474\Thermal=0.040225\Dipole=1.27
 94783,0.7943905,1.0245777\DipoleDeriv=-0.6100478,-0.2011928,-0.2252208

 Normal termination of Gaussian 09 at Sun Mar  4 21:07:21 2018.
