 Gaussian 09, Revision D.01,
 Gaussian 09:  ES64L-G09RevD.01 24-Apr-2013

 ---------------------------
 #p b3lyp/6-311++g(d,p) freq
 ---------------------------

 ---
 min
 ---
 Symbolic Z-matrix:
 Charge =  0 Multiplicity = 3

                         Standard orientation:
 ---------------------------------------------------------------------
 Center     Atomic      Atomic             Coordinates (Angstroms)
 Number     Number       Type             X           Y           Z
 ---------------------------------------------------------------------
      1          6           0       -0.049958    0.595471   -0.000000
      2          1           0        0.349704    1.043104    0.923262
      3          1           0        0.349704    1.043104   -0.923262
      4          8           0       -0.049958   -0.707379    0.000000
 ---------------------------------------------------------------------

 SCF Done:  E(UB3LYP) =  -114.433976555     A.U. after   12 cycles

 The electronic state is 3-A".
 Alpha  occ. eigenvalues --  -19.22379 -10.23816  -1.09423  -0.67033  -0.52876
 Alpha  occ. eigenvalues --   -0.48924  -0.43940  -0.36804  -0.20390
 Alpha virt. eigenvalues --   -0.00492   0.02728   0.03503   0.06023   0.10177
 Alpha virt. eigenvalues --    0.11460   0.13929   0.16951   0.18180   0.20692
 Alpha virt. eigenvalues --    0.21504   0.23749   0.32947   0.43399   0.47039

  Beta  occ. eigenvalues --  -19.19370 -10.22666  -1.02858  -0.62193  -0.46538
  Beta  occ. eigenvalues --   -0.45538  -0.37179
  Beta virt. eigenvalues --   -0.18223  -0.05631  -0.00226   0.02873   0.03788
  Beta virt. eigenvalues --    0.07275   0.10623   0.11922   0.15055   0.18408
  Beta virt. eigenvalues --    0.18626   0.21316   0.23038   0.25394   0.34322

 Mulliken charges and spin densities:
               1          2
     1  C   -0.266794   0.809876
     2  H    0.159321   0.088132
     3  H    0.159321   0.088132
     4  O   -0.051847   1.013860
 Sum of Mulliken charges =   0.00000   2.00000

 Dipole moment (field-independent basis, Debye):
    X=              0.8999    Y=              1.3179    Z=             -0.0000  Tot=              1.5959
 Quadrupole moment (field-independent basis, Debye-Ang):
   XX=            -13.5372   YY=            -12.7393   ZZ=            -10.5522
   XY=              1.0100   XZ=             -0.0000   YZ=             -0.0000

  Exact polarizability:  15.273   0.551  22.381  -0.000   0.000  15.618
 Approx polarizability:  16.860   1.322  31.716  -0.000  -0.000  18.984

                      1                      2                      3
                     A'                     A"                     A'
 Frequencies --    739.6950               864.4255              1280.8120
 Red. masses --      1.3227                 1.2455                 4.1705
 Frc consts  --      0.4264                 0.5483                 4.0309
 IR Inten    --     51.0268                 1.6005                 4.0172

                      4                      5                      6
                     A'                     A'                     A"
 Frequencies --   1290.1036              2923.7873              3014.5935
 Red. masses --      1.2547                 1.0389                 1.1065
 Frc consts  --      1.2304                 5.2328                 5.9245
 IR Inten    --     45.9003                 9.2435                 0.0570

 - Thermochemistry -
 -------------------
 Temperature   298.150 Kelvin.  Pressure   1.00000 Atm.
 Atom     1 has atomic number  6 and mass  12.00000

 Molecular mass:    30.01056 amu.
 Principal axes and moments of inertia in atomic units:
                           1         2         3
     Eigenvalues --     7.00449  52.17282  57.43970
           X            0.06355   0.00000   0.99798
           Y            0.99798   0.00000  -0.06355
           Z           -0.00000   1.00000  -0.00000
 This molecule is an asymmetric top.
 Rotational symmetry number  1.
 Rotational temperatures (Kelvin)     12.36547     1.66013     1.50791
 Rotational constants (GHZ):         257.65492    34.59159    31.41975
 Zero-point vibrational energy      60491.7 (Joules/Mol)
                                   14.45786 (Kcal/Mol)
 Vibrational temperatures:   1064.25  1243.71  1842.80  1856.17  4206.67
          (Kelvin)           4337.32

 Zero-point correction=                           0.023040 (Hartree/Particle)
 Thermal correction to Energy=                    0.026056
 Thermal correction to Enthalpy=                  0.027000
 Thermal correction to Gibbs Free Energy=         0.000162
 Sum of electronic and zero-point Energies=           -114.410936
 Sum of electronic and thermal Energies=              -114.407921
 Sum of electronic and thermal Enthalpies=            -114.406977
 Sum of electronic and thermal Free Energies=         -114.433815

                     E (Thermal)             CV                S
                      KCal/Mol        Cal/Mol-Kelvin    Cal/Mol-Kelvin
 Total                   16.350              7.578             56.486
 Electronic               0.000              0.000              2.183
 Translational            0.889              2.981             36.130
 Rotational               0.889              2.981             17.691
 Vibrational             14.573              1.617              0.481

 Optimization completed.
    -- Stationary point found.
 Normal termination of Gaussian 09 at Sun Mar  4 20:56:20 2018.
