 Gaussian 09, Revision D.01,
 Gaussian 09:  ES64L-G09RevD.01 24-Apr-2013

 ---------------------------
 #p b3lyp/6-311++g(d,p) freq
 ---------------------------

 ---
 min
 ---
 Symbolic Z-matrix:
 Charge =  0 Multiplicity = 1

                         Standard orientation:
 ---------------------------------------------------------------------
 Center     Atomic      Atomic             Coordinates (Angstroms)
 Number     Number       Type             X           Y           Z
 ---------------------------------------------------------------------
      1          6           0        0.010866    0.742709   -0.000000
      2          1           0       -1.078721    0.979144   -0.000000
      3          1           0        0.926597   -0.886149    0.000000
      4          8           0        0.010866   -0.568656    0.000000
 ---------------------------------------------------------------------

 SCF Done:  E(RB3LYP) =  -114.458136107     A.U. after   10 cycles

 The electronic state is 1-A'.
 Alpha  occ. eigenvalues --  -19.21926 -10.24711  -1.12444  -0.69541  -0.49313
 Alpha  occ. eigenvalues --   -0.47361  -0.43755  -0.23295
 Alpha virt. eigenvalues --   -0.07085  -0.01792   0.01604   0.06268   0.07156
 Alpha virt. eigenvalues --    0.08411   0.11594   0.13838   0.16218   0.18385
 Alpha virt. eigenvalues --    0.18883   0.22978   0.27630   0.33473   0.47445

 Mulliken charges:
               1
     1  C   -0.298154
     2  H    0.125076
     3  H    0.321918
     4  O   -0.148840
 Sum of Mulliken charges =   0.00000

 Dipole moment (field-independent basis, Debye):
    X=              0.1609    Y=             -1.6532    Z=              0.0000  Tot=              1.6611
 Quadrupole moment (field-independent basis, Debye-Ang):
   XX=            -11.4398   YY=            -14.2585   ZZ=            -12.3672
   XY=             -4.0164   XZ=              0.0000   YZ=             -0.0000

  Exact polarizability:  20.275  -2.488  21.406   0.000   0.000  13.907
 Approx polarizability:  24.276  -4.287  27.945   0.000   0.000  18.422

                      1                      2                      3
                     A"                     A'                     A'
 Frequencies --   1097.6087              1216.3498              1321.0525
 Red. masses --      1.0745                 1.1233                 8.4844
 Frc consts  --      0.7627                 0.9792                 8.7240
 IR Inten    --    127.1022               125.6999                90.7866

                      4                      5                      6
                     A'                     A'                     A'
 Frequencies --   1503.6177              2857.5259              3716.2344
 Red. masses --      1.2096                 1.0827                 1.0664
 Frc consts  --      1.6113                 5.2089                 8.6771
 IR Inten    --     26.6592               142.0486                77.5171

 - Thermochemistry -
 -------------------
 Temperature   298.150 Kelvin.  Pressure   1.00000 Atm.
 Atom     1 has atomic number  6 and mass  12.00000

 Molecular mass:    30.01056 amu.
 Principal axes and moments of inertia in atomic units:
                           1         2         3
     Eigenvalues --     6.20308  49.46843  55.67151
           X           -0.15829   0.98739   0.00000
           Y            0.98739   0.15829   0.00000
           Z            0.00000   0.00000   1.00000
 This molecule is an asymmetric top.
 Rotational symmetry number  1.
 Rotational temperatures (Kelvin)     13.96303     1.75089     1.55580
 Rotational constants (GHZ):         290.94268    36.48269    32.41768
 Zero-point vibrational energy      70055.6 (Joules/Mol)
                                   16.74370 (Kcal/Mol)
 Vibrational temperatures:   1579.21  1750.05  1900.70  2163.37  4111.34
          (Kelvin)           5346.83

 Zero-point correction=                           0.026683 (Hartree/Particle)
 Thermal correction to Energy=                    0.029571
 Thermal correction to Enthalpy=                  0.030516
 Thermal correction to Gibbs Free Energy=         0.004975
 Sum of electronic and zero-point Energies=           -114.431453
 Sum of electronic and thermal Energies=              -114.428565
 Sum of electronic and thermal Enthalpies=            -114.427621
 Sum of electronic and thermal Free Energies=         -114.453161

                     E (Thermal)             CV                S
                      KCal/Mol        Cal/Mol-Kelvin    Cal/Mol-Kelvin
 Total                   18.556              6.650             53.755
 Electronic               0.000              0.000              0.000
 Translational            0.889              2.981             36.130
 Rotational               0.889              2.981             17.486
 Vibrational             16.779              0.689              0.138

 Optimization completed.
    -- Stationary point found.
 Normal termination of Gaussian 09 at Sun Mar  4 20:56:13 2018.
