 Gaussian 09, Revision D.01,
 Gaussian 09:  ES64L-G09RevD.01 24-Apr-2013

 ---------------------------
 #p b3lyp/6-311++g(d,p) freq
 ---------------------------

 ---
 min
 ---
 Symbolic Z-matrix:
 Charge =  1 Multiplicity = 4

                         Standard orientation:
 ---------------------------------------------------------------------
 Center     Atomic      Atomic             Coordinates (Angstroms)
 Number     Number       Type             X           Y           Z
 ---------------------------------------------------------------------
      1          6           0        0.826050   -0.178979    0.004427
      2          1           0        1.383451    0.757219    0.160883
      3          1           0       -1.139775   -0.092543    0.748000
      4          8           0       -0.649997    0.051150   -0.116931
 ---------------------------------------------------------------------

 SCF Done:  E(UB3LYP) =  -113.935327993     A.U. after   14 cycles

 The electronic state is 4-A.
 Alpha  occ. eigenvalues --  -19.64609 -10.59222  -1.47348  -1.02515  -0.88037
 Alpha  occ. eigenvalues --   -0.84418  -0.80283  -0.62487  -0.55073
 Alpha virt. eigenvalues --   -0.28164  -0.20970  -0.16352  -0.11469  -0.10328
 Alpha virt. eigenvalues --   -0.07918  -0.07255  -0.06764  -0.02145  -0.01888
 Alpha virt. eigenvalues --   -0.00704   0.04003   0.09037   0.21700   0.22826

  Beta  occ. eigenvalues --  -19.61655 -10.55754  -1.39543  -0.96703  -0.82190
  Beta  occ. eigenvalues --   -0.76486
  Beta virt. eigenvalues --   -0.58861  -0.39631  -0.33952  -0.25641  -0.17316
  Beta virt. eigenvalues --   -0.14901  -0.09853  -0.08955  -0.06898  -0.06083
  Beta virt. eigenvalues --   -0.04634  -0.01194  -0.00987   0.00311   0.04917

 Mulliken charges and spin densities:
               1          2
     1  C    0.081123   1.940879
     2  H    0.274071   0.057199
     3  H    0.387100  -0.001649
     4  O    0.257706   1.003572
 Sum of Mulliken charges =   1.00000   3.00000

 Dipole moment (field-independent basis, Debye):
    X=             -0.5641    Y=              0.2713    Z=              1.7819  Tot=              1.8887
 Quadrupole moment (field-independent basis, Debye-Ang):
   XX=             -4.4267   YY=             -9.2880   ZZ=             -9.6291
   XY=              1.6489   XZ=             -1.9766   YZ=              0.3315

  Exact polarizability:  17.969   0.698   9.343  -0.613  -0.051   9.933
 Approx polarizability:  22.720   0.941  11.072  -0.295  -0.110  11.927

                      1                      2                      3
                      A                      A                      A
 Frequencies --    485.0540               717.6528               977.5017
 Red. masses --      1.1765                 3.1152                 1.1326
 Frc consts  --      0.1631                 0.9453                 0.6376
 IR Inten    --    109.3872                51.3323               115.9379

                      4                      5                      6
                      A                      A                      A
 Frequencies --   1032.8699              3015.8636              3347.6313
 Red. masses --      1.4619                 1.0817                 1.0669
 Frc consts  --      0.9189                 5.7967                 7.0445
 IR Inten    --     17.3498               134.1178               296.1292

 - Thermochemistry -
 -------------------
 Temperature   298.150 Kelvin.  Pressure   1.00000 Atm.
 Atom     1 has atomic number  6 and mass  12.00000

 Molecular mass:    30.01056 amu.
 Principal axes and moments of inertia in atomic units:
                           1         2         3
     Eigenvalues --     6.00493  67.97541  68.59407
           X            0.99716   0.07179  -0.02279
           Y           -0.06645   0.98095   0.18252
           Z            0.03546  -0.18049   0.98294
 This molecule is an asymmetric top.
 Rotational symmetry number  1.
 Rotational temperatures (Kelvin)     14.42378     1.27419     1.26270
 Rotational constants (GHZ):         300.54307    26.54991    26.31045
 Zero-point vibrational energy      57280.6 (Joules/Mol)
                                   13.69040 (Kcal/Mol)
 Warning -- explicit consideration of   1 degrees of freedom as
           vibrations may cause significant error
 Vibrational temperatures:    697.88  1032.54  1406.41  1486.07  4339.15
          (Kelvin)           4816.49

 Zero-point correction=                           0.021817 (Hartree/Particle)
 Thermal correction to Energy=                    0.025063
 Thermal correction to Enthalpy=                  0.026008
 Thermal correction to Gibbs Free Energy=        -0.001564
 Sum of electronic and zero-point Energies=           -113.913511
 Sum of electronic and thermal Energies=              -113.910265
 Sum of electronic and thermal Enthalpies=            -113.909320
 Sum of electronic and thermal Free Energies=         -113.936892

                     E (Thermal)             CV                S
                      KCal/Mol        Cal/Mol-Kelvin    Cal/Mol-Kelvin
 Total                   15.728              8.786             58.029
 Electronic               0.000              0.000              2.755
 Translational            0.889              2.981             36.130
 Rotational               0.889              2.981             17.977
 Vibrational             13.950              2.824              1.167
 Vibration     1          0.841              1.283              0.697

 Optimization completed.
    -- Stationary point found.
 Normal termination of Gaussian 09 at Thu Jan 24 15:34:56 2019.
