 Gaussian 09, Revision D.01,
 Gaussian 09:  ES64L-G09RevD.01 24-Apr-2013

 ---------------------------
 #p b3lyp/6-311++g(d,p) freq
 ---------------------------

 ---
 min
 ---
 Symbolic Z-matrix:
 Charge =  1 Multiplicity = 2

                         Standard orientation:
 ---------------------------------------------------------------------
 Center     Atomic      Atomic             Coordinates (Angstroms)
 Number     Number       Type             X           Y           Z
 ---------------------------------------------------------------------
      1          6           0        0.103549    0.667831    0.000000
      2          1           0       -0.712006    1.412081    0.000000
      3          1           0       -0.737674   -1.076315   -0.000000
      4          8           0        0.103549   -0.542844   -0.000000
 ---------------------------------------------------------------------

 SCF Done:  E(UB3LYP) =  -114.124215117     A.U. after   12 cycles

 The electronic state is 2-A'.
 Alpha  occ. eigenvalues --  -19.56416 -10.64544  -1.48936  -1.03915  -0.91158
 Alpha  occ. eigenvalues --   -0.79216  -0.78516  -0.58650
 Alpha virt. eigenvalues --   -0.39243  -0.24733  -0.17805  -0.13789  -0.11435
 Alpha virt. eigenvalues --   -0.10066  -0.06825  -0.05967  -0.03012  -0.00463
 Alpha virt. eigenvalues --    0.00214   0.06336   0.08707   0.10357   0.20566

  Beta  occ. eigenvalues --  -19.56231 -10.62849  -1.48291  -1.01885  -0.88814
  Beta  occ. eigenvalues --   -0.78187  -0.76209
  Beta virt. eigenvalues --   -0.41007  -0.36914  -0.23932  -0.17042  -0.13175
  Beta virt. eigenvalues --   -0.11266  -0.09515  -0.06172  -0.05005  -0.02572
  Beta virt. eigenvalues --   -0.00460   0.00366   0.07541   0.09372   0.10703

 Mulliken charges and spin densities:
               1          2
     1  C    0.238631   0.871999
     2  H    0.276567   0.074160
     3  H    0.387055   0.066151
     4  O    0.097747  -0.012310
 Sum of Mulliken charges =   1.00000   1.00000

 Dipole moment (field-independent basis, Debye):
    X=             -2.5421    Y=              0.7585    Z=             -0.0000  Tot=              2.6529
 Quadrupole moment (field-independent basis, Debye-Ang):
   XX=             -8.3481   YY=             -4.6055   ZZ=             -9.7608
   XY=              0.8020   XZ=             -0.0000   YZ=              0.0000

  Exact polarizability:  10.085   0.379  17.317   0.000   0.000   7.785
 Approx polarizability:  12.174   0.667  25.468   0.000   0.000   9.804

                      1                      2                      3
                     A"                     A'                     A'
 Frequencies --    905.6699               950.7224              1114.9721
 Red. masses --      1.2919                 1.0369                 1.4119
 Frc consts  --      0.6243                 0.5522                 1.0341
 IR Inten    --     37.3639                76.4905               177.1548

                      4                      5                      6
                     A'                     A'                     A'
 Frequencies --   1741.3580              3010.9266              3362.7800
 Red. masses --      7.6801                 1.1091                 1.0658
 Frc consts  --     13.7213                 5.9242                 7.1011
 IR Inten    --    108.9666                43.8008               306.5910

 - Thermochemistry -
 -------------------
 Temperature   298.150 Kelvin.  Pressure   1.00000 Atm.
 Atom     1 has atomic number  6 and mass  12.00000

 Molecular mass:    30.01056 amu.
 Principal axes and moments of inertia in atomic units:
                           1         2         3
     Eigenvalues --     4.58768  47.29784  51.88553
           X           -0.02229   0.99975  -0.00000
           Y            0.99975   0.02229  -0.00000
           Z            0.00000   0.00000   1.00000
 This molecule is an asymmetric top.
 Rotational symmetry number  1.
 Rotational temperatures (Kelvin)     18.87963     1.83124     1.66933
 Rotational constants (GHZ):         393.38823    38.15695    34.78313
 Zero-point vibrational energy      66311.6 (Joules/Mol)
                                   15.84885 (Kcal/Mol)
 Vibrational temperatures:   1303.06  1367.88  1604.19  2505.42  4332.05
          (Kelvin)           4838.28

 Zero-point correction=                           0.025257 (Hartree/Particle)
 Thermal correction to Energy=                    0.028212
 Thermal correction to Enthalpy=                  0.029156
 Thermal correction to Gibbs Free Energy=         0.003075
 Sum of electronic and zero-point Energies=           -114.098958
 Sum of electronic and thermal Energies=              -114.096003
 Sum of electronic and thermal Enthalpies=            -114.095059
 Sum of electronic and thermal Free Energies=         -114.121141

                     E (Thermal)             CV                S
                      KCal/Mol        Cal/Mol-Kelvin    Cal/Mol-Kelvin
 Total                   17.703              7.187             54.893
 Electronic               0.000              0.000              1.377
 Translational            0.889              2.981             36.130
 Rotational               0.889              2.981             17.072
 Vibrational             15.926              1.226              0.313

 Optimization completed.
    -- Stationary point found.
 Normal termination of Gaussian 09 at Thu Jan 24 15:34:48 2019.
