 Gaussian 09, Revision D.01,
 Gaussian 09:  ES64L-G09RevD.01 24-Apr-2013

 ---------------------------
 #p b3lyp/6-311++g(d,p) freq
 ---------------------------

 ---
 min
 ---
 Symbolic Z-matrix:
 Charge =  0 Multiplicity = 1

                         Standard orientation:
 ---------------------------------------------------------------------
 Center     Atomic      Atomic             Coordinates (Angstroms)
 Number     Number       Type             X           Y           Z
 ---------------------------------------------------------------------
      1          6           0       -0.000000   -0.000000   -0.527459
      2          1           0       -0.000000    0.939885   -1.114584
      3          1           0        0.000000   -0.939885   -1.114584
      4          8           0        0.000000    0.000000    0.674240
 ---------------------------------------------------------------------

 SCF Done:  E(RB3LYP) =  -114.541848958     A.U. after    9 cycles

 The electronic state is 1-A1.
 Alpha  occ. eigenvalues --  -19.15092 -10.27888  -1.07695  -0.64504  -0.50772
 Alpha  occ. eigenvalues --   -0.46483  -0.41437  -0.28189
 Alpha virt. eigenvalues --   -0.06425  -0.00657   0.02517   0.03916   0.06476
 Alpha virt. eigenvalues --    0.10756   0.10921   0.13195   0.18610   0.18702
 Alpha virt. eigenvalues --    0.21976   0.27072   0.29442   0.37283   0.46436

 Mulliken charges:
               1
     1  C    0.038134
     2  H    0.100306
     3  H    0.100306
     4  O   -0.238745
 Sum of Mulliken charges =  -0.00000

 Dipole moment (field-independent basis, Debye):
    X=             -0.0000    Y=              0.0000    Z=             -2.4601  Tot=              2.4601
 Quadrupole moment (field-independent basis, Debye-Ang):
   XX=            -11.7517   YY=            -11.7509   ZZ=            -12.4819
   XY=             -0.0000   XZ=             -0.0000   YZ=             -0.0000

  Exact polarizability:   9.329  -0.000  15.800   0.000   0.000  22.051
 Approx polarizability:  11.787  -0.000  18.383   0.000  -0.000  33.562

                      1                      2                      3
                     B1                     B2                     A1
 Frequencies --   1202.1526              1259.7416              1530.9484
 Red. masses --      1.3679                 1.3441                 1.1041
 Frc consts  --      1.1647                 1.2568                 1.5247
 IR Inten    --      4.6900                 9.3287                 9.1563

                      4                      5                      6
                     A1                     A1                     B2
 Frequencies --   1814.9543              2884.6128              2942.5507
 Red. masses --      7.5318                 1.0432                 1.1205
 Frc consts  --     14.6178                 5.1145                 5.7162
 IR Inten    --    123.2973                72.1103               135.9980

 - Thermochemistry -
 -------------------
 Temperature   298.150 Kelvin.  Pressure   1.00000 Atm.
 Atom     1 has atomic number  6 and mass  12.00000

 Molecular mass:    30.01056 amu.
 Principal axes and moments of inertia in atomic units:
                           1         2         3
     Eigenvalues --     6.35862  46.25022  52.60884
           X            0.00000  -0.00000   1.00000
           Y           -0.00000   1.00000   0.00000
           Z            1.00000   0.00000  -0.00000
 This molecule is an asymmetric top.
 Rotational symmetry number  2.
 Rotational temperatures (Kelvin)     13.62149     1.87272     1.64637
 Rotational constants (GHZ):         283.82611    39.02124    34.30491
 Zero-point vibrational energy      69592.5 (Joules/Mol)
                                   16.63301 (Kcal/Mol)
 Vibrational temperatures:   1729.63  1812.48  2202.69  2611.31  4150.31
          (Kelvin)           4233.67

 Zero-point correction=                           0.026506 (Hartree/Particle)
 Thermal correction to Energy=                    0.029374
 Thermal correction to Enthalpy=                  0.030319
 Thermal correction to Gibbs Free Energy=         0.005504
 Sum of electronic and zero-point Energies=           -114.515343
 Sum of electronic and thermal Energies=              -114.512475
 Sum of electronic and thermal Enthalpies=            -114.511530
 Sum of electronic and thermal Free Energies=         -114.536345

                     E (Thermal)             CV                S
                      KCal/Mol        Cal/Mol-Kelvin    Cal/Mol-Kelvin
 Total                   18.433              6.426             52.228
 Electronic               0.000              0.000              0.000
 Translational            0.889              2.981             36.130
 Rotational               0.889              2.981             16.011
 Vibrational             16.655              0.464              0.087

 Optimization completed.
    -- Stationary point found.
 Normal termination of Gaussian 09 at Sun Mar  4 20:56:11 2018.
