 Gaussian 09, Revision D.01,
 Gaussian 09:  ES64L-G09RevD.01 24-Apr-2013

 ---------------------------
 #p b3lyp/6-311++g(d,p) freq
 ---------------------------

 ---
 min
 ---
 Symbolic Z-matrix:
 Charge =  1 Multiplicity = 4

                         Standard orientation:
 ---------------------------------------------------------------------
 Center     Atomic      Atomic             Coordinates (Angstroms)
 Number     Number       Type             X           Y           Z
 ---------------------------------------------------------------------
      1          6           0       -0.060129    0.675211   -0.000000
      2          1           0        0.420901    1.035728    0.939379
      3          1           0        0.420901    1.035728   -0.939379
      4          8           0       -0.060129   -0.765340    0.000000
 ---------------------------------------------------------------------

 SCF Done:  E(UB3LYP) =  -113.951366528     A.U. after   13 cycles

 The electronic state is 4-A".
 Alpha  occ. eigenvalues --  -19.69141 -10.59722  -1.47894  -1.02225  -0.87408
 Alpha  occ. eigenvalues --   -0.87200  -0.83315  -0.73297  -0.58976
 Alpha virt. eigenvalues --   -0.23594  -0.19877  -0.15486  -0.11804  -0.10077
 Alpha virt. eigenvalues --   -0.09722  -0.07447  -0.03952  -0.02434  -0.02433
 Alpha virt. eigenvalues --   -0.00938  -0.00755   0.07804   0.18195   0.22055

  Beta  occ. eigenvalues --  -19.64092 -10.57862  -1.35147  -0.95281  -0.78901
  Beta  occ. eigenvalues --   -0.76730
  Beta virt. eigenvalues --   -0.59096  -0.55119  -0.36969  -0.20345  -0.18369
  Beta virt. eigenvalues --   -0.14322  -0.10145  -0.08619  -0.08197  -0.05852
  Beta virt. eigenvalues --   -0.03443  -0.01603  -0.01594   0.00509   0.00561

 Mulliken charges and spin densities:
               1          2
     1  C   -0.079583   1.070215
     2  H    0.300759   0.085793
     3  H    0.300759   0.085793
     4  O    0.478064   1.758199
 Sum of Mulliken charges =   1.00000   3.00000

 Dipole moment (field-independent basis, Debye):
    X=              0.7650    Y=              1.4082    Z=             -0.0000  Tot=              1.6025
 Quadrupole moment (field-independent basis, Debye-Ang):
   XX=             -9.6856   YY=             -6.8500   ZZ=             -7.7229
   XY=              1.4031   XZ=             -0.0000   YZ=             -0.0000

  Exact polarizability:   9.575   1.784  19.950  -0.000  -0.000  12.232
 Approx polarizability:  11.327   3.278  31.271  -0.000  -0.000  15.419

                      1                      2                      3
                     A'                     A"                     A'
 Frequencies --    677.4558               798.0421               939.6342
 Red. masses --      1.9798                 1.1908                 2.5164
 Frc consts  --      0.5353                 0.4468                 1.3090
 IR Inten    --     56.1998                 0.3542                21.5188

                      4                      5                      6
                     A'                     A'                     A"
 Frequencies --   1182.9942              2816.9759              2883.8221
 Red. masses --      1.0962                 1.0387                 1.1049
 Frc consts  --      0.9039                 4.8564                 5.4141
 IR Inten    --    123.7945               296.8089               174.5802

 - Thermochemistry -
 -------------------
 Temperature   298.150 Kelvin.  Pressure   1.00000 Atm.
 Atom     1 has atomic number  6 and mass  12.00000

 Molecular mass:    30.01056 amu.
 Principal axes and moments of inertia in atomic units:
                           1         2         3
     Eigenvalues --     7.65737  61.76868  66.81484
           X            0.06476   0.00000   0.99790
           Y            0.99790   0.00000  -0.06476
           Z           -0.00000   1.00000  -0.00000
 This molecule is an asymmetric top.
 Rotational symmetry number  1.
 Rotational temperatures (Kelvin)     11.31117     1.40223     1.29633
 Rotational constants (GHZ):         235.68690    29.21774    27.01108
 Zero-point vibrational energy      55619.9 (Joules/Mol)
                                   13.29348 (Kcal/Mol)
 Vibrational temperatures:    974.71  1148.20  1351.92  1702.06  4052.99
          (Kelvin)           4149.17

 Zero-point correction=                           0.021185 (Hartree/Particle)
 Thermal correction to Energy=                    0.024283
 Thermal correction to Enthalpy=                  0.025227
 Thermal correction to Gibbs Free Energy=        -0.002183
 Sum of electronic and zero-point Energies=           -113.930182
 Sum of electronic and thermal Energies=              -113.927084
 Sum of electronic and thermal Enthalpies=            -113.926140
 Sum of electronic and thermal Free Energies=         -113.953550

                     E (Thermal)             CV                S
                      KCal/Mol        Cal/Mol-Kelvin    Cal/Mol-Kelvin
 Total                   15.238              8.154             57.689
 Electronic               0.000              0.000              2.755
 Translational            0.889              2.981             36.130
 Rotational               0.889              2.981             18.098
 Vibrational             13.460              2.192              0.706

 Optimization completed.
    -- Stationary point found.
 Normal termination of Gaussian 09 at Thu Jan 24 15:34:49 2019.
