 Gaussian 09, Revision D.01,
 Gaussian 09:  ES64L-G09RevD.01 24-Apr-2013

 ---------------------------
 #p b3lyp/6-311++g(d,p) freq
 ---------------------------

 ---
 min
 ---
 Symbolic Z-matrix:
 Charge =  0 Multiplicity = 1

                         Standard orientation:
 ---------------------------------------------------------------------
 Center     Atomic      Atomic             Coordinates (Angstroms)
 Number     Number       Type             X           Y           Z
 ---------------------------------------------------------------------
      1          6           0       -0.000000   -0.000000   -0.979371
      2          1           0        0.000000    0.814915    1.031160
      3          1           0       -0.000000   -0.814915    1.031160
      4          8           0        0.000000    0.000000    0.476739
 ---------------------------------------------------------------------

 SCF Done:  E(RB3LYP) =  -114.287868071     A.U. after   13 cycles

 The electronic state is 1-A1.
 Alpha  occ. eigenvalues --  -19.29312 -10.20242  -1.16783  -0.69634  -0.67059
 Alpha  occ. eigenvalues --   -0.47587  -0.33649  -0.14112
 Alpha virt. eigenvalues --   -0.06548  -0.05461  -0.00681   0.06152   0.07390
 Alpha virt. eigenvalues --    0.07928   0.10965   0.11155   0.12456   0.14320
 Alpha virt. eigenvalues --    0.16029   0.21269   0.25218   0.27207   0.45596

 Mulliken charges:
               1
     1  C   -0.482149
     2  H    0.332784
     3  H    0.332784
     4  O   -0.183418
 Sum of Mulliken charges =  -0.00000

 Dipole moment (field-independent basis, Debye):
    X=             -0.0000    Y=             -0.0000    Z=              5.6761  Tot=              5.6761
 Quadrupole moment (field-independent basis, Debye-Ang):
   XX=            -12.9735   YY=            -14.2089   ZZ=            -14.0287
   XY=              0.0000   XZ=             -0.0000   YZ=              0.0000

  Exact polarizability:  13.527   0.000  27.544   0.000   0.000  40.720
 Approx polarizability:  19.245   0.000  29.337   0.000  -0.000  52.938

                      1                      2                      3
                     A1                     B1                     B2
 Frequencies --    472.2163               610.8477               806.4834
 Red. masses --     12.1044                 1.2530                 1.1780
 Frc consts  --      1.5903                 0.2755                 0.4514
 IR Inten    --      0.4968               309.9024               223.9511

                      4                      5                      6
                     A1                     B2                     A1
 Frequencies --   1626.2373              2867.9467              3294.7809
 Red. masses --      1.0668                 1.1305                 1.0235
 Frc consts  --      1.6622                 5.4783                 6.5464
 IR Inten    --     40.3741                59.3117               329.8649

 - Thermochemistry -
 -------------------
 Temperature   298.150 Kelvin.  Pressure   1.00000 Atm.
 Atom     1 has atomic number  6 and mass  12.00000

 Molecular mass:    30.01056 amu.
 Principal axes and moments of inertia in atomic units:
                           1         2         3
     Eigenvalues --     4.78011  61.23918  66.01929
           X            0.00000  -0.00000   1.00000
           Y            0.00000   1.00000   0.00000
           Z            1.00000  -0.00000  -0.00000
 This molecule is an asymmetric top.
 Rotational symmetry number  2.
 Rotational temperatures (Kelvin)     18.11963     1.41435     1.31195
 Rotational constants (GHZ):         377.55222    29.47037    27.33657
 Zero-point vibrational energy      57890.4 (Joules/Mol)
                                   13.83613 (Kcal/Mol)
 Warning -- explicit consideration of   2 degrees of freedom as
           vibrations may cause significant error
 Vibrational temperatures:    679.41   878.87  1160.35  2339.79  4126.33
          (Kelvin)           4740.45

 Zero-point correction=                           0.022049 (Hartree/Particle)
 Thermal correction to Energy=                    0.025361
 Thermal correction to Enthalpy=                  0.026305
 Thermal correction to Gibbs Free Energy=         0.000774
 Sum of electronic and zero-point Energies=           -114.265819
 Sum of electronic and thermal Energies=              -114.262507
 Sum of electronic and thermal Enthalpies=            -114.261563
 Sum of electronic and thermal Free Energies=         -114.287094

                     E (Thermal)             CV                S
                      KCal/Mol        Cal/Mol-Kelvin    Cal/Mol-Kelvin
 Total                   15.914              8.971             53.734
 Electronic               0.000              0.000              0.000
 Translational            0.889              2.981             36.130
 Rotational               0.889              2.981             16.232
 Vibrational             14.137              3.009              1.372
 Vibration     1          0.829              1.312              0.731
 Vibration     2          0.970              1.009              0.431

 Optimization completed.
    -- Stationary point found.
 Normal termination of Gaussian 09 at Sun Mar  4 20:56:11 2018.
