 Gaussian 09, Revision D.01,
 Gaussian 09:  ES64L-G09RevD.01 24-Apr-2013

 ---------------------------
 #p b3lyp/6-311++g(d,p) freq
 ---------------------------

 ---
 min
 ---
 Symbolic Z-matrix:
 Charge =  1 Multiplicity = 2

                         Standard orientation:
 ---------------------------------------------------------------------
 Center     Atomic      Atomic             Coordinates (Angstroms)
 Number     Number       Type             X           Y           Z
 ---------------------------------------------------------------------
      1          6           0        0.000000    0.000000   -0.939833
      2          1           0       -0.000000    0.840916    0.986155
      3          1           0       -0.000000   -0.840916    0.986155
      4          8           0       -0.000000   -0.000000    0.458336
 ---------------------------------------------------------------------

 SCF Done:  E(UB3LYP) =  -114.044011818     A.U. after   11 cycles

 The electronic state is 2-B2.
 Alpha  occ. eigenvalues --  -19.59563 -10.60323  -1.48406  -1.04012  -0.97967
 Alpha  occ. eigenvalues --   -0.78199  -0.67743  -0.53329
 Alpha virt. eigenvalues --   -0.38081  -0.28342  -0.20620  -0.13492  -0.11197
 Alpha virt. eigenvalues --   -0.10825  -0.09308  -0.06840  -0.04889  -0.04053
 Alpha virt. eigenvalues --   -0.02118  -0.01501   0.04454   0.07953   0.22426

  Beta  occ. eigenvalues --  -19.59643 -10.58677  -1.48053  -1.01896  -0.97229
  Beta  occ. eigenvalues --   -0.78257  -0.63953
  Beta virt. eigenvalues --   -0.36250  -0.34989  -0.27918  -0.20274  -0.12392
  Beta virt. eigenvalues --   -0.11131  -0.10391  -0.08868  -0.05287  -0.04639
  Beta virt. eigenvalues --   -0.03799  -0.02097  -0.00929   0.05201   0.07998

 Mulliken charges and spin densities:
               1          2
     1  C    0.164545   0.975293
     2  H    0.421210   0.033915
     3  H    0.421210   0.033915
     4  O   -0.006964  -0.043122
 Sum of Mulliken charges =   1.00000   1.00000

 Dipole moment (field-independent basis, Debye):
    X=             -0.0000    Y=              0.0000    Z=              3.3387  Tot=              3.3387
 Quadrupole moment (field-independent basis, Debye-Ang):
   XX=            -10.3806   YY=             -7.4876   ZZ=             -6.5683
   XY=             -0.0000   XZ=              0.0000   YZ=              0.0000

  Exact polarizability:  10.395   0.000  13.108   0.000   0.000  18.731
 Approx polarizability:  14.978  -0.000  15.326  -0.000   0.000  25.010

                      1                      2                      3
                     B1                     A1                     B2
 Frequencies --    578.9462               865.7286               938.7832
 Red. masses --      1.2516                 8.3305                 1.2266
 Frc consts  --      0.2472                 3.6786                 0.6369
 IR Inten    --    381.1369               157.0416                17.7820

                      4                      5                      6
                     A1                     A1                     B2
 Frequencies --   1624.2302              3388.9881              3474.2026
 Red. masses --      1.1010                 1.0323                 1.0979
 Frc consts  --      1.7114                 6.9852                 7.8075
 IR Inten    --    136.3435               208.5929               432.0309

 - Thermochemistry -
 -------------------
 Temperature   298.150 Kelvin.  Pressure   1.00000 Atm.
 Atom     1 has atomic number  6 and mass  12.00000

 Molecular mass:    30.01056 amu.
 Principal axes and moments of inertia in atomic units:
                           1         2         3
     Eigenvalues --     5.09000  56.39362  61.48363
           X           -0.00000   0.00000   1.00000
           Y           -0.00000   1.00000  -0.00000
           Z            1.00000   0.00000   0.00000
 This molecule is an asymmetric top.
 Rotational symmetry number  2.
 Rotational temperatures (Kelvin)     17.01646     1.53588     1.40873
 Rotational constants (GHZ):         354.56587    32.00258    29.35320
 Zero-point vibrational energy      65022.3 (Joules/Mol)
                                   15.54070 (Kcal/Mol)
 Warning -- explicit consideration of   1 degrees of freedom as
           vibrations may cause significant error
 Vibrational temperatures:    832.97  1245.59  1350.70  2336.90  4875.99
          (Kelvin)           4998.60

 Zero-point correction=                           0.024766 (Hartree/Particle)
 Thermal correction to Energy=                    0.027881
 Thermal correction to Enthalpy=                  0.028825
 Thermal correction to Gibbs Free Energy=         0.002967
 Sum of electronic and zero-point Energies=           -114.019246
 Sum of electronic and thermal Energies=              -114.016131
 Sum of electronic and thermal Enthalpies=            -114.015187
 Sum of electronic and thermal Free Energies=         -114.041045

                     E (Thermal)             CV                S
                      KCal/Mol        Cal/Mol-Kelvin    Cal/Mol-Kelvin
 Total                   17.496              8.084             54.423
 Electronic               0.000              0.000              1.377
 Translational            0.889              2.981             36.130
 Rotational               0.889              2.981             16.141
 Vibrational             15.718              2.123              0.774
 Vibration     1          0.936              1.077              0.487

 Optimization completed.
    -- Stationary point found.
 Normal termination of Gaussian 09 at Thu Jan 24 15:34:45 2019.
