 Gaussian 09, Revision D.01,
 Gaussian 09:  ES64L-G09RevD.01 24-Apr-2013

 ---------------------------
 #p b3lyp/6-311++g(d,p) freq
 ---------------------------

 ---
 min
 ---
 Symbolic Z-matrix:
 Charge =  1 Multiplicity = 2

                         Standard orientation:
 ---------------------------------------------------------------------
 Center     Atomic      Atomic             Coordinates (Angstroms)
 Number     Number       Type             X           Y           Z
 ---------------------------------------------------------------------
      1          1           0        0.000000    0.971705   -0.312949
      2          1           0       -0.000000   -0.971705   -0.312949
      3          8           0       -0.000000    0.000000    0.078237
 ---------------------------------------------------------------------

 SCF Done:  E(UB3LYP) =  -75.9790393662     A.U. after    9 cycles

 The electronic state is 2-B1.
 Alpha  occ. eigenvalues --  -19.65698  -1.47038  -0.99626  -0.85072  -0.79842
 Alpha virt. eigenvalues --   -0.33163  -0.22790  -0.13354  -0.10527  -0.09448
 Alpha virt. eigenvalues --   -0.07113  -0.01876  -0.00620   0.16273   0.23482
 Alpha virt. eigenvalues --    0.58865   0.60572   0.63871   0.80117   0.93147

  Beta  occ. eigenvalues --  -19.62910  -1.39592  -0.97637  -0.76864
  Beta virt. eigenvalues --   -0.58891  -0.32202  -0.22218  -0.13122  -0.09173
  Beta virt. eigenvalues --   -0.08315  -0.07072  -0.01330  -0.00464   0.16538
  Beta virt. eigenvalues --    0.23590   0.61742   0.64736   0.65989   0.81341

 Mulliken charges and spin densities:
               1          2
     1  H    0.446727  -0.026556
     2  H    0.446727  -0.026556
     3  O    0.106546   1.053112
 Sum of Mulliken charges =   1.00000   1.00000

 Dipole moment (field-independent basis, Debye):
    X=             -0.0000    Y=              0.0000    Z=             -1.7004  Tot=              1.7004
 Quadrupole moment (field-independent basis, Debye-Ang):
   XX=             -4.8984   YY=              0.0886   ZZ=             -5.3826
   XY=              0.0000   XZ=              0.0000   YZ=             -0.0000

  Exact polarizability:   3.054   0.000   7.275   0.000  -0.000   3.651
 Approx polarizability:   3.104   0.000   9.012   0.000  -0.000   3.942

                      1                      2                      3
                     A1                     A1                     B2
 Frequencies --    979.0006              2807.3053              2947.8156
 Red. masses --      1.1035                 1.0265                 1.1095
 Frc consts  --      0.6232                 4.7662                 5.6806
 IR Inten    --    314.0645                82.6893               885.1138

 - Thermochemistry -
 -------------------
 Temperature   298.150 Kelvin.  Pressure   1.00000 Atm.
 Atom     1 has atomic number  1 and mass   1.00783

 Molecular mass:    18.01056 amu.
 Principal axes and moments of inertia in atomic units:
                           1         2         3
     Eigenvalues --     0.97822   6.79645   7.77467
           X            0.00000   0.00000   1.00000
           Y            1.00000   0.00000  -0.00000
           Z           -0.00000   1.00000  -0.00000
 This molecule is an asymmetric top.
 Rotational symmetry number  2.
 Rotational temperatures (Kelvin)     88.54241    12.74398    11.14052
 Rotational constants (GHZ):        1844.92667   265.54175   232.13096
 Zero-point vibrational energy      40279.0 (Joules/Mol)
                                    9.62691 (Kcal/Mol)
 Vibrational temperatures:   1408.56  4039.08  4241.24
          (Kelvin)

 Zero-point correction=                           0.015341 (Hartree/Particle)
 Thermal correction to Energy=                    0.018214
 Thermal correction to Enthalpy=                  0.019158
 Thermal correction to Gibbs Free Energy=        -0.002904
 Sum of electronic and zero-point Energies=            -75.963698
 Sum of electronic and thermal Energies=               -75.960825
 Sum of electronic and thermal Enthalpies=             -75.959881
 Sum of electronic and thermal Free Energies=          -75.981943

                     E (Thermal)             CV                S
                      KCal/Mol        Cal/Mol-Kelvin    Cal/Mol-Kelvin
 Total                   11.429              6.363             46.433
 Electronic               0.000              0.000              1.377
 Translational            0.889              2.981             34.608
 Rotational               0.889              2.981             10.345
 Vibrational              9.652              0.402              0.102

 Normal termination of Gaussian 09 at Thu Jan 24 15:32:03 2019.
