 Gaussian 09, Revision D.01,
 Gaussian 09:  ES64L-G09RevD.01 24-Apr-2013

 ---------------------------
 #p b3lyp/6-311++g(d,p) freq
 ---------------------------

 ---
 min
 ---
 Symbolic Z-matrix:
 Charge =  0 Multiplicity = 1

                         Standard orientation:
 ---------------------------------------------------------------------
 Center     Atomic      Atomic             Coordinates (Angstroms)
 Number     Number       Type             X           Y           Z
 ---------------------------------------------------------------------
      1          1           0        0.000000    0.763607   -0.468000
      2          1           0       -0.000000   -0.763607   -0.468000
      3          8           0        0.000000    0.000000    0.117000
 ---------------------------------------------------------------------

 SCF Done:  E(RB3LYP) =  -76.4585307393     A.U. after    8 cycles

 The electronic state is 1-A1.
 Alpha  occ. eigenvalues --  -19.13330  -1.02327  -0.54331  -0.39673  -0.32296
 Alpha virt. eigenvalues --   -0.02329   0.02923   0.13821   0.15124   0.15359
 Alpha virt. eigenvalues --    0.15368   0.22030   0.22521   0.49842   0.54457
 Alpha virt. eigenvalues --    0.95440   0.99294   1.00323   1.23094   1.25022

 Mulliken charges:
               1
     1  H    0.251259
     2  H    0.251259
     3  O   -0.502517
 Sum of Mulliken charges =   0.00000

 Dipole moment (field-independent basis, Debye):
    X=             -0.0000    Y=              0.0000    Z=             -2.1587  Tot=              2.1587
 Quadrupole moment (field-independent basis, Debye-Ang):
   XX=             -7.8055   YY=             -4.4418   ZZ=             -6.5447
   XY=              0.0000   XZ=              0.0000   YZ=             -0.0000

  Exact polarizability:   6.930  -0.000   8.320  -0.000   0.000   6.888
 Approx polarizability:   7.023   0.000  10.132   0.000   0.000   7.991

                      1                      2                      3
                     A1                     A1                     B2
 Frequencies --   1601.8978              3818.9376              3924.3421
 Red. masses --      1.0829                 1.0449                 1.0824
 Frc consts  --      1.6373                 8.9788                 9.8217
 IR Inten    --     66.7924                 9.2295                57.0032

 - Thermochemistry -
 -------------------
 Temperature   298.150 Kelvin.  Pressure   1.00000 Atm.
 Atom     1 has atomic number  1 and mass   1.00783

 Molecular mass:    18.01056 amu.
 Principal axes and moments of inertia in atomic units:
                           1         2         3
     Eigenvalues --     2.18766   4.19713   6.38479
           X            0.00000   0.00000   1.00000
           Y            1.00000   0.00000  -0.00000
           Z           -0.00000   1.00000  -0.00000
 This molecule is an asymmetric top.
 Rotational symmetry number  2.
 Rotational temperatures (Kelvin)     39.59200    20.63642    13.56564
 Rotational constants (GHZ):         824.96443   429.99378   282.66246
 Zero-point vibrational energy      55896.6 (Joules/Mol)
                                   13.35960 (Kcal/Mol)
 Vibrational temperatures:   2304.77  5494.59  5646.25
          (Kelvin)

 Zero-point correction=                           0.021290 (Hartree/Particle)
 Thermal correction to Energy=                    0.024126
 Thermal correction to Enthalpy=                  0.025070
 Thermal correction to Gibbs Free Energy=         0.003648
 Sum of electronic and zero-point Energies=            -76.437241
 Sum of electronic and thermal Energies=               -76.434405
 Sum of electronic and thermal Enthalpies=             -76.433461
 Sum of electronic and thermal Free Energies=          -76.454883

                     E (Thermal)             CV                S
                      KCal/Mol        Cal/Mol-Kelvin    Cal/Mol-Kelvin
 Total                   15.139              6.014             45.087
 Electronic               0.000              0.000              0.000
 Translational            0.889              2.981             34.608
 Rotational               0.889              2.981             10.471
 Vibrational             13.362              0.052              0.008

 Optimization completed.
    -- Stationary point found.

 1\1\ CITASK-GV1335\Freq\RB3LYP\6-311++G(d,p)\H2O1\EERD\04-Mar-2018\0\\
 #p b3lyp/6-311++g(d,p) freq\\min\\0,1\H,0.653684566,0.804541692,0.\H,1
 .1971884339,-0.6226886923,0.\O,0.378735,-0.117263,0.\\Version=ES64L-G0
 9RevD.01\State=1-A1\HF=-76.4585307\RMSD=2.961e-09\RMSF=1.013e-04\ZeroP
 oint=0.0212899\Thermal=0.0241256\Dipole=0.7936794,0.3022412,0.\DipoleD
 eriv=0.238925,-0.1020522,0.,-0.0610237,0.2041267,0.,0.,0.,0.3841231,0.
 142533,0.0471845,0.,0.006156,0.3005187,0.,0.,0.,0.3841231,-0.381458,0.
 0548678,0.,0.0548678,-0.5046454,0.,0.,0.,-0.7682461\Polar=7.0691797,-0

 Normal termination of Gaussian 09 at Sun Mar  4 20:55:23 2018.
