 Gaussian 09, Revision D.01,
 Gaussian 09:  ES64L-G09RevD.01 24-Apr-2013

 ---------------------------
 #p b3lyp/6-311++g(d,p) freq
 ---------------------------

 ---
 min
 ---
 Symbolic Z-matrix:
 Charge =  1 Multiplicity = 2

                         Standard orientation:
 ---------------------------------------------------------------------
 Center     Atomic      Atomic             Coordinates (Angstroms)
 Number     Number       Type             X           Y           Z
 ---------------------------------------------------------------------
      1          1           0       -0.000000    0.822876   -0.462430
      2          1           0       -0.000000   -0.822876   -0.462430
      3          8           0        0.000000    0.000000    0.115608
 ---------------------------------------------------------------------

 SCF Done:  E(UB3LYP) =  -75.9926272370     A.U. after    9 cycles

 The electronic state is 2-B1.
 Alpha  occ. eigenvalues --  -19.68168  -1.51116  -0.99475  -0.87163  -0.85359
 Alpha virt. eigenvalues --   -0.30703  -0.22976  -0.10751  -0.10422  -0.09018
 Alpha virt. eigenvalues --   -0.08990  -0.01802  -0.00459   0.19620   0.21007
 Alpha virt. eigenvalues --    0.57969   0.58438   0.64004   0.82978   0.89844

  Beta  occ. eigenvalues --  -19.65380  -1.43843  -0.97349  -0.82333
  Beta virt. eigenvalues --   -0.60812  -0.29746  -0.22431  -0.10009  -0.08999
  Beta virt. eigenvalues --   -0.08753  -0.08582  -0.01186  -0.00266   0.19676
  Beta virt. eigenvalues --    0.21586   0.59591   0.65016   0.65035   0.84306

 Mulliken charges and spin densities:
               1          2
     1  H    0.395672  -0.026157
     2  H    0.395672  -0.026157
     3  O    0.208656   1.052314
 Sum of Mulliken charges =   1.00000   1.00000

 Dipole moment (field-independent basis, Debye):
    X=             -0.0000    Y=              0.0000    Z=             -2.2769  Tot=              2.2769
 Quadrupole moment (field-independent basis, Debye-Ang):
   XX=             -4.8042   YY=             -1.6371   ZZ=             -4.5165
   XY=              0.0000   XZ=              0.0000   YZ=             -0.0000

  Exact polarizability:   3.129   0.000   6.065  -0.000   0.000   4.219
 Approx polarizability:   3.294   0.000   7.326   0.000   0.000   4.956

                      1                      2                      3
                     A1                     A1                     B2
 Frequencies --   1416.3749              3341.5457              3393.6861
 Red. masses --      1.0847                 1.0433                 1.0871
 Frc consts  --      1.2821                 6.8633                 7.3766
 IR Inten    --    159.7778               139.9399               454.1775

 - Thermochemistry -
 -------------------
 Temperature   298.150 Kelvin.  Pressure   1.00000 Atm.
 Atom     1 has atomic number  1 and mass   1.00783

 Molecular mass:    18.01056 amu.
 Principal axes and moments of inertia in atomic units:
                           1         2         3
     Eigenvalues --     2.13589   4.87396   7.00985
           X            0.00000   0.00000   1.00000
           Y            1.00000   0.00000   0.00000
           Z            0.00000   1.00000   0.00000
 This molecule is an asymmetric top.
 Rotational symmetry number  2.
 Rotational temperatures (Kelvin)     40.55155    17.77073    12.35601
 Rotational constants (GHZ):         844.95824   370.28238   257.45778
 Zero-point vibrational energy      48757.4 (Joules/Mol)
                                   11.65331 (Kcal/Mol)
 Vibrational temperatures:   2037.84  4807.73  4882.75
          (Kelvin)

 Zero-point correction=                           0.018571 (Hartree/Particle)
 Thermal correction to Energy=                    0.021410
 Thermal correction to Enthalpy=                  0.022354
 Thermal correction to Gibbs Free Energy=         0.000170
 Sum of electronic and zero-point Energies=            -75.974057
 Sum of electronic and thermal Energies=               -75.971217
 Sum of electronic and thermal Enthalpies=             -75.970273
 Sum of electronic and thermal Free Energies=          -75.992457

                     E (Thermal)             CV                S
                      KCal/Mol        Cal/Mol-Kelvin    Cal/Mol-Kelvin
 Total                   13.435              6.062             46.691
 Electronic               0.000              0.000              1.377
 Translational            0.889              2.981             34.608
 Rotational               0.889              2.981             10.688
 Vibrational             11.658              0.100              0.017

 Optimization completed.
    -- Stationary point found.
 Normal termination of Gaussian 09 at Thu Jan 24 15:32:03 2019.
