 Gaussian 09, Revision D.01,
 Gaussian 09:  ES64L-G09RevD.01 24-Apr-2013

 ---------------------------
 #p b3lyp/6-311++g(d,p) freq
 ---------------------------

 ---
 min
 ---
 Symbolic Z-matrix:
 Charge =  1 Multiplicity = 1

                         Standard orientation:
 ---------------------------------------------------------------------
 Center     Atomic      Atomic             Coordinates (Angstroms)
 Number     Number       Type             X           Y           Z
 ---------------------------------------------------------------------
      1          1           0        0.000000    0.440675   -0.254790
      2          1           0        0.000000   -0.000000    0.509581
      3          1           0       -0.000000   -0.440675   -0.254790
 ---------------------------------------------------------------------

 SCF Done:  E(RB3LYP) =  -1.34622477134     A.U. after    6 cycles

 The electronic state is 1-A1.
 Alpha  occ. eigenvalues --   -1.03023
 Alpha virt. eigenvalues --   -0.34137  -0.34093  -0.18207  -0.08095  -0.08085
 Alpha virt. eigenvalues --    0.05229   0.19770   0.19797   0.45456   0.96309
 Alpha virt. eigenvalues --    0.96328   1.05316   1.27135   1.27222   1.80043

 Mulliken charges:
               1
     1  H    0.333121
     2  H    0.333758
     3  H    0.333121
 Sum of Mulliken charges =   1.00000

 Dipole moment (field-independent basis, Debye):
    X=             -0.0000    Y=             -0.0000    Z=              0.0014  Tot=              0.0014
 Quadrupole moment (field-independent basis, Debye-Ang):
   XX=             -1.4586   YY=             -0.2481   ZZ=             -0.2445
   XY=              0.0000   XZ=              0.0000   YZ=              0.0000

  Exact polarizability:   1.113  -0.000   3.623   0.000  -0.000   3.627
 Approx polarizability:   1.165   0.000   4.373   0.000   0.000   4.380

                      1                      2                      3
                     B2                     A1                     A1
 Frequencies --   2681.9788              2693.1791              3393.7448
 Red. masses --      1.0078                 1.0078                 1.0078
 Frc consts  --      4.2712                 4.3069                 6.8390
 IR Inten    --    190.6679               192.3731                 0.0084

 - Thermochemistry -
 -------------------
 Temperature   298.150 Kelvin.  Pressure   1.00000 Atm.
 Atom     1 has atomic number  1 and mass   1.00783

 Molecular mass:     3.02348 amu.
 Principal axes and moments of inertia in atomic units:
                           1         2         3
     Eigenvalues --     1.39781   1.40185   2.79966
           X            0.00000   0.00000   1.00000
           Y            0.00000   1.00000  -0.00000
           Z            1.00000  -0.00000  -0.00000
 This molecule is an asymmetric top.
 Rotational symmetry number  2.
 Rotational temperatures (Kelvin)     61.96374    61.78554    30.93726
 Rotational constants (GHZ):        1291.11648  1287.40332   644.62861
 Zero-point vibrational energy      52449.7 (Joules/Mol)
                                   12.53578 (Kcal/Mol)
 Vibrational temperatures:   3858.76  3874.88  4882.84
          (Kelvin)

 Zero-point correction=                           0.019977 (Hartree/Particle)
 Thermal correction to Energy=                    0.022810
 Thermal correction to Enthalpy=                  0.023754
 Thermal correction to Gibbs Free Energy=         0.005981
 Sum of electronic and zero-point Energies=             -1.326248
 Sum of electronic and thermal Energies=                -1.323415
 Sum of electronic and thermal Enthalpies=              -1.322471
 Sum of electronic and thermal Free Energies=           -1.340244

                     E (Thermal)             CV                S
                      KCal/Mol        Cal/Mol-Kelvin    Cal/Mol-Kelvin
 Total                   14.313              5.963             37.406
 Electronic               0.000              0.000              0.000
 Translational            0.889              2.981             29.289
 Rotational               0.889              2.981              8.117
 Vibrational             12.536              0.002              0.000

 Optimization completed.
    -- Stationary point found.
 Normal termination of Gaussian 09 at Thu Jan 24 15:32:31 2019.
