 Gaussian 09, Revision D.01,
 Gaussian 09:  ES64L-G09RevD.01 24-Apr-2013

 ---------------------------
 #p b3lyp/6-311++g(d,p) freq
 ---------------------------

 ---
 min
 ---
 Symbolic Z-matrix:
 Charge =  1 Multiplicity = 1

                         Standard orientation:
 ---------------------------------------------------------------------
 Center     Atomic      Atomic             Coordinates (Angstroms)
 Number     Number       Type             X           Y           Z
 ---------------------------------------------------------------------
      1          6           0        0.000000    0.000000    0.000000
      2          1           0       -0.000000    1.093856    0.000000
      3          1           0        0.947307   -0.546928   -0.000000
      4          1           0       -0.947307   -0.546928    0.000000
 ---------------------------------------------------------------------

 SCF Done:  E(RB3LYP) =  -39.4914721945     A.U. after    6 cycles

 The electronic state is 1-A1'.
 Alpha  occ. eigenvalues --  -10.63533  -1.04771  -0.78711  -0.78711
 Alpha virt. eigenvalues --   -0.48719  -0.21036  -0.15079  -0.15079  -0.11407
 Alpha virt. eigenvalues --   -0.11407  -0.10860  -0.08397  -0.03959  -0.01918
 Alpha virt. eigenvalues --   -0.01918   0.17289   0.17289   0.22923   0.25772

 Mulliken charges:
               1
     1  C    0.194503
     2  H    0.268499
     3  H    0.268499
     4  H    0.268499
 Sum of Mulliken charges =   1.00000

 Dipole moment (field-independent basis, Debye):
    X=              0.0000    Y=             -0.0000    Z=              0.0000  Tot=              0.0000
 Quadrupole moment (field-independent basis, Debye-Ang):
   XX=             -4.0396   YY=             -4.0396   ZZ=             -5.0423
   XY=             -0.0000   XZ=             -0.0000   YZ=             -0.0000

  Exact polarizability:   9.708   0.000   9.708   0.000  -0.000   5.114
 Approx polarizability:  11.465  -0.000  11.465  -0.000  -0.000   7.151

                      1                      2                      3
                     E'                     E'                     A2"
 Frequencies --   1406.1089              1406.1101              1418.3439
 Red. masses --      1.0974                 1.0974                 1.2356
 Frc consts  --      1.2784                 1.2784                 1.4645
 IR Inten    --     19.7840                19.7816                10.7855

                      4                      5                      6
                     A1'                    E'                     E'
 Frequencies --   3016.9173              3212.2213              3212.2215
 Red. masses --      1.0078                 1.1232                 1.1232
 Frc consts  --      5.4046                 6.8282                 6.8282
 IR Inten    --      0.0000                68.6077                68.6036

 - Thermochemistry -
 -------------------
 Temperature   298.150 Kelvin.  Pressure   1.00000 Atm.
 Atom     1 has atomic number  6 and mass  12.00000

 Molecular mass:    15.02348 amu.
 Principal axes and moments of inertia in atomic units:
                           1         2         3
     Eigenvalues --     6.45944   6.45944  12.91887
           X           -0.31330   0.94965   0.00000
           Y            0.94965   0.31330   0.00000
           Z           -0.00000  -0.00000   1.00000
 This molecule is an oblate symmetric top.
 Rotational symmetry number  6.
 Rotational temperatures (Kelvin)     13.40888    13.40888     6.70444
 Rotational constants (GHZ):         279.39606   279.39606   139.69803
 Zero-point vibrational energy      81776.3 (Joules/Mol)
                                   19.54499 (Kcal/Mol)
 Vibrational temperatures:   2023.07  2023.08  2040.68  4340.67  4621.66
          (Kelvin)           4621.66

 Zero-point correction=                           0.031147 (Hartree/Particle)
 Thermal correction to Energy=                    0.034001
 Thermal correction to Enthalpy=                  0.034945
 Thermal correction to Gibbs Free Energy=         0.013749
 Sum of electronic and zero-point Energies=            -39.460325
 Sum of electronic and thermal Energies=               -39.457471
 Sum of electronic and thermal Enthalpies=             -39.456527
 Sum of electronic and thermal Free Energies=          -39.477723

                     E (Thermal)             CV                S
                      KCal/Mol        Cal/Mol-Kelvin    Cal/Mol-Kelvin
 Total                   21.336              6.269             44.611
 Electronic               0.000              0.000              0.000
 Translational            0.889              2.981             34.068
 Rotational               0.889              2.981             10.492
 Vibrational             19.558              0.307              0.052

 Optimization completed.
    -- Stationary point found.
 Normal termination of Gaussian 09 at Thu Jan 24 15:35:07 2019.
