 Gaussian 09, Revision D.01,
 Gaussian 09:  ES64L-G09RevD.01 24-Apr-2013

 ---------------------------
 #p b3lyp/6-311++g(d,p) freq
 ---------------------------

 ---
 min
 ---
 Symbolic Z-matrix:
 Charge =  1 Multiplicity = 3

                         Standard orientation:
 ---------------------------------------------------------------------
 Center     Atomic      Atomic             Coordinates (Angstroms)
 Number     Number       Type             X           Y           Z
 ---------------------------------------------------------------------
      1          6           0       -0.000000    0.157426    0.000000
      2          1           0        0.526318   -0.689195    0.641067
      3          1           0        0.526318   -0.689195   -0.641067
      4          1           0       -1.052636    0.433836   -0.000000
 ---------------------------------------------------------------------

 SCF Done:  E(UB3LYP) =  -39.3591453487     A.U. after   10 cycles

 The electronic state is 3-A".
 Alpha  occ. eigenvalues --  -10.61323  -1.09876  -0.83268  -0.72286  -0.63334
 Alpha virt. eigenvalues --   -0.25838  -0.23708  -0.15417  -0.13097  -0.11840
 Alpha virt. eigenvalues --   -0.11216  -0.08473  -0.05392  -0.03801  -0.01884
 Alpha virt. eigenvalues --    0.14009   0.17606   0.21375   0.24902   0.32106

  Beta  occ. eigenvalues --  -10.58619  -1.01264  -0.80326
  Beta virt. eigenvalues --   -0.54666  -0.42348  -0.23443  -0.17797  -0.14672
  Beta virt. eigenvalues --   -0.12000  -0.10983  -0.09324  -0.07381  -0.04852
  Beta virt. eigenvalues --   -0.02409  -0.01286   0.16106   0.19165   0.23543

 Mulliken charges and spin densities:
               1          2
     1  C    0.074196   1.651210
     2  H    0.324929   0.192536
     3  H    0.324929   0.192536
     4  H    0.275946  -0.036282
 Sum of Mulliken charges =   1.00000   2.00000

 Dipole moment (field-independent basis, Debye):
    X=              0.4418    Y=             -1.5807    Z=             -0.0000  Tot=              1.6413
 Quadrupole moment (field-independent basis, Debye-Ang):
   XX=             -3.9868   YY=             -4.5224   ZZ=             -4.6708
   XY=             -2.1584   XZ=             -0.0000   YZ=              0.0000

  Exact polarizability:   9.884  -2.551   9.675  -0.000  -0.000   9.126
 Approx polarizability:  11.594  -3.387  11.931   0.000   0.000  11.761

                      1                      2                      3
                     A"                     A'                     A'
 Frequencies --    796.8577               805.4169              1259.3669
 Red. masses --      1.1185                 1.1794                 1.0429
 Frc consts  --      0.4184                 0.4508                 0.9745
 IR Inten    --     71.9928                81.0373                15.6381

                      4                      5                      6
                     A"                     A'                     A'
 Frequencies --   2112.9779              2542.7130              3205.7821
 Red. masses --      1.0338                 1.0805                 1.1075
 Frc consts  --      2.7195                 4.1158                 6.7058
 IR Inten    --    230.7072                56.2248               130.3668

 - Thermochemistry -
 -------------------
 Temperature   298.150 Kelvin.  Pressure   1.00000 Atm.
 Atom     1 has atomic number  6 and mass  12.00000

 Molecular mass:    15.02348 amu.
 Principal axes and moments of inertia in atomic units:
                           1         2         3
     Eigenvalues --     4.13812  10.93140  12.70958
           X            0.74847   0.00000   0.66317
           Y           -0.66317   0.00000   0.74847
           Z           -0.00000   1.00000  -0.00000
 This molecule is an asymmetric top.
 Rotational symmetry number  1.
 Rotational temperatures (Kelvin)     20.93072     7.92339     6.81485
 Rotational constants (GHZ):         436.12604   165.09696   141.99851
 Zero-point vibrational energy      64138.5 (Joules/Mol)
                                   15.32946 (Kcal/Mol)
 Vibrational temperatures:   1146.50  1158.81  1811.95  3040.10  3658.39
          (Kelvin)           4612.40

 Zero-point correction=                           0.024429 (Hartree/Particle)
 Thermal correction to Energy=                    0.027431
 Thermal correction to Enthalpy=                  0.028376
 Thermal correction to Gibbs Free Energy=         0.004232
 Sum of electronic and zero-point Energies=            -39.334716
 Sum of electronic and thermal Energies=               -39.331714
 Sum of electronic and thermal Enthalpies=             -39.330770
 Sum of electronic and thermal Free Energies=          -39.354913

                     E (Thermal)             CV                S
                      KCal/Mol        Cal/Mol-Kelvin    Cal/Mol-Kelvin
 Total                   17.213              7.438             50.814
 Electronic               0.000              0.000              2.183
 Translational            0.889              2.981             34.068
 Rotational               0.889              2.981             14.116
 Vibrational             15.436              1.476              0.446

 Optimization completed.
    -- Stationary point found.
 Normal termination of Gaussian 09 at Thu Jan 24 15:35:13 2019.
