 Gaussian 09, Revision D.01,
 Gaussian 09:  ES64L-G09RevD.01 24-Apr-2013

 ---------------------------
 #p b3lyp/6-311++g(d,p) freq
 ---------------------------

 ---
 min
 ---
 Symbolic Z-matrix:
 Charge =  0 Multiplicity = 2

                         Standard orientation:
 ---------------------------------------------------------------------
 Center     Atomic      Atomic             Coordinates (Angstroms)
 Number     Number       Type             X           Y           Z
 ---------------------------------------------------------------------
      1          6           0        0.000000    0.000000    0.000000
      2          1           0       -0.000000    1.080660   -0.000000
      3          1           0        0.935879   -0.540330   -0.000000
      4          1           0       -0.935879   -0.540330    0.000000
 ---------------------------------------------------------------------

 SCF Done:  E(UB3LYP) =  -39.8551878676     A.U. after    9 cycles

 The electronic state is 2-A2".
 Alpha  occ. eigenvalues --  -10.18480  -0.69106  -0.42664  -0.42664  -0.23718
 Alpha virt. eigenvalues --   -0.00302   0.03725   0.03725   0.07130   0.09531
 Alpha virt. eigenvalues --    0.09531   0.12478   0.15266   0.18971   0.18971
 Alpha virt. eigenvalues --    0.42879   0.42879   0.49291   0.53034   0.65261

  Beta  occ. eigenvalues --  -10.17068  -0.65157  -0.41687  -0.41687
  Beta virt. eigenvalues --   -0.08015  -0.00069   0.03690   0.03690   0.09299
  Beta virt. eigenvalues --    0.09473   0.09473   0.13239   0.16618   0.19297
  Beta virt. eigenvalues --    0.19297   0.43193   0.43193   0.51125   0.59044

 Mulliken charges and spin densities:
               1          2
     1  C   -0.385280   1.145409
     2  H    0.128427  -0.048470
     3  H    0.128427  -0.048470
     4  H    0.128427  -0.048470
 Sum of Mulliken charges =  -0.00000   1.00000

 Dipole moment (field-independent basis, Debye):
    X=              0.0000    Y=             -0.0000    Z=             -0.0000  Tot=              0.0000
 Quadrupole moment (field-independent basis, Debye-Ang):
   XX=             -7.2948   YY=             -7.2948   ZZ=             -9.2668
   XY=             -0.0000   XZ=             -0.0000   YZ=              0.0000

  Exact polarizability:  13.492  -0.000  13.492   0.000  -0.000  12.758
 Approx polarizability:  15.889  -0.000  15.889  -0.000  -0.000  13.489

                      1                      2                      3
                     A2"                    E'                     E'
 Frequencies --    536.9941              1402.4375              1402.4390
 Red. masses --      1.2356                 1.1023                 1.1023
 Frc consts  --      0.2099                 1.2774                 1.2774
 IR Inten    --     96.5889                 4.6661                 4.6648

                      4                      5                      6
                     A1'                    E'                     E'
 Frequencies --   3102.6632              3282.5829              3282.5842
 Red. masses --      1.0078                 1.1181                 1.1181
 Frc consts  --      5.7162                 7.0983                 7.0983
 IR Inten    --      0.0000                 4.8291                 4.8280

 - Thermochemistry -
 -------------------
 Temperature   298.150 Kelvin.  Pressure   1.00000 Atm.
 Atom     1 has atomic number  6 and mass  12.00000

 Molecular mass:    15.02348 amu.
 Principal axes and moments of inertia in atomic units:
                           1         2         3
     Eigenvalues --     6.30452   6.30452  12.60904
           X            0.74820   0.66347   0.00000
           Y           -0.66347   0.74820   0.00000
           Z           -0.00000  -0.00000   1.00000
 This molecule is an oblate symmetric top.
 Rotational symmetry number  6.
 Rotational temperatures (Kelvin)     13.73837    13.73837     6.86919
 Rotational constants (GHZ):         286.26154   286.26154   143.13077
 Zero-point vibrational energy      77815.3 (Joules/Mol)
                                   18.59830 (Kcal/Mol)
 Warning -- explicit consideration of   1 degrees of freedom as
           vibrations may cause significant error
 Vibrational temperatures:    772.61  2017.79  2017.79  4464.03  4722.90
          (Kelvin)           4722.90

 Zero-point correction=                           0.029638 (Hartree/Particle)
 Thermal correction to Energy=                    0.032684
 Thermal correction to Enthalpy=                  0.033628
 Thermal correction to Gibbs Free Energy=         0.011548
 Sum of electronic and zero-point Energies=            -39.825550
 Sum of electronic and thermal Energies=               -39.822504
 Sum of electronic and thermal Enthalpies=             -39.821560
 Sum of electronic and thermal Free Energies=          -39.843640

                     E (Thermal)             CV                S
                      KCal/Mol        Cal/Mol-Kelvin    Cal/Mol-Kelvin
 Total                   20.509              7.340             46.472
 Electronic               0.000              0.000              1.377
 Translational            0.889              2.981             34.068
 Rotational               0.889              2.981             10.419
 Vibrational             18.732              1.378              0.607
 Vibration     1          0.892              1.168              0.572

 Optimization completed.
    -- Stationary point found.
 Normal termination of Gaussian 09 at Sun Mar  4 20:56:09 2018.
