 Gaussian 09, Revision D.01,
 Gaussian 09:  ES64L-G09RevD.01 24-Apr-2013

 ---------------------------
 #p b3lyp/6-311++g(d,p) freq
 ---------------------------

 ---
 min
 ---
 Symbolic Z-matrix:
 Charge =  0 Multiplicity = 4

                         Standard orientation:
 ---------------------------------------------------------------------
 Center     Atomic      Atomic             Coordinates (Angstroms)
 Number     Number       Type             X           Y           Z
 ---------------------------------------------------------------------
      1          6           0       -0.092151    0.823798   -0.000000
      2          6           0       -0.092151   -0.673589    0.000000
      3          1           0        0.165471   -1.195337    0.921631
      4          1           0        0.774867    1.489424   -0.000000
      5          1           0        0.165471   -1.195337   -0.921631
 ---------------------------------------------------------------------

 SCF Done:  E(UB3LYP) =  -77.8096927859     A.U. after   11 cycles

 The electronic state is 4-A".
 Alpha  occ. eigenvalues --  -10.22249 -10.21109  -0.76798  -0.60521  -0.45191
 Alpha  occ. eigenvalues --   -0.44421  -0.33357  -0.23132  -0.20611
 Alpha virt. eigenvalues --   -0.00237   0.01658   0.02855   0.05923   0.08224
 Alpha virt. eigenvalues --    0.09333   0.09449   0.10924   0.13431   0.13829
 Alpha virt. eigenvalues --    0.15553   0.15629   0.18374   0.18982   0.26484

  Beta  occ. eigenvalues --  -10.19620 -10.19355  -0.70611  -0.54656  -0.42766
  Beta  occ. eigenvalues --   -0.41441
  Beta virt. eigenvalues --   -0.14966  -0.06024  -0.02935   0.00122   0.02040
  Beta virt. eigenvalues --    0.02998   0.07334   0.08420   0.10997   0.11043
  Beta virt. eigenvalues --    0.11562   0.13967   0.14017   0.16424   0.17784

 Mulliken charges and spin densities:
               1          2
     1  C   -0.119020   1.934017
     2  C   -0.249393   1.050201
     3  H    0.124852   0.005169
     4  H    0.118709   0.005444
     5  H    0.124852   0.005169
 Sum of Mulliken charges =  -0.00000   3.00000

 Dipole moment (field-independent basis, Debye):
    X=              0.9854    Y=             -0.5297    Z=             -0.0000  Tot=              1.1187
 Quadrupole moment (field-independent basis, Debye-Ang):
   XX=            -14.2361   YY=            -13.3225   ZZ=            -13.5120
   XY=              0.6088   XZ=             -0.0000   YZ=              0.0000

  Exact polarizability:  19.453   1.301  29.152   0.000   0.000  20.727
 Approx polarizability:  22.851   1.663  33.129  -0.000   0.000  24.891

                      1                      2                      3
                     A"                     A'                     A"
 Frequencies --    584.3970               637.9672               946.3886
 Red. masses --      1.0863                 1.1873                 1.2833
 Frc consts  --      0.2186                 0.2847                 0.6772
 IR Inten    --     15.3070                36.7831                 0.0342

                      4                      5                      6
                     A'                     A'                     A'
 Frequencies --    947.1302              1127.9876              1421.3464
 Red. masses --      1.3874                 4.2927                 1.1202
 Frc consts  --      0.7333                 3.2180                 1.3334
 IR Inten    --      6.8024                 1.4995                 1.2016

                      7                      8                      9
                     A'                     A'                     A"
 Frequencies --   3058.7815              3063.6251              3149.5622
 Red. masses --      1.0496                 1.0834                 1.1148
 Frc consts  --      5.7857                 5.9913                 6.5157
 IR Inten    --     10.4138                48.3937                10.3792

 - Thermochemistry -
 -------------------
 Temperature   298.150 Kelvin.  Pressure   1.00000 Atm.
 Atom     1 has atomic number  6 and mass  12.00000

 Molecular mass:    27.02348 amu.
 Principal axes and moments of inertia in atomic units:
                           1         2         3
     Eigenvalues --     8.96029  69.61479  72.88255
           X            0.03548   0.00000   0.99937
           Y            0.99937   0.00000  -0.03548
           Z           -0.00000   1.00000  -0.00000
 This molecule is an asymmetric top.
 Rotational symmetry number  1.
 Rotational temperatures (Kelvin)      9.66641     1.24419     1.18840
 Rotational constants (GHZ):         201.41558    25.92468    24.76232
 Zero-point vibrational energy      89344.2 (Joules/Mol)
                                   21.35378 (Kcal/Mol)
 Warning -- explicit consideration of   1 degrees of freedom as
           vibrations may cause significant error
 Vibrational temperatures:    840.82   917.89  1361.64  1362.71  1622.92
          (Kelvin)           2045.00  4400.90  4407.87  4531.51

 Zero-point correction=                           0.034029 (Hartree/Particle)
 Thermal correction to Energy=                    0.037291
 Thermal correction to Enthalpy=                  0.038235
 Thermal correction to Gibbs Free Energy=         0.010581
 Sum of electronic and zero-point Energies=            -77.775663
 Sum of electronic and thermal Energies=               -77.772402
 Sum of electronic and thermal Enthalpies=             -77.771458
 Sum of electronic and thermal Free Energies=          -77.799111

                     E (Thermal)             CV                S
                      KCal/Mol        Cal/Mol-Kelvin    Cal/Mol-Kelvin
 Total                   23.400              9.213             58.201
 Electronic               0.000              0.000              2.755
 Translational            0.889              2.981             35.818
 Rotational               0.889              2.981             18.459
 Vibrational             21.623              3.252              1.170
 Vibration     1          0.941              1.065              0.477

 Optimization completed.
    -- Stationary point found.
 Normal termination of Gaussian 09 at Sun Mar  4 21:13:28 2018.
