 Gaussian 09, Revision D.01,
 Gaussian 09:  ES64L-G09RevD.01 24-Apr-2013

 ---------------------------
 #p b3lyp/6-311++g(d,p) freq
 ---------------------------

 ---
 min
 ---
 Symbolic Z-matrix:
 Charge =  0 Multiplicity = 2

                         Standard orientation:
 ---------------------------------------------------------------------
 Center     Atomic      Atomic             Coordinates (Angstroms)
 Number     Number       Type             X           Y           Z
 ---------------------------------------------------------------------
      1          6           0        0.028287   -0.406719   -0.009071
      2          6           0        1.242907    0.102914    0.016259
      3          1           0        1.398787    1.172925    0.149321
      4          1           0        2.110409   -0.536493   -0.074895
      5          1           0       -1.799616   -0.280994    0.486497
      6          8           0       -1.167093    0.183424   -0.075506
 ---------------------------------------------------------------------

 SCF Done:  E(UB3LYP) =  -153.183186904     A.U. after   14 cycles

 The electronic state is 2-A.
 Alpha  occ. eigenvalues --  -19.19427 -10.24925 -10.16897  -1.10296  -0.76926
 Alpha  occ. eigenvalues --   -0.62209  -0.50752  -0.47304  -0.45207  -0.40294
 Alpha  occ. eigenvalues --   -0.26887  -0.23357
 Alpha virt. eigenvalues --   -0.01834   0.00777   0.01415   0.03027   0.06422
 Alpha virt. eigenvalues --    0.07011   0.08219   0.08921   0.10723   0.12645
 Alpha virt. eigenvalues --    0.14850   0.15037   0.16779   0.17333   0.19921

  Beta  occ. eigenvalues --  -19.18963 -10.23494 -10.16862  -1.09109  -0.75475
  Beta  occ. eigenvalues --   -0.61536  -0.48560  -0.45368  -0.43992  -0.38856
  Beta  occ. eigenvalues --   -0.25793
  Beta virt. eigenvalues --   -0.09042  -0.01496   0.01504   0.02310   0.03180
  Beta virt. eigenvalues --    0.06509   0.07594   0.08289   0.09088   0.10800
  Beta virt. eigenvalues --    0.12899   0.14919   0.15279   0.17166   0.17640

 Mulliken charges and spin densities:
               1          2
     1  C   -0.018001   0.948188
     2  C   -0.349192  -0.136121
     3  H    0.113953   0.084931
     4  H    0.141902   0.006075
     5  H    0.295076  -0.001905
     6  O   -0.183737   0.098832
 Sum of Mulliken charges =  -0.00000   1.00000

 Dipole moment (field-independent basis, Debye):
    X=             -0.8208    Y=             -0.3492    Z=              0.9837  Tot=              1.3279
 Quadrupole moment (field-independent basis, Debye-Ang):
   XX=            -14.0375   YY=            -18.6988   ZZ=            -19.7757
   XY=              1.8096   XZ=             -2.2763   YZ=              0.0396

  Exact polarizability:  42.788   3.508  26.987  -1.092  -0.370  22.460
 Approx polarizability:  61.595   7.458  35.126  -1.497  -0.712  28.096

                      1                      2                      3
                      A                      A                      A
 Frequencies --    353.6553               445.6944               625.1724
 Red. masses --      1.1694                 2.4659                 1.3740
 Frc consts  --      0.0862                 0.2886                 0.3164
 IR Inten    --    153.6571                19.6518                12.8752

                      4                      5                      6
                      A                      A                      A
 Frequencies --    826.0502               960.0848              1121.1608
 Red. masses --      1.2905                 1.8609                 2.2472
 Frc consts  --      0.5188                 1.0106                 1.6643
 IR Inten    --     66.9056                40.7824                 7.9834

                      7                      8                      9
                      A                      A                      A
 Frequencies --   1220.5737              1404.1877              1707.0173
 Red. masses --      1.5294                 1.1523                 7.4688
 Frc consts  --      1.3424                 1.3387                12.8227
 IR Inten    --    207.8800                 2.8822               154.8451

                     10                     11                     12
                      A                      A                      A
 Frequencies --   3092.0688              3220.6278              3800.5620
 Red. masses --      1.0642                 1.1057                 1.0660
 Frc consts  --      5.9950                 6.7573                 9.0721
 IR Inten    --      2.9486                 0.8666               128.7728

 - Thermochemistry -
 -------------------
 Temperature   298.150 Kelvin.  Pressure   1.00000 Atm.
 Atom     1 has atomic number  6 and mass  12.00000

 Molecular mass:    43.01839 amu.
 Principal axes and moments of inertia in atomic units:
                           1         2         3
     Eigenvalues --    16.86539 179.87047 194.30058
           X            0.99962   0.02261  -0.01569
           Y           -0.02236   0.99962   0.01637
           Z            0.01605  -0.01601   0.99974
 This molecule is an asymmetric top.
 Rotational symmetry number  1.
 Rotational temperatures (Kelvin)      5.13560     0.48153     0.44577
 Rotational constants (GHZ):         107.00857    10.03356     9.28840
 Zero-point vibrational energy     112310.5 (Joules/Mol)
                                   26.84286 (Kcal/Mol)
 Warning -- explicit consideration of   2 degrees of freedom as
           vibrations may cause significant error
 Vibrational temperatures:    508.83   641.25   899.48  1188.50  1381.35
          (Kelvin)           1613.10  1756.13  2020.31  2456.01  4448.79
                             4633.76  5468.15

 Zero-point correction=                           0.042777 (Hartree/Particle)
 Thermal correction to Energy=                    0.046543
 Thermal correction to Enthalpy=                  0.047487
 Thermal correction to Gibbs Free Energy=         0.017854
 Sum of electronic and zero-point Energies=           -153.140410
 Sum of electronic and thermal Energies=              -153.136644
 Sum of electronic and thermal Enthalpies=            -153.135700
 Sum of electronic and thermal Free Energies=         -153.165333

                     E (Thermal)             CV                S
                      KCal/Mol        Cal/Mol-Kelvin    Cal/Mol-Kelvin
 Total                   29.206             11.505             62.368
 Electronic               0.000              0.000              1.377
 Translational            0.889              2.981             37.204
 Rotational               0.889              2.981             21.005
 Vibrational             27.429              5.543              2.782
 Vibration     1          0.730              1.568              1.150
 Vibration     2          0.805              1.370              0.809

 Optimization completed.
    -- Stationary point found.
 Normal termination of Gaussian 09 at Sun Mar  4 21:08:05 2018.
