 Gaussian 09, Revision D.01,
 Gaussian 09:  ES64L-G09RevD.01 24-Apr-2013

 ---------------------------
 #p b3lyp/6-311++g(d,p) freq
 ---------------------------

 ---
 min
 ---
 Symbolic Z-matrix:
 Charge =  0 Multiplicity = 4

                         Standard orientation:
 ---------------------------------------------------------------------
 Center     Atomic      Atomic             Coordinates (Angstroms)
 Number     Number       Type             X           Y           Z
 ---------------------------------------------------------------------
      1          6           0        0.000000   -0.000000   -0.523960
      2          6           0       -0.000000    0.000000    0.974736
      3          1           0       -0.000000    1.029478   -0.901551
      4          1           0        0.891554   -0.514739   -0.901551
      5          1           0       -0.891554   -0.514739   -0.901551
 ---------------------------------------------------------------------

 SCF Done:  E(UB3LYP) =  -77.7962293691     A.U. after   11 cycles

 The electronic state is 4-A1.
 Alpha  occ. eigenvalues --  -10.23070 -10.21056  -0.77825  -0.57298  -0.44626
 Alpha  occ. eigenvalues --   -0.44626  -0.36162  -0.22267  -0.22267
 Alpha virt. eigenvalues --   -0.00562   0.03152   0.03152   0.04169   0.08420
 Alpha virt. eigenvalues --    0.09798   0.09798   0.10101   0.10101   0.12307
 Alpha virt. eigenvalues --    0.15563   0.17265   0.17265   0.23479   0.28900

  Beta  occ. eigenvalues --  -10.20781 -10.18744  -0.74311  -0.48327  -0.42852
  Beta  occ. eigenvalues --   -0.42852
  Beta virt. eigenvalues --   -0.15868  -0.03508  -0.03508  -0.00201   0.03230
  Beta virt. eigenvalues --    0.03230   0.05208   0.08992   0.10175   0.10175
  Beta virt. eigenvalues --    0.12081   0.12081   0.12681   0.16983   0.18032

 Mulliken charges and spin densities:
               1          2
     1  C   -0.464841   0.059704
     2  C   -0.002486   2.772363
     3  H    0.155776   0.055978
     4  H    0.155776   0.055978
     5  H    0.155776   0.055978
 Sum of Mulliken charges =  -0.00000   3.00000

 Dipole moment (field-independent basis, Debye):
    X=             -0.0000    Y=              0.0000    Z=             -1.4016  Tot=              1.4016
 Quadrupole moment (field-independent basis, Debye-Ang):
   XX=            -13.6741   YY=            -13.6741   ZZ=            -13.9807
   XY=              0.0000   XZ=              0.0000   YZ=             -0.0000

  Exact polarizability:  19.932   0.000  19.933   0.000  -0.000  28.052
 Approx polarizability:  24.208   0.000  24.208   0.000   0.000  33.317

                      1                      2                      3
                     A1                      E                      E
 Frequencies --    978.5815              1007.3822              1007.3831
 Red. masses --      9.6692                 1.2684                 1.2684
 Frc consts  --      5.4555                 0.7584                 0.7584
 IR Inten    --     27.6923                10.3907                10.3898

                      4                      5                      6
                     A1                      E                      E
 Frequencies --   1353.0512              1446.7000              1446.7004
 Red. masses --      1.1251                 1.0504                 1.0504
 Frc consts  --      1.2136                 1.2952                 1.2952
 IR Inten    --      4.5298                 3.1263                 3.1261

                      7                      8                      9
                     A1                      E                      E
 Frequencies --   2973.9716              3042.5077              3042.5078
 Red. masses --      1.0268                 1.1026                 1.1026
 Frc consts  --      5.3506                 6.0137                 6.0137
 IR Inten    --     23.3779                10.0516                10.0500

 - Thermochemistry -
 -------------------
 Temperature   298.150 Kelvin.  Pressure   1.00000 Atm.
 Atom     1 has atomic number  6 and mass  12.00000

 Molecular mass:    27.02348 amu.
 Principal axes and moments of inertia in atomic units:
                           1         2         3
     Eigenvalues --    11.44295  66.02508  66.02508
           X            0.00000  -0.00187   1.00000
           Y            0.00000   1.00000   0.00187
           Z            1.00000  -0.00000  -0.00000
 This molecule is a prolate symmetric top.
 Rotational symmetry number  3.
 Rotational temperatures (Kelvin)      7.56918     1.31183     1.31183
 Rotational constants (GHZ):         157.71641    27.33418    27.33418
 Zero-point vibrational energy      97488.4 (Joules/Mol)
                                   23.30028 (Kcal/Mol)
 Vibrational temperatures:   1407.96  1449.40  1449.40  1946.74  2081.48
          (Kelvin)           2081.48  4278.88  4377.48  4377.48

 Zero-point correction=                           0.037131 (Hartree/Particle)
 Thermal correction to Energy=                    0.040097
 Thermal correction to Enthalpy=                  0.041041
 Thermal correction to Gibbs Free Energy=         0.014778
 Sum of electronic and zero-point Energies=            -77.759098
 Sum of electronic and thermal Energies=               -77.756133
 Sum of electronic and thermal Enthalpies=             -77.755188
 Sum of electronic and thermal Free Energies=          -77.781452

                     E (Thermal)             CV                S
                      KCal/Mol        Cal/Mol-Kelvin    Cal/Mol-Kelvin
 Total                   25.161              7.406             55.276
 Electronic               0.000              0.000              2.755
 Translational            0.889              2.981             35.818
 Rotational               0.889              2.981             16.368
 Vibrational             23.384              1.445              0.335

 Normal termination of Gaussian 09 at Sun Mar  4 21:13:21 2018.
