 Gaussian 09, Revision D.01,
 Gaussian 09:  ES64L-G09RevD.01 24-Apr-2013

 ---------------------------
 #p b3lyp/6-311++g(d,p) freq
 ---------------------------

 ---
 min
 ---
 Symbolic Z-matrix:
 Charge =  1 Multiplicity = 1

                         Standard orientation:
 ---------------------------------------------------------------------
 Center     Atomic      Atomic             Coordinates (Angstroms)
 Number     Number       Type             X           Y           Z
 ---------------------------------------------------------------------
      1          6           0       -1.087064    0.680033   -0.000000
      2          6           0       -0.000000    0.017097   -0.000000
      3          1           0       -1.548699    0.976654    0.943198
      4          1           0       -1.548699    0.976654   -0.943198
      5          1           0        1.859583   -0.302294    0.000000
      6          8           0        0.970025   -0.729224    0.000000
 ---------------------------------------------------------------------

 SCF Done:  E(RB3LYP) =  -152.907032168     A.U. after   11 cycles

 The electronic state is 1-A'.
 Alpha  occ. eigenvalues --  -19.52435 -10.58332 -10.45999  -1.44697  -1.06807
 Alpha  occ. eigenvalues --   -0.95866  -0.78560  -0.76663  -0.76313  -0.68814
 Alpha  occ. eigenvalues --   -0.55723
 Alpha virt. eigenvalues --   -0.33393  -0.25022  -0.22943  -0.15489  -0.12297
 Alpha virt. eigenvalues --   -0.10673  -0.09475  -0.07178  -0.06921  -0.06294
 Alpha virt. eigenvalues --   -0.04793  -0.01765  -0.01219  -0.00090   0.01518

 Mulliken charges:
               1
     1  C   -0.225786
     2  C    0.395848
     3  H    0.244933
     4  H    0.244933
     5  H    0.382014
     6  O   -0.041943
 Sum of Mulliken charges =   1.00000

 Dipole moment (field-independent basis, Debye):
    X=              0.7631    Y=              1.5346    Z=             -0.0000  Tot=              1.7139
 Quadrupole moment (field-independent basis, Debye-Ang):
   XX=             -4.1323   YY=            -15.4459   ZZ=            -13.4409
   XY=             -3.8826   XZ=              0.0000   YZ=             -0.0000

  Exact polarizability:  32.692 -10.172  20.122   0.000  -0.000  15.174
 Approx polarizability:  53.179 -20.329  30.699   0.000  -0.000  20.149

                      1                      2                      3
                     A"                     A'                     A"
 Frequencies --    385.2677               388.4299               816.1640
 Red. masses --      1.8337                 4.6539                 1.0796
 Frc consts  --      0.1604                 0.4137                 0.4237
 IR Inten    --      5.1079                18.6126               114.4692

                      4                      5                      6
                     A'                     A"                     A'
 Frequencies --    845.8241               896.0272              1124.0008
 Red. masses --      1.2613                 2.1664                 2.3770
 Frc consts  --      0.5316                 1.0248                 1.7693
 IR Inten    --     82.8634                23.5827                45.3580

                      7                      8                      9
                     A'                     A'                     A'
 Frequencies --   1180.5870              1339.2446              2125.1533
 Red. masses --      1.2466                 1.4816                 9.9484
 Frc consts  --      1.0237                 1.5657                26.4717
 IR Inten    --    236.3364                17.7434               287.6720

                     10                     11                     12
                     A'                     A"                     A'
 Frequencies --   3087.6011              3169.9662              3517.0072
 Red. masses --      1.0602                 1.1149                 1.0666
 Frc consts  --      5.9552                 6.6010                 7.7732
 IR Inten    --    182.2406               124.8011               375.0275

 - Thermochemistry -
 -------------------
 Temperature   298.150 Kelvin.  Pressure   1.00000 Atm.
 Atom     1 has atomic number  6 and mass  12.00000

 Molecular mass:    43.01839 amu.
 Principal axes and moments of inertia in atomic units:
                           1         2         3
     Eigenvalues --     8.86472 191.14753 195.08986
           X            0.84035  -0.00000   0.54205
           Y           -0.54205  -0.00000   0.84035
           Z            0.00000   1.00000   0.00000
 This molecule is an asymmetric top.
 Rotational symmetry number  1.
 Rotational temperatures (Kelvin)      9.77062     0.45313     0.44397
 Rotational constants (GHZ):         203.58691     9.44161     9.25082
 Zero-point vibrational energy     112899.2 (Joules/Mol)
                                   26.98356 (Kcal/Mol)
 Warning -- explicit consideration of   2 degrees of freedom as
           vibrations may cause significant error
 Vibrational temperatures:    554.31   558.86  1174.28  1216.95  1289.18
          (Kelvin)           1617.18  1698.60  1926.87  3057.62  4442.36
                             4560.87  5060.18

 Zero-point correction=                           0.043001 (Hartree/Particle)
 Thermal correction to Energy=                    0.046724
 Thermal correction to Enthalpy=                  0.047668
 Thermal correction to Gibbs Free Energy=         0.019021
 Sum of electronic and zero-point Energies=           -152.864031
 Sum of electronic and thermal Energies=              -152.860308
 Sum of electronic and thermal Enthalpies=            -152.859364
 Sum of electronic and thermal Free Energies=         -152.888011

                     E (Thermal)             CV                S
                      KCal/Mol        Cal/Mol-Kelvin    Cal/Mol-Kelvin
 Total                   29.320             11.282             60.293
 Electronic               0.000              0.000              0.000
 Translational            0.889              2.981             37.204
 Rotational               0.889              2.981             20.430
 Vibrational             27.542              5.320              2.659
 Vibration     1          0.754              1.502              1.018
 Vibration     2          0.757              1.495              1.006

 Optimization completed.
    -- Stationary point found.
 Normal termination of Gaussian 09 at Thu Jan 24 15:43:20 2019.
