 Gaussian 09, Revision D.01,
 Gaussian 09:  ES64L-G09RevD.01 24-Apr-2013

 ---------------------------
 #p b3lyp/6-311++g(d,p) freq
 ---------------------------

 ---
 min
 ---
 Symbolic Z-matrix:
 Charge =  0 Multiplicity = 4

                         Standard orientation:
 ---------------------------------------------------------------------
 Center     Atomic      Atomic             Coordinates (Angstroms)
 Number     Number       Type             X           Y           Z
 ---------------------------------------------------------------------
      1          6           0        1.387593   -0.433120   -0.039587
      2          6           0        0.154125    0.475051    0.046876
      3          1           0        0.214689    1.203525   -0.766758
      4          1           0        0.212711    0.992442    1.014780
      5          1           0       -1.182191   -0.815197    0.622296
      6          8           0       -1.061940   -0.204044   -0.114257
 ---------------------------------------------------------------------

 SCF Done:  E(UB3LYP) =  -153.037999328     A.U. after   13 cycles

 The electronic state is 4-A.
 Alpha  occ. eigenvalues --  -19.16563 -10.27455 -10.23310  -1.07122  -0.76577
 Alpha  occ. eigenvalues --   -0.60918  -0.53435  -0.48240  -0.42079  -0.37058
 Alpha  occ. eigenvalues --   -0.31330  -0.24086  -0.22702
 Alpha virt. eigenvalues --   -0.01428   0.01046   0.02831   0.04549   0.07343
 Alpha virt. eigenvalues --    0.08007   0.09084   0.09650   0.10496   0.12165
 Alpha virt. eigenvalues --    0.14609   0.15696   0.16588   0.20225   0.21717

  Beta  occ. eigenvalues --  -19.16175 -10.27152 -10.19279  -1.06189  -0.73073
  Beta  occ. eigenvalues --   -0.56452  -0.49930  -0.46922  -0.38157  -0.32402
  Beta virt. eigenvalues --   -0.16715  -0.06609  -0.04388  -0.00695   0.01482
  Beta virt. eigenvalues --    0.03054   0.05645   0.07601   0.08391   0.10453
  Beta virt. eigenvalues --    0.10895   0.11601   0.12590   0.15599   0.16194

 Mulliken charges and spin densities:
               1          2
     1  C   -0.059246   2.680280
     2  C   -0.301173   0.121403
     3  H    0.180019   0.047115
     4  H    0.158460   0.050025
     5  H    0.255683   0.010113
     6  O   -0.233742   0.091063
 Sum of Mulliken charges =   0.00000   3.00000

 Dipole moment (field-independent basis, Debye):
    X=             -0.5192    Y=              0.5867    Z=              1.4571  Tot=              1.6544
 Quadrupole moment (field-independent basis, Debye-Ang):
   XX=            -22.1053   YY=            -17.4384   ZZ=            -18.1291
   XY=              1.8030   XZ=             -1.8915   YZ=             -1.3855

  Exact polarizability:  44.371  -4.157  28.148  -1.502  -0.226  24.488
 Approx polarizability:  59.011  -6.122  35.327  -1.451  -0.677  30.837

                      1                      2                      3
                      A                      A                      A
 Frequencies --    384.1808               502.4164               846.0408
 Red. masses --      1.1928                 5.3426                 7.5387
 Frc consts  --      0.1037                 0.7946                 3.1793
 IR Inten    --    141.3028                29.8841               152.6453

                      4                      5                      6
                      A                      A                      A
 Frequencies --    943.6681              1036.4213              1165.5890
 Red. masses --      1.3965                 8.0924                 1.0553
 Frc consts  --      0.7327                 5.1215                 0.8447
 IR Inten    --     25.7797               165.9728                25.3581

                      7                      8                      9
                      A                      A                      A
 Frequencies --   1310.8805              1367.5549              1465.8024
 Red. masses --      1.1383                 1.2122                 1.0816
 Frc consts  --      1.1525                 1.3357                 1.3691
 IR Inten    --     16.3041                41.0645                 0.2247

                     10                     11                     12
                      A                      A                      A
 Frequencies --   2973.2397              3062.2461              3806.6802
 Red. masses --      1.0625                 1.0981                 1.0664
 Frc consts  --      5.5342                 6.0669                 9.1046
 IR Inten    --     25.4000                 6.1572                57.0690

 - Thermochemistry -
 -------------------
 Temperature   298.150 Kelvin.  Pressure   1.00000 Atm.
 Atom     1 has atomic number  6 and mass  12.00000

 Molecular mass:    43.01839 amu.
 Principal axes and moments of inertia in atomic units:
                           1         2         3
     Eigenvalues --    38.89854 161.41964 184.47258
           X            0.99904   0.03942  -0.01922
           Y           -0.04058   0.99709  -0.06447
           Z            0.01662   0.06519   0.99773
 This molecule is an asymmetric top.
 Rotational symmetry number  1.
 Rotational temperatures (Kelvin)      2.22666     0.53658     0.46952
 Rotational constants (GHZ):          46.39612    11.18043     9.78325
 Zero-point vibrational energy     112836.1 (Joules/Mol)
                                   26.96847 (Kcal/Mol)
 Warning -- explicit consideration of   2 degrees of freedom as
           vibrations may cause significant error
 Vibrational temperatures:    552.75   722.86  1217.26  1357.73  1491.18
          (Kelvin)           1677.02  1886.06  1967.60  2108.96  4277.82
                             4405.88  5476.96

 Zero-point correction=                           0.042977 (Hartree/Particle)
 Thermal correction to Energy=                    0.046545
 Thermal correction to Enthalpy=                  0.047489
 Thermal correction to Gibbs Free Energy=         0.017181
 Sum of electronic and zero-point Energies=           -152.995022
 Sum of electronic and thermal Energies=              -152.991454
 Sum of electronic and thermal Enthalpies=            -152.990510
 Sum of electronic and thermal Free Energies=         -153.020818

                     E (Thermal)             CV                S
                      KCal/Mol        Cal/Mol-Kelvin    Cal/Mol-Kelvin
 Total                   29.207             10.644             63.788
 Electronic               0.000              0.000              2.755
 Translational            0.889              2.981             37.204
 Rotational               0.889              2.981             21.676
 Vibrational             27.430              4.683              2.154
 Vibration     1          0.753              1.504              1.023
 Vibration     2          0.858              1.245              0.652

 Normal termination of Gaussian 09 at Sun Mar  4 21:08:07 2018.
