 Gaussian 09, Revision D.01,
 Gaussian 09:  ES64L-G09RevD.01 24-Apr-2013

 ---------------------------
 #p b3lyp/6-311++g(d,p) freq
 ---------------------------

 ---
 min
 ---
 Symbolic Z-matrix:
 Charge =  1 Multiplicity = 1

                         Standard orientation:
 ---------------------------------------------------------------------
 Center     Atomic      Atomic             Coordinates (Angstroms)
 Number     Number       Type             X           Y           Z
 ---------------------------------------------------------------------
      1          6           0        0.000000    0.000000   -0.581095
      2          6           0        0.000000   -0.000000    0.673705
      3          1           0        0.000000    0.940812   -1.155828
      4          1           0       -0.000000   -0.940812   -1.155828
      5          1           0        0.000000   -0.000000    1.755991
 ---------------------------------------------------------------------

 SCF Done:  E(RB3LYP) =  -77.6081051774     A.U. after    9 cycles

 The electronic state is 1-A1.
 Alpha  occ. eigenvalues --  -10.57517 -10.49358  -1.10396  -0.88776  -0.78325
 Alpha  occ. eigenvalues --   -0.75018  -0.61237
 Alpha virt. eigenvalues --   -0.41741  -0.28684  -0.18117  -0.16755  -0.13750
 Alpha virt. eigenvalues --   -0.11450  -0.10830  -0.07725  -0.06076  -0.04397
 Alpha virt. eigenvalues --   -0.04319  -0.02162  -0.00834  -0.00244   0.01728

 Mulliken charges:
               1
     1  C   -0.396377
     2  C    0.490386
     3  H    0.276556
     4  H    0.276556
     5  H    0.352879
 Sum of Mulliken charges =   1.00000

 Dipole moment (field-independent basis, Debye):
    X=             -0.0000    Y=             -0.0000    Z=              0.5551  Tot=              0.5551
 Quadrupole moment (field-independent basis, Debye-Ang):
   XX=            -12.2969   YY=             -7.9630   ZZ=             -2.3444
   XY=              0.0000   XZ=              0.0000   YZ=             -0.0000

  Exact polarizability:  11.080   0.000  13.360  -0.000  -0.000  25.697
 Approx polarizability:  13.814   0.000  18.429   0.000   0.000  45.454

                      1                      2                      3
                     B2                     B1                     B1
 Frequencies --    300.8735               664.9209               849.1610
 Red. masses --      1.1353                 1.3442                 1.2617
 Frc consts  --      0.0606                 0.3502                 0.5360
 IR Inten    --     47.3692                55.5835               121.4977

                      4                      5                      6
                     B2                     A1                     A1
 Frequencies --   1083.8179              1175.4674              1770.6922
 Red. masses --      1.4601                 1.0578                 5.0490
 Frc consts  --      1.0105                 0.8612                 9.3270
 IR Inten    --      0.4901                91.2413                54.7139

                      7                      8                      9
                     A1                     B2                     A1
 Frequencies --   2995.0527              3045.3405              3293.5813
 Red. masses --      1.0628                 1.1059                 1.1440
 Frc consts  --      5.6173                 6.0429                 7.3119
 IR Inten    --    283.1738               216.5594               123.3053

 - Thermochemistry -
 -------------------
 Temperature   298.150 Kelvin.  Pressure   1.00000 Atm.
 Atom     1 has atomic number  6 and mass  12.00000

 Molecular mass:    27.02348 amu.
 Principal axes and moments of inertia in atomic units:
                           1         2         3
     Eigenvalues --     6.37116  54.59361  60.96477
           X            0.00000   0.00000   1.00000
           Y            0.00000   1.00000   0.00000
           Z            1.00000   0.00000   0.00000
 This molecule is an asymmetric top.
 Rotational symmetry number  2.
 Rotational temperatures (Kelvin)     13.59467     1.58652     1.42072
 Rotational constants (GHZ):         283.26725    33.05774    29.60302
 Zero-point vibrational energy      90790.0 (Joules/Mol)
                                   21.69934 (Kcal/Mol)
 Warning -- explicit consideration of   1 degrees of freedom as
           vibrations may cause significant error
 Vibrational temperatures:    432.89   956.67  1221.75  1559.37  1691.23
          (Kelvin)           2547.63  4309.21  4381.56  4738.72

 Zero-point correction=                           0.034580 (Hartree/Particle)
 Thermal correction to Energy=                    0.038071
 Thermal correction to Enthalpy=                  0.039015
 Thermal correction to Gibbs Free Energy=         0.013268
 Sum of electronic and zero-point Energies=            -77.573525
 Sum of electronic and thermal Energies=               -77.570034
 Sum of electronic and thermal Enthalpies=             -77.569090
 Sum of electronic and thermal Free Energies=          -77.594838

                     E (Thermal)             CV                S
                      KCal/Mol        Cal/Mol-Kelvin    Cal/Mol-Kelvin
 Total                   23.890              9.649             54.191
 Electronic               0.000              0.000              0.000
 Translational            0.889              2.981             35.818
 Rotational               0.889              2.981             16.324
 Vibrational             22.113              3.687              2.049
 Vibration     1          0.693              1.672              1.412

 Optimization completed.
    -- Stationary point found.
 Normal termination of Gaussian 09 at Thu Jan 24 15:38:21 2019.
