 Gaussian 09, Revision D.01,
 Gaussian 09:  ES64L-G09RevD.01 24-Apr-2013

 ---------------------------
 #p b3lyp/6-311++g(d,p) freq
 ---------------------------

 ---
 min
 ---
 Symbolic Z-matrix:
 Charge =  0 Multiplicity = 2

                         Standard orientation:
 ---------------------------------------------------------------------
 Center     Atomic      Atomic             Coordinates (Angstroms)
 Number     Number       Type             X           Y           Z
 ---------------------------------------------------------------------
      1          6           0       -0.025772   -0.501979    0.000000
      2          6           0       -0.025772    0.937393   -0.000000
      3          1           0       -0.388407   -1.002566    0.910807
      4          1           0       -0.388407   -1.002566   -0.910807
      5          1           0        1.086084   -0.607354    0.000000
 ---------------------------------------------------------------------

 SCF Done:  E(UB3LYP) =  -77.8522073064     A.U. after   14 cycles

 The electronic state is 2-A".
 Alpha  occ. eigenvalues --  -10.23841 -10.19838  -0.79710  -0.55869  -0.46027
 Alpha  occ. eigenvalues --   -0.45044  -0.30273  -0.21295
 Alpha virt. eigenvalues --   -0.09971  -0.01070   0.02573   0.02582   0.04375
 Alpha virt. eigenvalues --    0.08047   0.08702   0.09920   0.10725   0.11158
 Alpha virt. eigenvalues --    0.11901   0.15699   0.16195   0.17165   0.24481

  Beta  occ. eigenvalues --  -10.22418 -10.19936  -0.78413  -0.53156  -0.44808
  Beta  occ. eigenvalues --   -0.44520  -0.28133
  Beta virt. eigenvalues --   -0.08417  -0.06065  -0.01026   0.02587   0.02650
  Beta virt. eigenvalues --    0.04578   0.08063   0.08729   0.10915   0.11135
  Beta virt. eigenvalues --    0.11445   0.11954   0.15819   0.16485   0.17957

 Mulliken charges and spin densities:
               1          2
     1  C   -0.371862  -0.029872
     2  C   -0.117890   0.919239
     3  H    0.159891   0.062720
     4  H    0.159891   0.062720
     5  H    0.169971  -0.014808
 Sum of Mulliken charges =   0.00000   1.00000

 Dipole moment (field-independent basis, Debye):
    X=              0.1703    Y=             -2.7213    Z=              0.0000  Tot=              2.7266
 Quadrupole moment (field-independent basis, Debye-Ang):
   XX=            -12.2383   YY=            -17.4066   ZZ=            -13.9719
   XY=             -0.2697   XZ=             -0.0000   YZ=              0.0000

  Exact polarizability:  21.857   0.305  30.969   0.000   0.000  24.828
 Approx polarizability:  31.281  -0.684  38.712  -0.000   0.000  28.554

                      1                      2                      3
                     A'                     A"                     A'
 Frequencies --    526.0665               852.1992              1103.9486
 Red. masses --      1.3080                 1.3101                 2.6192
 Frc consts  --      0.2133                 0.5606                 1.8807
 IR Inten    --      3.9130                 0.4824                17.1410

                      4                      5                      6
                     A"                     A'                     A'
 Frequencies --   1294.5767              1309.4096              1443.8426
 Red. masses --      1.0323                 1.4644                 1.1239
 Frc consts  --      1.0193                 1.4793                 1.3804
 IR Inten    --     23.7296                80.0679                 8.5703

                      7                      8                      9
                     A'                     A'                     A"
 Frequencies --   2880.2160              2962.3979              2994.3438
 Red. masses --      1.0489                 1.0697                 1.1064
 Frc consts  --      5.1265                 5.5308                 5.8447
 IR Inten    --     11.3366                22.9863                17.5708

 - Thermochemistry -
 -------------------
 Temperature   298.150 Kelvin.  Pressure   1.00000 Atm.
 Atom     1 has atomic number  6 and mass  12.00000

 Molecular mass:    27.02348 amu.
 Principal axes and moments of inertia in atomic units:
                           1         2         3
     Eigenvalues --    11.34690  61.50363  62.09925
           X            0.00105   0.00000   1.00000
           Y            1.00000   0.00000  -0.00105
           Z           -0.00000   1.00000  -0.00000
 This molecule is an asymmetric top.
 Rotational symmetry number  1.
 Rotational temperatures (Kelvin)      7.63326     1.40827     1.39476
 Rotational constants (GHZ):         159.05153    29.34366    29.06221
 Zero-point vibrational energy      91915.1 (Joules/Mol)
                                   21.96823 (Kcal/Mol)
 Warning -- explicit consideration of   1 degrees of freedom as
           vibrations may cause significant error
 Vibrational temperatures:    756.89  1226.12  1588.33  1862.60  1883.95
          (Kelvin)           2077.36  4143.98  4262.22  4308.19

 Zero-point correction=                           0.035009 (Hartree/Particle)
 Thermal correction to Energy=                    0.038164
 Thermal correction to Enthalpy=                  0.039108
 Thermal correction to Gibbs Free Energy=         0.012263
 Sum of electronic and zero-point Energies=            -77.817199
 Sum of electronic and thermal Energies=               -77.814043
 Sum of electronic and thermal Enthalpies=             -77.813099
 Sum of electronic and thermal Free Energies=          -77.839945

                     E (Thermal)             CV                S
                      KCal/Mol        Cal/Mol-Kelvin    Cal/Mol-Kelvin
 Total                   23.948              8.385             56.502
 Electronic               0.000              0.000              1.377
 Translational            0.889              2.981             35.818
 Rotational               0.889              2.981             18.411
 Vibrational             22.171              2.424              0.895
 Vibration     1          0.881              1.192              0.596

 Normal termination of Gaussian 09 at Sun Mar  4 21:13:29 2018.
