 Gaussian 09, Revision D.01,
 Gaussian 09:  ES64L-G09RevD.01 24-Apr-2013

 ---------------------------
 #p b3lyp/6-311++g(d,p) freq
 ---------------------------

 ---
 min
 ---
 Symbolic Z-matrix:
 Charge =  1 Multiplicity = 1

                         Standard orientation:
 ---------------------------------------------------------------------
 Center     Atomic      Atomic             Coordinates (Angstroms)
 Number     Number       Type             X           Y           Z
 ---------------------------------------------------------------------
      1          6           0        1.310739    0.000000   -0.190353
      2          6           0       -1.183019   -0.000000   -0.001311
      3          1           0       -1.671997    0.968789   -0.010708
      4          1           0        1.900071   -0.000001    0.745129
      5          8           0        0.084700    0.000000    0.053284
      6          1           0       -1.671997   -0.968789   -0.010708
 ---------------------------------------------------------------------

 SCF Done:  E(RB3LYP) =  -152.800773236     A.U. after   11 cycles

 The electronic state is 1-A.
 Alpha  occ. eigenvalues --  -19.57322 -10.56057 -10.55838  -1.48362  -1.14209
 Alpha  occ. eigenvalues --   -0.86377  -0.83533  -0.82771  -0.76064  -0.67331
 Alpha  occ. eigenvalues --   -0.51290
 Alpha virt. eigenvalues --   -0.35363  -0.33977  -0.18093  -0.14666  -0.13726
 Alpha virt. eigenvalues --   -0.12191  -0.09670  -0.08014  -0.07662  -0.06449
 Alpha virt. eigenvalues --   -0.04174  -0.02980  -0.01382  -0.01239  -0.00435

 Mulliken charges:
               1
     1  C   -0.041343
     2  C   -0.026591
     3  H    0.257989
     4  H    0.249853
     5  O    0.302102
     6  H    0.257989
 Sum of Mulliken charges =   1.00000

 Dipole moment (field-independent basis, Debye):
    X=             -1.2186    Y=             -0.0000    Z=              1.2208  Tot=              1.7249
 Quadrupole moment (field-independent basis, Debye-Ang):
   XX=             -5.5575   YY=            -13.4569   ZZ=            -16.5858
   XY=             -0.0000   XZ=              2.7311   YZ=              0.0000

  Exact polarizability:  55.682   0.001  16.764  -2.859   0.001  16.240
 Approx polarizability: 135.729   0.000  22.184 -13.339  -0.000  22.422

                      1                      2                      3
                      A                      A                      A
 Frequencies --    229.9490               393.9607               908.3203
 Red. masses --      3.4389                 4.9155                 1.0920
 Frc consts  --      0.1071                 0.4495                 0.5308
 IR Inten    --     26.2309                27.0218                16.0694

                      4                      5                      6
                      A                      A                      A
 Frequencies --    935.7670              1027.8173              1124.3290
 Red. masses --      1.2646                 1.8774                 2.3689
 Frc consts  --      0.6524                 1.1685                 1.7644
 IR Inten    --     56.5878               292.3381                24.1082

                      7                      8                      9
                      A                      A                      A
 Frequencies --   1195.4179              1479.3530              1648.7209
 Red. masses --      1.2761                 1.2174                 4.5872
 Frc consts  --      1.0744                 1.5697                 7.3467
 IR Inten    --     15.2770                 8.8645                14.3581

                     10                     11                     12
                      A                      A                      A
 Frequencies --   3002.8952              3116.3933              3280.8342
 Red. masses --      1.0861                 1.0431                 1.1352
 Frc consts  --      5.7701                 5.9686                 7.1994
 IR Inten    --     33.7483                78.2372                40.2397

 - Thermochemistry -
 -------------------
 Temperature   298.150 Kelvin.  Pressure   1.00000 Atm.
 Atom     1 has atomic number  6 and mass  12.00000

 Molecular mass:    43.01839 amu.
 Principal axes and moments of inertia in atomic units:
                           1         2         3
     Eigenvalues --    10.27039 170.62321 173.86426
           X            0.99952  -0.00000   0.03093
           Y            0.00000   1.00000  -0.00000
           Z           -0.03093   0.00000   0.99952
 This molecule is an asymmetric top.
 Rotational symmetry number  1.
 Rotational temperatures (Kelvin)      8.43336     0.50763     0.49817
 Rotational constants (GHZ):         175.72282    10.57735    10.38017
 Zero-point vibrational energy     109720.0 (Joules/Mol)
                                   26.22372 (Kcal/Mol)
 Warning -- explicit consideration of   2 degrees of freedom as
           vibrations may cause significant error
 Vibrational temperatures:    330.84   566.82  1306.87  1346.36  1478.80
          (Kelvin)           1617.66  1719.94  2128.46  2372.14  4320.49
                             4483.79  4720.38

 Zero-point correction=                           0.041790 (Hartree/Particle)
 Thermal correction to Energy=                    0.045634
 Thermal correction to Enthalpy=                  0.046578
 Thermal correction to Gibbs Free Energy=         0.017654
 Sum of electronic and zero-point Energies=           -152.758983
 Sum of electronic and thermal Energies=              -152.755140
 Sum of electronic and thermal Enthalpies=            -152.754196
 Sum of electronic and thermal Free Energies=         -152.783119

                     E (Thermal)             CV                S
                      KCal/Mol        Cal/Mol-Kelvin    Cal/Mol-Kelvin
 Total                   28.635             11.122             60.875
 Electronic               0.000              0.000              0.000
 Translational            0.889              2.981             37.204
 Rotational               0.889              2.981             20.349
 Vibrational             26.858              5.161              3.322
 Vibration     1          0.652              1.795              1.879
 Vibration     2          0.761              1.483              0.985

 Optimization completed.
    -- Stationary point found.
 Normal termination of Gaussian 09 at Thu Jan 24 15:43:05 2019.
