 Gaussian 09, Revision D.01,
 Gaussian 09:  ES64L-G09RevD.01 24-Apr-2013

 ---------------------------
 #p b3lyp/6-311++g(d,p) freq
 ---------------------------

 ---
 min
 ---
 Symbolic Z-matrix:
 Charge =  1 Multiplicity = 3

                         Standard orientation:
 ---------------------------------------------------------------------
 Center     Atomic      Atomic             Coordinates (Angstroms)
 Number     Number       Type             X           Y           Z
 ---------------------------------------------------------------------
      1          6           0        0.000000    0.424029   -0.000000
      2          6           0        1.251806   -0.203164    0.000000
      3          1           0        2.151953    0.402382   -0.000000
      4          1           0        1.316691   -1.292412    0.000000
      5          1           0       -1.908137    0.488731   -0.000000
      6          8           0       -1.133918   -0.115486    0.000000
 ---------------------------------------------------------------------

 SCF Done:  E(UB3LYP) =  -152.844091276     A.U. after   12 cycles

 The electronic state is 3-A".
 Alpha  occ. eigenvalues --  -19.50305 -10.58092 -10.50278  -1.42454  -1.07223
 Alpha  occ. eigenvalues --   -0.93151  -0.79973  -0.76967  -0.74433  -0.70792
 Alpha  occ. eigenvalues --   -0.55930  -0.53780
 Alpha virt. eigenvalues --   -0.29190  -0.21065  -0.15064  -0.12188  -0.10548
 Alpha virt. eigenvalues --   -0.10298  -0.09414  -0.07112  -0.05874  -0.05438
 Alpha virt. eigenvalues --   -0.02754  -0.00912  -0.00567   0.00735   0.02646

  Beta  occ. eigenvalues --  -19.49446 -10.56318 -10.49145  -1.40460  -1.02981
  Beta  occ. eigenvalues --   -0.91334  -0.75523  -0.74234  -0.70556  -0.69245
  Beta virt. eigenvalues --   -0.42656  -0.36912  -0.22496  -0.20507  -0.14561
  Beta virt. eigenvalues --   -0.11865  -0.09952  -0.09561  -0.08646  -0.06662
  Beta virt. eigenvalues --   -0.05363  -0.04705  -0.02190  -0.00288  -0.00241

 Mulliken charges and spin densities:
               1          2
     1  C    0.281895   1.011234
     2  C   -0.171813   0.747937
     3  H    0.252365  -0.027235
     4  H    0.239018   0.023306
     5  H    0.385754   0.013477
     6  O    0.012782   0.231281
 Sum of Mulliken charges =   1.00000   2.00000

 Dipole moment (field-independent basis, Debye):
    X=              0.2378    Y=              0.8043    Z=             -0.0000  Tot=              0.8387
 Quadrupole moment (field-independent basis, Debye-Ang):
   XX=             -2.7651   YY=            -14.1192   ZZ=            -16.1491
   XY=             -3.3854   XZ=              0.0000   YZ=              0.0000

  Exact polarizability:  35.980  -2.477  19.998   0.000   0.000  13.692
 Approx polarizability:  49.844  -2.430  27.024  -0.000  -0.000  18.069

                      1                      2                      3
                     A'                     A"                     A"
 Frequencies --    432.8890               502.7924               646.3473
 Red. masses --      2.4579                 1.3581                 1.1296
 Frc consts  --      0.2714                 0.2023                 0.2780
 IR Inten    --     19.3527                34.2605               146.5953

                      4                      5                      6
                     A"                     A'                     A'
 Frequencies --    926.0540               981.8668              1056.7135
 Red. masses --      1.3582                 1.4628                 1.6337
 Frc consts  --      0.6863                 0.8309                 1.0748
 IR Inten    --     41.9431                48.0700                66.5305

                      7                      8                      9
                     A'                     A'                     A'
 Frequencies --   1261.0373              1428.6057              1630.3570
 Red. masses --      2.3353                 1.2036                 9.1650
 Frc consts  --      2.1880                 1.4473                14.3531
 IR Inten    --    127.9235                14.2372               174.6594

                     10                     11                     12
                     A'                     A'                     A'
 Frequencies --   3094.9252              3236.6995              3596.8738
 Red. masses --      1.0540                 1.1178                 1.0669
 Frc consts  --      5.9484                 6.8998                 8.1328
 IR Inten    --     51.4129                44.8271               492.7201

 - Thermochemistry -
 -------------------
 Temperature   298.150 Kelvin.  Pressure   1.00000 Atm.
 Atom     1 has atomic number  6 and mass  12.00000

 Molecular mass:    43.01839 amu.
 Principal axes and moments of inertia in atomic units:
                           1         2         3
     Eigenvalues --    17.08180 176.99979 194.08159
           X            0.99814   0.06097   0.00000
           Y           -0.06097   0.99814   0.00000
           Z           -0.00000  -0.00000   1.00000
 This molecule is an asymmetric top.
 Rotational symmetry number  1.
 Rotational temperatures (Kelvin)      5.07053     0.48934     0.44628
 Rotational constants (GHZ):         105.65290    10.19629     9.29888
 Zero-point vibrational energy     112420.0 (Joules/Mol)
                                   26.86903 (Kcal/Mol)
 Warning -- explicit consideration of   2 degrees of freedom as
           vibrations may cause significant error
 Vibrational temperatures:    622.83   723.41   929.95  1332.38  1412.69
          (Kelvin)           1520.37  1814.35  2055.44  2345.72  4452.90
                             4656.88  5175.09

 Zero-point correction=                           0.042819 (Hartree/Particle)
 Thermal correction to Energy=                    0.046429
 Thermal correction to Enthalpy=                  0.047373
 Thermal correction to Gibbs Free Energy=         0.017620
 Sum of electronic and zero-point Energies=           -152.801273
 Sum of electronic and thermal Energies=              -152.797663
 Sum of electronic and thermal Enthalpies=            -152.796719
 Sum of electronic and thermal Free Energies=         -152.826471

                     E (Thermal)             CV                S
                      KCal/Mol        Cal/Mol-Kelvin    Cal/Mol-Kelvin
 Total                   29.134             11.033             62.620
 Electronic               0.000              0.000              2.183
 Translational            0.889              2.981             37.204
 Rotational               0.889              2.981             21.000
 Vibrational             27.357              5.071              2.233
 Vibration     1          0.794              1.399              0.849
 Vibration     2          0.858              1.244              0.651

 Optimization completed.
    -- Stationary point found.
 Normal termination of Gaussian 09 at Thu Jan 24 15:43:37 2019.
