 Gaussian 09, Revision D.01,
 Gaussian 09:  ES64L-G09RevD.01 24-Apr-2013

 ---------------------------
 #p b3lyp/6-311++g(d,p) freq
 ---------------------------

 ---
 min
 ---
 Symbolic Z-matrix:
 Charge =  0 Multiplicity = 2

                         Standard orientation:
 ---------------------------------------------------------------------
 Center     Atomic      Atomic             Coordinates (Angstroms)
 Number     Number       Type             X           Y           Z
 ---------------------------------------------------------------------
      1          6           0        0.047891    0.719185    0.000000
      2          6           0        0.047891   -0.586211    0.000000
      3          1           0       -0.880658   -1.164343   -0.000000
      4          1           0       -0.662660    1.532574   -0.000000
      5          1           0        0.968628   -1.166072    0.000000
 ---------------------------------------------------------------------

 SCF Done:  E(UB3LYP) =  -77.9290004048     A.U. after   12 cycles

 The electronic state is 2-A'.
 Alpha  occ. eigenvalues --  -10.20297 -10.18284  -0.77674  -0.58441  -0.47227
 Alpha  occ. eigenvalues --   -0.44089  -0.29479  -0.24348
 Alpha virt. eigenvalues --   -0.01243   0.00089   0.01616   0.02802   0.06574
 Alpha virt. eigenvalues --    0.08137   0.08775   0.11587   0.12311   0.13196
 Alpha virt. eigenvalues --    0.14953   0.15570   0.16314   0.16959   0.27674

  Beta  occ. eigenvalues --  -10.18764 -10.18436  -0.75950  -0.56305  -0.45784
  Beta  occ. eigenvalues --   -0.42563  -0.28661
  Beta virt. eigenvalues --   -0.08728  -0.00271   0.00209   0.01746   0.03001
  Beta virt. eigenvalues --    0.06574   0.08162   0.09947   0.11691   0.12586
  Beta virt. eigenvalues --    0.13564   0.15021   0.15787   0.16760   0.17751

 Mulliken charges and spin densities:
               1          2
     1  C   -0.069207   1.002131
     2  C   -0.323495  -0.152690
     3  H    0.119241   0.092812
     4  H    0.138190   0.013348
     5  H    0.135270   0.044399
 Sum of Mulliken charges =   0.00000   1.00000

 Dipole moment (field-independent basis, Debye):
    X=             -0.6664    Y=             -0.3301    Z=             -0.0000  Tot=              0.7437
 Quadrupole moment (field-independent basis, Debye-Ang):
   XX=            -12.5287   YY=            -11.4646   ZZ=            -15.0682
   XY=             -1.2543   XZ=             -0.0000   YZ=             -0.0000

  Exact polarizability:  19.841  -0.518  34.955  -0.000   0.000  17.672
 Approx polarizability:  23.929  -0.468  52.423   0.000   0.000  21.378

                      1                      2                      3
                     A'                     A"                     A"
 Frequencies --    706.8701               816.9682               922.9396
 Red. masses --      1.0573                 1.2455                 1.2412
 Frc consts  --      0.3113                 0.4898                 0.6230
 IR Inten    --     24.6375                22.2038                82.4473

                      4                      5                      6
                     A'                     A'                     A'
 Frequencies --   1041.1889              1390.1744              1644.1679
 Red. masses --      1.5045                 1.1052                 5.3839
 Frc consts  --      0.9609                 1.2585                 8.5750
 IR Inten    --      7.5217                 8.4391                 2.3122

                      7                      8                      9
                     A'                     A'                     A'
 Frequencies --   3038.5191              3135.7556              3239.9159
 Red. masses --      1.0623                 1.1017                 1.1058
 Frc consts  --      5.7786                 6.3828                 6.8389
 IR Inten    --      5.2491                 3.8187                 0.3681

 - Thermochemistry -
 -------------------
 Temperature   298.150 Kelvin.  Pressure   1.00000 Atm.
 Atom     1 has atomic number  6 and mass  12.00000

 Molecular mass:    27.02348 amu.
 Principal axes and moments of inertia in atomic units:
                           1         2         3
     Eigenvalues --     7.59494  55.34104  62.93598
           X           -0.08019   0.99678   0.00000
           Y            0.99678   0.08019   0.00000
           Z           -0.00000   0.00000   1.00000
 This molecule is an asymmetric top.
 Rotational symmetry number  1.
 Rotational temperatures (Kelvin)     11.40415     1.56509     1.37622
 Rotational constants (GHZ):         237.62417    32.61126    28.67583
 Zero-point vibrational energy      95321.4 (Joules/Mol)
                                   22.78237 (Kcal/Mol)
 Vibrational temperatures:   1017.03  1175.43  1327.90  1498.04  2000.15
          (Kelvin)           2365.59  4371.75  4511.65  4661.51

 Zero-point correction=                           0.036306 (Hartree/Particle)
 Thermal correction to Energy=                    0.039413
 Thermal correction to Enthalpy=                  0.040358
 Thermal correction to Gibbs Free Energy=         0.013826
 Sum of electronic and zero-point Energies=            -77.892694
 Sum of electronic and thermal Energies=               -77.889587
 Sum of electronic and thermal Enthalpies=             -77.888643
 Sum of electronic and thermal Free Energies=          -77.915174

                     E (Thermal)             CV                S
                      KCal/Mol        Cal/Mol-Kelvin    Cal/Mol-Kelvin
 Total                   24.732              8.359             55.840
 Electronic               0.000              0.000              1.377
 Translational            0.889              2.981             35.818
 Rotational               0.889              2.981             17.921
 Vibrational             22.955              2.398              0.724

 Optimization completed.
    -- Stationary point found.
 Normal termination of Gaussian 09 at Sun Mar  4 21:13:26 2018.
