 Gaussian 09, Revision D.01,
 Gaussian 09:  ES64L-G09RevD.01 24-Apr-2013

 ---------------------------
 #p b3lyp/6-311++g(d,p) freq
 ---------------------------

 ---
 min
 ---
 Symbolic Z-matrix:
 Charge =  1 Multiplicity = 3

                         Standard orientation:
 ---------------------------------------------------------------------
 Center     Atomic      Atomic             Coordinates (Angstroms)
 Number     Number       Type             X           Y           Z
 ---------------------------------------------------------------------
      1          6           0       -0.029568   -0.506100   -0.000000
      2          6           0       -0.029568    0.912462    0.000000
      3          1           0        1.110605   -0.536242    0.000000
      4          1           0       -0.377893   -0.950966    0.943583
      5          1           0       -0.377893   -0.950966   -0.943583
 ---------------------------------------------------------------------

 SCF Done:  E(UB3LYP) =  -77.4630606922     A.U. after   13 cycles

 The electronic state is 3-A".
 Alpha  occ. eigenvalues --  -10.64348 -10.51228  -1.12220  -0.86672  -0.75468
 Alpha  occ. eigenvalues --   -0.73674  -0.69629  -0.55433
 Alpha virt. eigenvalues --   -0.43128  -0.19387  -0.15211  -0.13469  -0.12930
 Alpha virt. eigenvalues --   -0.10629  -0.08977  -0.07535  -0.05586  -0.05386
 Alpha virt. eigenvalues --   -0.03315  -0.02890  -0.01343  -0.00789   0.02699

  Beta  occ. eigenvalues --  -10.60938 -10.50939  -1.08532  -0.80314  -0.72921
  Beta  occ. eigenvalues --   -0.72825
  Beta virt. eigenvalues --   -0.49317  -0.38429  -0.35887  -0.18932  -0.14850
  Beta virt. eigenvalues --   -0.13149  -0.12376  -0.10343  -0.08214  -0.06211
  Beta virt. eigenvalues --   -0.05184  -0.04708  -0.03018  -0.01496  -0.00414

 Mulliken charges and spin densities:
               1          2
     1  C   -0.486124   0.129698
     2  C    0.646057   1.762354
     3  H    0.276932  -0.018088
     4  H    0.281568   0.063018
     5  H    0.281568   0.063018
 Sum of Mulliken charges =   1.00000   2.00000

 Dipole moment (field-independent basis, Debye):
    X=              0.4355    Y=              0.0907    Z=             -0.0000  Tot=              0.4448
 Quadrupole moment (field-independent basis, Debye-Ang):
   XX=             -8.9005   YY=             -6.7502   ZZ=             -9.9744
   XY=             -0.0906   XZ=              0.0000   YZ=              0.0000

  Exact polarizability:  15.446  -0.493  23.884   0.000  -0.000  15.507
 Approx polarizability:  22.256  -2.349  37.385   0.000   0.000  19.145

                      1                      2                      3
                     A'                     A"                     A'
 Frequencies --    494.8946               911.0897              1109.5608
 Red. masses --      1.3173                 1.2982                 5.0481
 Frc consts  --      0.1901                 0.6349                 3.6617
 IR Inten    --     33.4855                61.2670                14.6899

                      4                      5                      6
                     A"                     A'                     A'
 Frequencies --   1139.1000              1201.9490              1376.0867
 Red. masses --      1.0316                 1.1741                 1.0988
 Frc consts  --      0.7887                 0.9994                 1.2259
 IR Inten    --     18.0682                30.5665                 7.9137

                      7                      8                      9
                     A'                     A'                     A"
 Frequencies --   2712.4888              2972.1830              3064.4726
 Red. masses --      1.0614                 1.0490                 1.1110
 Frc consts  --      4.6012                 5.4600                 6.1473
 IR Inten    --    146.8680                58.7760                90.6840

 - Thermochemistry -
 -------------------
 Temperature   298.150 Kelvin.  Pressure   1.00000 Atm.
 Atom     1 has atomic number  6 and mass  12.00000

 Molecular mass:    27.02348 amu.
 Principal axes and moments of inertia in atomic units:
                           1         2         3
     Eigenvalues --    11.93434  58.95152  59.83468
           X            0.00085   0.00000   1.00000
           Y            1.00000  -0.00000  -0.00085
           Z            0.00000   1.00000  -0.00000
 This molecule is an asymmetric top.
 Rotational symmetry number  1.
 Rotational temperatures (Kelvin)      7.25753     1.46924     1.44755
 Rotational constants (GHZ):         151.22257    30.61399    30.16213
 Zero-point vibrational energy      89611.2 (Joules/Mol)
                                   21.41759 (Kcal/Mol)
 Warning -- explicit consideration of   1 degrees of freedom as
           vibrations may cause significant error
 Vibrational temperatures:    712.04  1310.85  1596.41  1638.91  1729.33
          (Kelvin)           1979.88  3902.66  4276.30  4409.09

 Zero-point correction=                           0.034131 (Hartree/Particle)
 Thermal correction to Energy=                    0.037314
 Thermal correction to Enthalpy=                  0.038258
 Thermal correction to Gibbs Free Energy=         0.011003
 Sum of electronic and zero-point Energies=            -77.428930
 Sum of electronic and thermal Energies=               -77.425747
 Sum of electronic and thermal Enthalpies=             -77.424803
 Sum of electronic and thermal Free Energies=          -77.452058

                     E (Thermal)             CV                S
                      KCal/Mol        Cal/Mol-Kelvin    Cal/Mol-Kelvin
 Total                   23.415              8.548             57.362
 Electronic               0.000              0.000              2.183
 Translational            0.889              2.981             35.818
 Rotational               0.889              2.981             18.383
 Vibrational             21.637              2.586              0.979
 Vibration     1          0.851              1.261              0.671

 Normal termination of Gaussian 09 at Thu Jan 24 15:38:36 2019.
