 Gaussian 09, Revision D.01,
 Gaussian 09:  ES64L-G09RevD.01 24-Apr-2013

 ---------------------------
 #p b3lyp/6-311++g(d,p) freq
 ---------------------------

 ---
 min
 ---
 Symbolic Z-matrix:
 Charge =  1 Multiplicity = 1

                         Standard orientation:
 ---------------------------------------------------------------------
 Center     Atomic      Atomic             Coordinates (Angstroms)
 Number     Number       Type             X           Y           Z
 ---------------------------------------------------------------------
      1          6           0        0.000000   -0.000000   -1.209768
      2          6           0       -0.000000    0.000000    0.215668
      3          1           0        0.000000    1.041648   -1.558043
      4          1           0        0.902094   -0.520824   -1.558043
      5          1           0       -0.902094   -0.520824   -1.558043
      6          8           0       -0.000000    0.000000    1.329841
 ---------------------------------------------------------------------

 SCF Done:  E(RB3LYP) =  -152.969678038     A.U. after   10 cycles

 The electronic state is 1-A1.
 Alpha  occ. eigenvalues --  -19.52901 -10.63047 -10.48801  -1.46952  -1.08484
 Alpha  occ. eigenvalues --   -0.84479  -0.78716  -0.78716  -0.78247  -0.69570
 Alpha  occ. eigenvalues --   -0.69570
 Alpha virt. eigenvalues --   -0.31809  -0.31809  -0.21092  -0.13152  -0.13126
 Alpha virt. eigenvalues --   -0.13126  -0.11823  -0.08859  -0.08859  -0.06527
 Alpha virt. eigenvalues --   -0.06365  -0.06365  -0.02375  -0.00379  -0.00379

 Mulliken charges:
               1
     1  C   -0.442044
     2  C    0.606493
     3  H    0.269763
     4  H    0.269763
     5  H    0.269763
     6  O    0.026262
 Sum of Mulliken charges =   1.00000

 Dipole moment (field-independent basis, Debye):
    X=             -0.0000    Y=             -0.0000    Z=             -2.8514  Tot=              2.8514
 Quadrupole moment (field-independent basis, Debye-Ang):
   XX=            -13.8329   YY=            -13.8329   ZZ=             -9.6817
   XY=             -0.0000   XZ=              0.0000   YZ=              0.0000

  Exact polarizability:  15.763   0.000  15.763   0.000   0.000  30.706
 Approx polarizability:  21.245  -0.000  21.245  -0.000   0.000  50.340

                      1                      2                      3
                      E                      E                     A1
 Frequencies --    418.6593               418.6611               909.2589
 Red. masses --      2.9843                 2.9843                 4.8973
 Frc consts  --      0.3082                 0.3082                 2.3855
 IR Inten    --      2.6303                 2.6305                 2.3735

                      4                      5                      6
                      E                      E                     A1
 Frequencies --   1027.9186              1027.9188              1363.2153
 Red. masses --      1.6084                 1.6084                 1.2154
 Frc consts  --      1.0013                 1.0013                 1.3307
 IR Inten    --     24.6813                24.6823                50.3239

                      7                      8                      9
                      E                      E                     A1
 Frequencies --   1396.4473              1396.4475              2385.0485
 Red. masses --      1.0389                 1.0389                12.7447
 Frc consts  --      1.1937                 1.1937                42.7143
 IR Inten    --     24.4380                24.4376               242.2111

                     10                     11                     12
                     A1                      E                      E
 Frequencies --   2998.4021              3080.3845              3080.3847
 Red. masses --      1.0323                 1.1029                 1.1029
 Frc consts  --      5.4679                 6.1658                 6.1658
 IR Inten    --     82.9515                62.9816                62.9860

 - Thermochemistry -
 -------------------
 Temperature   298.150 Kelvin.  Pressure   1.00000 Atm.
 Atom     1 has atomic number  6 and mass  12.00000

 Molecular mass:    43.01839 amu.
 Principal axes and moments of inertia in atomic units:
                           1         2         3
     Eigenvalues --    11.71510 196.01042 196.01042
           X           -0.00000  -0.16245   0.98672
           Y            0.00000   0.98672   0.16245
           Z            1.00000  -0.00000   0.00000
 This molecule is a prolate symmetric top.
 Rotational symmetry number  3.
 Rotational temperatures (Kelvin)      7.39335     0.44188     0.44188
 Rotational constants (GHZ):         154.05257     9.20737     9.20737
 Zero-point vibrational energy     116652.3 (Joules/Mol)
                                   27.88058 (Kcal/Mol)
 Warning -- explicit consideration of   2 degrees of freedom as
           vibrations may cause significant error
 Vibrational temperatures:    602.36   602.36  1308.22  1478.94  1478.94
          (Kelvin)           1961.36  2009.17  2009.17  3431.55  4314.03
                             4431.98  4431.98

 Zero-point correction=                           0.044431 (Hartree/Particle)
 Thermal correction to Energy=                    0.047988
 Thermal correction to Enthalpy=                  0.048933
 Thermal correction to Gibbs Free Energy=         0.021418
 Sum of electronic and zero-point Energies=           -152.925248
 Sum of electronic and thermal Energies=              -152.921690
 Sum of electronic and thermal Enthalpies=            -152.920745
 Sum of electronic and thermal Free Energies=         -152.948260

                     E (Thermal)             CV                S
                      KCal/Mol        Cal/Mol-Kelvin    Cal/Mol-Kelvin
 Total                   30.113             10.341             57.910
 Electronic               0.000              0.000              0.000
 Translational            0.889              2.981             37.204
 Rotational               0.889              2.981             18.554
 Vibrational             28.336              4.379              2.152
 Vibration     1          0.782              1.430              0.897
 Vibration     2          0.782              1.430              0.897

 Optimization completed.
    -- Stationary point found.
 Normal termination of Gaussian 09 at Thu Jan 24 15:42:45 2019.
