 Gaussian 09, Revision D.01,
 Gaussian 09:  ES64L-G09RevD.01 24-Apr-2013

 ---------------------------
 #p b3lyp/6-311++g(d,p) freq
 ---------------------------

 ---
 min
 ---
 Symbolic Z-matrix:
 Charge =  1 Multiplicity = 1

                         Standard orientation:
 ---------------------------------------------------------------------
 Center     Atomic      Atomic             Coordinates (Angstroms)
 Number     Number       Type             X           Y           Z
 ---------------------------------------------------------------------
      1          6           0        0.000000   -0.000000   -0.471917
      2          6           0        0.000000    0.000000    0.885842
      3          1           0        0.000000    1.060341   -0.827849
      4          1           0        0.918282   -0.530170   -0.827849
      5          1           0       -0.918282   -0.530170   -0.827849
 ---------------------------------------------------------------------

 SCF Done:  E(RB3LYP) =  -77.5328639764     A.U. after    9 cycles

 The electronic state is 1-A1.
 Alpha  occ. eigenvalues --  -10.63822 -10.49231  -1.13188  -0.84940  -0.75514
 Alpha  occ. eigenvalues --   -0.75514  -0.62264
 Alpha virt. eigenvalues --   -0.41928  -0.41928  -0.19690  -0.14766  -0.14766
 Alpha virt. eigenvalues --   -0.13262  -0.09989  -0.09989  -0.08268  -0.05333
 Alpha virt. eigenvalues --   -0.05333  -0.03314  -0.01768  -0.01768  -0.00839

 Mulliken charges:
               1
     1  C   -0.592852
     2  C    0.645956
     3  H    0.315632
     4  H    0.315632
     5  H    0.315632
 Sum of Mulliken charges =   1.00000

 Dipole moment (field-independent basis, Debye):
    X=             -0.0000    Y=             -0.0000    Z=             -1.6111  Tot=              1.6111
 Quadrupole moment (field-independent basis, Debye-Ang):
   XX=             -8.7610   YY=             -8.7610   ZZ=             -9.8280
   XY=             -0.0000   XZ=              0.0000   YZ=              0.0000

  Exact polarizability:  16.765   0.000  16.765   0.000   0.000  22.330
 Approx polarizability:  24.527  -0.000  24.527  -0.000   0.000  36.618

                      1                      2                      3
                      E                      E                     A1
 Frequencies --    334.7326               334.7368              1081.5737
 Red. masses --      1.3115                 1.3115                 1.2319
 Frc consts  --      0.0866                 0.0866                 0.8490
 IR Inten    --      1.0216                 1.0215                17.5141

                      4                      5                      6
                      E                      E                     A1
 Frequencies --   1198.6301              1198.6331              1494.4528
 Red. masses --      1.0521                 1.0521                 5.2890
 Frc consts  --      0.8906                 0.8906                 6.9597
 IR Inten    --     68.3874                68.3839               331.2905

                      7                      8                      9
                     A1                      E                      E
 Frequencies --   2838.2106              2890.4648              2890.4658
 Red. masses --      1.0360                 1.0932                 1.0932
 Frc consts  --      4.9169                 5.3811                 5.3811
 IR Inten    --    260.2920               164.8003               164.7904

 - Thermochemistry -
 -------------------
 Temperature   298.150 Kelvin.  Pressure   1.00000 Atm.
 Atom     1 has atomic number  6 and mass  12.00000

 Molecular mass:    27.02348 amu.
 Principal axes and moments of inertia in atomic units:
                           1         2         3
     Eigenvalues --    12.13934  55.83766  55.83766
           X            0.00000   0.32852   0.94450
           Y            0.00000   0.94450  -0.32852
           Z            1.00000  -0.00000   0.00000
 This molecule is a prolate symmetric top.
 Rotational symmetry number  3.
 Rotational temperatures (Kelvin)      7.13497     1.55117     1.55117
 Rotational constants (GHZ):         148.66878    32.32122    32.32122
 Zero-point vibrational energy      85305.1 (Joules/Mol)
                                   20.38841 (Kcal/Mol)
 Warning -- explicit consideration of   2 degrees of freedom as
           vibrations may cause significant error
 Vibrational temperatures:    481.60   481.61  1556.14  1724.56  1724.56
          (Kelvin)           2150.18  4083.55  4158.73  4158.73

 Zero-point correction=                           0.032491 (Hartree/Particle)
 Thermal correction to Energy=                    0.036146
 Thermal correction to Enthalpy=                  0.037090
 Thermal correction to Gibbs Free Energy=         0.011173
 Sum of electronic and zero-point Energies=            -77.500373
 Sum of electronic and thermal Energies=               -77.496718
 Sum of electronic and thermal Enthalpies=             -77.495774
 Sum of electronic and thermal Free Energies=          -77.521691

                     E (Thermal)             CV                S
                      KCal/Mol        Cal/Mol-Kelvin    Cal/Mol-Kelvin
 Total                   22.682              9.959             54.548
 Electronic               0.000              0.000              0.000
 Translational            0.889              2.981             35.818
 Rotational               0.889              2.981             16.094
 Vibrational             20.905              3.997              2.637
 Vibration     1          0.716              1.606              1.237
 Vibration     2          0.716              1.606              1.237

 Optimization completed.
    -- Stationary point found.
 Normal termination of Gaussian 09 at Thu Jan 24 15:38:21 2019.
