 Gaussian 09, Revision D.01,
 Gaussian 09:  ES64L-G09RevD.01 24-Apr-2013

 ---------------------------
 #p b3lyp/6-311++g(d,p) freq
 ---------------------------

 ---
 min
 ---
 Symbolic Z-matrix:
 Charge =  1 Multiplicity = 3

                         Standard orientation:
 ---------------------------------------------------------------------
 Center     Atomic      Atomic             Coordinates (Angstroms)
 Number     Number       Type             X           Y           Z
 ---------------------------------------------------------------------
      1          6           0        0.048139   -0.628886    0.000000
      2          6           0        0.048139    0.763061   -0.000000
      3          1           0       -0.678884    1.573952   -0.000000
      4          1           0       -0.888804   -1.197248    0.000000
      5          1           0        0.990022   -1.181753    0.000000
 ---------------------------------------------------------------------

 SCF Done:  E(UB3LYP) =  -77.5396924125     A.U. after   11 cycles

 The electronic state is 3-A".
 Alpha  occ. eigenvalues --  -10.56977 -10.55534  -1.11128  -0.89979  -0.78197
 Alpha  occ. eigenvalues --   -0.74967  -0.63762  -0.56445
 Alpha virt. eigenvalues --   -0.35797  -0.18049  -0.16786  -0.13618  -0.11169
 Alpha virt. eigenvalues --   -0.10147  -0.08402  -0.07268  -0.05379  -0.05088
 Alpha virt. eigenvalues --   -0.02634  -0.02275  -0.00894   0.00132   0.06130

  Beta  occ. eigenvalues --  -10.54782 -10.54609  -1.05724  -0.86171  -0.75866
  Beta  occ. eigenvalues --   -0.72847
  Beta virt. eigenvalues --   -0.49091  -0.37905  -0.28050  -0.17562  -0.15678
  Beta virt. eigenvalues --   -0.13091  -0.10269  -0.09679  -0.07833  -0.05852
  Beta virt. eigenvalues --   -0.04237  -0.04235  -0.02199  -0.01380  -0.00793

 Mulliken charges and spin densities:
               1          2
     1  C   -0.039797   0.548931
     2  C    0.269342   1.414253
     3  H    0.262035  -0.009719
     4  H    0.253340   0.040349
     5  H    0.255081   0.006185
 Sum of Mulliken charges =   1.00000   2.00000

 Dipole moment (field-independent basis, Debye):
    X=             -0.6169    Y=             -0.2864    Z=              0.0000  Tot=              0.6802
 Quadrupole moment (field-independent basis, Debye-Ang):
   XX=             -8.9787   YY=             -4.7804   ZZ=            -10.6360
   XY=             -1.5999   XZ=              0.0000   YZ=             -0.0000

  Exact polarizability:  14.879  -0.980  26.162  -0.000   0.000  10.354
 Approx polarizability:  18.311  -0.575  34.965   0.000  -0.000  13.859

                      1                      2                      3
                     A'                     A"                     A"
 Frequencies --    724.0969               768.2142              1045.4510
 Red. masses --      1.0608                 1.1115                 1.3801
 Frc consts  --      0.3277                 0.3865                 0.8887
 IR Inten    --     31.5292                16.5495                17.2875

                      4                      5                      6
                     A'                     A'                     A'
 Frequencies --   1053.3576              1327.5037              1463.9059
 Red. masses --      1.4426                 2.1826                 1.6009
 Frc consts  --      0.9431                 2.2662                 2.0214
 IR Inten    --      6.9911                 4.6143                23.5975

                      7                      8                      9
                     A'                     A'                     A'
 Frequencies --   3047.8430              3164.4011              3184.3979
 Red. masses --      1.0531                 1.1166                 1.1001
 Frc consts  --      5.7635                 6.5874                 6.5726
 IR Inten    --     47.9721                31.4388                92.9732

 - Thermochemistry -
 -------------------
 Temperature   298.150 Kelvin.  Pressure   1.00000 Atm.
 Atom     1 has atomic number  6 and mass  12.00000

 Molecular mass:    27.02348 amu.
 Principal axes and moments of inertia in atomic units:
                           1         2         3
     Eigenvalues --     7.88135  61.21954  69.10089
           X           -0.07540   0.99715  -0.00000
           Y            0.99715   0.07540   0.00000
           Z           -0.00000   0.00000   1.00000
 This molecule is an asymmetric top.
 Rotational symmetry number  1.
 Rotational temperatures (Kelvin)     10.98972     1.41481     1.25344
 Rotational constants (GHZ):         228.98888    29.47982    26.11748
 Zero-point vibrational energy      94380.4 (Joules/Mol)
                                   22.55746 (Kcal/Mol)
 Vibrational temperatures:   1041.81  1105.29  1504.17  1515.54  1909.98
          (Kelvin)           2106.23  4385.16  4552.86  4581.63

 Zero-point correction=                           0.035948 (Hartree/Particle)
 Thermal correction to Energy=                    0.039048
 Thermal correction to Enthalpy=                  0.039992
 Thermal correction to Gibbs Free Energy=         0.012978
 Sum of electronic and zero-point Energies=            -77.503745
 Sum of electronic and thermal Energies=               -77.500644
 Sum of electronic and thermal Enthalpies=             -77.499700
 Sum of electronic and thermal Free Energies=          -77.526715

                     E (Thermal)             CV                S
                      KCal/Mol        Cal/Mol-Kelvin    Cal/Mol-Kelvin
 Total                   24.503              8.323             56.857
 Electronic               0.000              0.000              2.183
 Translational            0.889              2.981             35.818
 Rotational               0.889              2.981             18.151
 Vibrational             22.726              2.361              0.705

 Optimization completed.
    -- Stationary point found.
 Normal termination of Gaussian 09 at Thu Jan 24 15:38:33 2019.
