 Gaussian 09, Revision D.01,
 Gaussian 09:  ES64L-G09RevD.01 24-Apr-2013

 ---------------------------
 #p b3lyp/6-311++g(d,p) freq
 ---------------------------

 ---
 min
 ---
 Symbolic Z-matrix:
 Charge =  1 Multiplicity = 1

                         Standard orientation:
 ---------------------------------------------------------------------
 Center     Atomic      Atomic             Coordinates (Angstroms)
 Number     Number       Type             X           Y           Z
 ---------------------------------------------------------------------
      1          6           0        0.761862   -0.483533   -0.000000
      2          6           0        0.000000    0.728608   -0.000000
      3          1           0        1.079693   -0.914913    0.944375
      4          1           0        1.079693   -0.914913   -0.944375
      5          1           0       -0.100231    1.815254   -0.000000
      6          8           0       -0.828791   -0.181985    0.000000
 ---------------------------------------------------------------------

 SCF Done:  E(RB3LYP) =  -152.879289705     A.U. after   10 cycles

 The electronic state is 1-A'.
 Alpha  occ. eigenvalues --  -19.51275 -10.60081 -10.53862  -1.45877  -1.00822
 Alpha  occ. eigenvalues --   -0.91874  -0.81751  -0.79699  -0.74631  -0.66381
 Alpha  occ. eigenvalues --   -0.63512
 Alpha virt. eigenvalues --   -0.36310  -0.28837  -0.17848  -0.16977  -0.14358
 Alpha virt. eigenvalues --   -0.13584  -0.10234  -0.07881  -0.06957  -0.06754
 Alpha virt. eigenvalues --   -0.04425  -0.02167  -0.01340  -0.00834  -0.00413

 Mulliken charges:
               1
     1  C   -0.127301
     2  C    0.210837
     3  H    0.263855
     4  H    0.263855
     5  H    0.286631
     6  O    0.102123
 Sum of Mulliken charges =   1.00000

 Dipole moment (field-independent basis, Debye):
    X=              2.1926    Y=              1.4127    Z=             -0.0000  Tot=              2.6083
 Quadrupole moment (field-independent basis, Debye-Ang):
   XX=            -13.8682   YY=             -9.3203   ZZ=            -13.4904
   XY=             -2.6587   XZ=             -0.0000   YZ=              0.0000

  Exact polarizability:  22.177  -3.138  22.542   0.000  -0.000  15.320
 Approx polarizability:  39.685  -1.674  31.929  -0.000  -0.000  20.481

                      1                      2                      3
                     A'                     A"                     A"
 Frequencies --    509.1138               777.4566              1004.6375
 Red. masses --      7.9739                 1.0322                 1.1906
 Frc consts  --      1.2177                 0.3676                 0.7080
 IR Inten    --     91.0333                16.0041                 0.0284

                      4                      5                      6
                     A'                     A"                     A'
 Frequencies --   1005.5962              1092.0106              1130.9501
 Red. masses --      1.4601                 1.4871                 1.2820
 Frc consts  --      0.8699                 1.0448                 0.9661
 IR Inten    --     61.9651                 0.5190                 1.8449

                      7                      8                      9
                     A'                     A'                     A'
 Frequencies --   1340.2576              1447.8828              1688.4687
 Red. masses --      2.4484                 1.1373                 7.1040
 Frc consts  --      2.5913                 1.4048                11.9328
 IR Inten    --     13.2467                13.0955                54.8774

                     10                     11                     12
                     A'                     A'                     A"
 Frequencies --   3118.6659              3171.1574              3248.9557
 Red. masses --      1.0474                 1.1200                 1.1268
 Frc consts  --      6.0022                 6.6359                 7.0081
 IR Inten    --     39.8269                35.5002                41.4822

 - Thermochemistry -
 -------------------
 Temperature   298.150 Kelvin.  Pressure   1.00000 Atm.
 Atom     1 has atomic number  6 and mass  12.00000

 Molecular mass:    43.01839 amu.
 Principal axes and moments of inertia in atomic units:
                           1         2         3
     Eigenvalues --    50.91202  86.66145 124.73446
           X            0.88021   0.47459   0.00000
           Y           -0.47459   0.88021   0.00000
           Z            0.00000  -0.00000   1.00000
 This molecule is an asymmetric top.
 Rotational symmetry number  1.
 Rotational temperatures (Kelvin)      1.70124     0.99945     0.69439
 Rotational constants (GHZ):          35.44823    20.82519    14.46867
 Zero-point vibrational energy     116846.2 (Joules/Mol)
                                   27.92690 (Kcal/Mol)
 Warning -- explicit consideration of   1 degrees of freedom as
           vibrations may cause significant error
 Vibrational temperatures:    732.50  1118.59  1445.45  1446.83  1571.16
          (Kelvin)           1627.18  1928.33  2083.18  2429.33  4487.06
                             4562.58  4674.52

 Zero-point correction=                           0.044504 (Hartree/Particle)
 Thermal correction to Energy=                    0.047777
 Thermal correction to Enthalpy=                  0.048722
 Thermal correction to Gibbs Free Energy=         0.020523
 Sum of electronic and zero-point Energies=           -152.834785
 Sum of electronic and thermal Energies=              -152.831512
 Sum of electronic and thermal Enthalpies=            -152.830568
 Sum of electronic and thermal Free Energies=         -152.858766

                     E (Thermal)             CV                S
                      KCal/Mol        Cal/Mol-Kelvin    Cal/Mol-Kelvin
 Total                   29.981              9.423             59.348
 Electronic               0.000              0.000              0.000
 Translational            0.889              2.981             37.204
 Rotational               0.889              2.981             20.937
 Vibrational             28.203              3.461              1.208
 Vibration     1          0.864              1.230              0.636

 Optimization completed.
    -- Stationary point found.
 Normal termination of Gaussian 09 at Thu Jan 24 15:42:50 2019.
