 Gaussian 09, Revision D.01,
 Gaussian 09:  ES64L-G09RevD.01 24-Apr-2013

 ---------------------------
 #p b3lyp/6-311++g(d,p) freq
 ---------------------------

 ---
 min
 ---
 Symbolic Z-matrix:
 Charge =  0 Multiplicity = 4

                         Standard orientation:
 ---------------------------------------------------------------------
 Center     Atomic      Atomic             Coordinates (Angstroms)
 Number     Number       Type             X           Y           Z
 ---------------------------------------------------------------------
      1          6           0        0.046563    0.524902   -0.174498
      2          6           0       -1.291589   -0.078610    0.009699
      3          1           0       -1.696104   -0.752350   -0.745770
      4          1           0       -1.710041   -0.155154    1.012224
      5          1           0        1.577190   -0.577410   -0.601946
      6          8           0        1.162389   -0.149104    0.165536
 ---------------------------------------------------------------------

 SCF Done:  E(UB3LYP) =  -153.075898353     A.U. after   13 cycles

 The electronic state is 4-A.
 Alpha  occ. eigenvalues --  -19.19255 -10.24667 -10.21071  -1.09663  -0.76228
 Alpha  occ. eigenvalues --   -0.63485  -0.51332  -0.46860  -0.44371  -0.42755
 Alpha  occ. eigenvalues --   -0.28088  -0.21982  -0.20066
 Alpha virt. eigenvalues --   -0.01680   0.00949   0.03010   0.05295   0.07505
 Alpha virt. eigenvalues --    0.07953   0.08704   0.09702   0.12168   0.13997
 Alpha virt. eigenvalues --    0.14726   0.15255   0.17071   0.19317   0.20306

  Beta  occ. eigenvalues --  -19.18336 -10.21951 -10.19484  -1.07283  -0.70722
  Beta  occ. eigenvalues --   -0.60416  -0.47347  -0.43768  -0.41589  -0.37636
  Beta virt. eigenvalues --   -0.12395  -0.06005  -0.03590  -0.00200   0.01276
  Beta virt. eigenvalues --    0.03137   0.06224   0.07996   0.08666   0.09466
  Beta virt. eigenvalues --    0.10680   0.12955   0.14486   0.15443   0.16634

 Mulliken charges and spin densities:
               1          2
     1  C   -0.157272   1.737571
     2  C   -0.227250   1.038672
     3  H    0.121552   0.008033
     4  H    0.136846   0.011023
     5  H    0.272621   0.051246
     6  O   -0.146497   0.153454
 Sum of Mulliken charges =   0.00000   3.00000

 Dipole moment (field-independent basis, Debye):
    X=              0.0656    Y=             -1.4931    Z=             -1.0995  Tot=              1.8554
 Quadrupole moment (field-independent basis, Debye-Ang):
   XX=            -16.9735   YY=            -19.7478   ZZ=            -18.1150
   XY=             -0.6229   XZ=             -2.8196   YZ=              1.5020

  Exact polarizability:  39.408  -0.926  28.062  -1.408  -0.124  25.500
 Approx polarizability:  48.068  -2.664  34.616  -0.906   0.065  32.032

                      1                      2                      3
                      A                      A                      A
 Frequencies --    373.1711               422.3531               472.9552
 Red. masses --      1.1475                 2.6911                 1.1634
 Frc consts  --      0.0941                 0.2828                 0.1533
 IR Inten    --     94.6993                30.1042                 7.2994

                      4                      5                      6
                      A                      A                      A
 Frequencies --    640.6009               957.0735              1015.1359
 Red. masses --      1.6523                 1.2766                 7.8231
 Frc consts  --      0.3995                 0.6890                 4.7498
 IR Inten    --     37.5493                10.2637                14.3251

                      7                      8                      9
                      A                      A                      A
 Frequencies --   1127.0269              1276.6473              1424.1261
 Red. masses --      1.4473                 3.8152                 1.1361
 Frc consts  --      1.0831                 3.6636                 1.3575
 IR Inten    --    131.1046                41.4167                 0.8365

                     10                     11                     12
                      A                      A                      A
 Frequencies --   3057.6467              3152.0322              3636.0404
 Red. masses --      1.0460                 1.1165                 1.0655
 Frc consts  --      5.7620                 6.5357                 8.2998
 IR Inten    --     25.3771                14.2241                22.6342

 - Thermochemistry -
 -------------------
 Temperature   298.150 Kelvin.  Pressure   1.00000 Atm.
 Atom     1 has atomic number  6 and mass  12.00000

 Molecular mass:    43.01839 amu.
 Principal axes and moments of inertia in atomic units:
                           1         2         3
     Eigenvalues --    26.15750 187.30748 195.85113
           X            0.99944   0.02442  -0.02296
           Y           -0.01563   0.94542   0.32547
           Z            0.02966  -0.32493   0.94527
 This molecule is an asymmetric top.
 Rotational symmetry number  1.
 Rotational temperatures (Kelvin)      3.31124     0.46242     0.44224
 Rotational constants (GHZ):          68.99516     9.63518     9.21486
 Zero-point vibrational energy     105001.1 (Joules/Mol)
                                   25.09586 (Kcal/Mol)
 Warning -- explicit consideration of   3 degrees of freedom as
           vibrations may cause significant error
 Vibrational temperatures:    536.91   607.67   680.48   921.68  1377.01
          (Kelvin)           1460.55  1621.54  1836.81  2049.00  4399.27
                             4535.07  5231.44

 Zero-point correction=                           0.039993 (Hartree/Particle)
 Thermal correction to Energy=                    0.043953
 Thermal correction to Enthalpy=                  0.044898
 Thermal correction to Gibbs Free Energy=         0.014103
 Sum of electronic and zero-point Energies=           -153.035906
 Sum of electronic and thermal Energies=              -153.031945
 Sum of electronic and thermal Enthalpies=            -153.031001
 Sum of electronic and thermal Free Energies=         -153.061796

                     E (Thermal)             CV                S
                      KCal/Mol        Cal/Mol-Kelvin    Cal/Mol-Kelvin
 Total                   27.581             12.470             64.814
 Electronic               0.000              0.000              2.755
 Translational            0.889              2.981             37.204
 Rotational               0.889              2.981             21.489
 Vibrational             25.804              6.509              3.366
 Vibration     1          0.745              1.527              1.067
 Vibration     2          0.785              1.422              0.884
 Vibration     3          0.830              1.310              0.729

 Optimization completed.
    -- Stationary point found.
 Normal termination of Gaussian 09 at Sun Mar  4 21:08:04 2018.
