 Gaussian 09, Revision D.01,
 Gaussian 09:  ES64L-G09RevD.01 24-Apr-2013

 ---------------------------
 #p b3lyp/6-311++g(d,p) freq
 ---------------------------

 ---
 min
 ---
 Symbolic Z-matrix:
 Charge =  1 Multiplicity = 1

                         Standard orientation:
 ---------------------------------------------------------------------
 Center     Atomic      Atomic             Coordinates (Angstroms)
 Number     Number       Type             X           Y           Z
 ---------------------------------------------------------------------
      1          6           0       -1.332957    0.526967   -0.000000
      2          6           0       -0.000000    0.558534   -0.000000
      3          1           0        0.635200    1.439760   -0.000000
      4          1           0        1.112399   -1.004237    0.819103
      5          1           0        1.112399   -1.004237   -0.819103
      6          8           0        0.642218   -0.743037    0.000000
 ---------------------------------------------------------------------

 SCF Done:  E(RB3LYP) =  -152.766954530     A.U. after   12 cycles

 The electronic state is 1-A'.
 Alpha  occ. eigenvalues --  -19.55352 -10.50205 -10.49239  -1.44140  -1.05358
 Alpha  occ. eigenvalues --   -0.93927  -0.88511  -0.80702  -0.69343  -0.54726
 Alpha  occ. eigenvalues --   -0.53470
 Alpha virt. eigenvalues --   -0.37600  -0.25042  -0.24301  -0.18410  -0.15503
 Alpha virt. eigenvalues --   -0.11702  -0.10695  -0.08302  -0.07374  -0.06738
 Alpha virt. eigenvalues --   -0.05078  -0.04318  -0.03059  -0.01427  -0.00940

 Mulliken charges:
               1
     1  C    0.185418
     2  C   -0.132350
     3  H    0.283449
     4  H    0.406420
     5  H    0.406420
     6  O   -0.149357
 Sum of Mulliken charges =   1.00000

 Dipole moment (field-independent basis, Debye):
    X=              4.7819    Y=             -1.6924    Z=             -0.0000  Tot=              5.0725
 Quadrupole moment (field-independent basis, Debye-Ang):
   XX=            -13.0911   YY=            -10.0681   ZZ=            -14.2598
   XY=             -3.6268   XZ=             -0.0000   YZ=              0.0000

  Exact polarizability:  29.646  -2.475  22.351  -0.000  -0.000  18.791
 Approx polarizability:  45.546  -2.283  31.090  -0.000   0.000  25.748

                      1                      2                      3
                     A'                     A"                     A'
 Frequencies --    264.0032               281.5735               568.3959
 Red. masses --      5.1239                 1.1543                 1.2830
 Frc consts  --      0.2104                 0.0539                 0.2442
 IR Inten    --     14.0669                29.9892               340.1723

                      4                      5                      6
                     A"                     A'                     A"
 Frequencies --    685.4347               901.2811              1078.9856
 Red. masses --      1.3131                 6.4564                 1.2168
 Frc consts  --      0.3635                 3.0900                 0.8347
 IR Inten    --     66.8174                34.7372                 1.0079

                      7                      8                      9
                     A'                     A'                     A'
 Frequencies --   1126.2461              1629.7855              1694.8065
 Red. masses --      1.1677                 1.9856                 1.7670
 Frc consts  --      0.8726                 3.1074                 2.9903
 IR Inten    --      1.7828                28.3924               117.9811

                     10                     11                     12
                     A'                     A'                     A"
 Frequencies --   3178.1817              3585.5385              3661.7996
 Red. masses --      1.0939                 1.0402                 1.0939
 Frc consts  --      6.5099                 7.8791                 8.6421
 IR Inten    --     67.5757               268.9123               423.6753

 - Thermochemistry -
 -------------------
 Temperature   298.150 Kelvin.  Pressure   1.00000 Atm.
 Atom     1 has atomic number  6 and mass  12.00000

 Molecular mass:    43.01839 amu.
 Principal axes and moments of inertia in atomic units:
                           1         2         3
     Eigenvalues --    30.46711 160.07556 180.88393
           X            0.80385   0.59483   0.00000
           Y           -0.59483   0.80385   0.00000
           Z           -0.00000   0.00000   1.00000
 This molecule is an asymmetric top.
 Rotational symmetry number  1.
 Rotational temperatures (Kelvin)      2.84286     0.54108     0.47884
 Rotational constants (GHZ):          59.23573    11.27431     9.97734
 Zero-point vibrational energy     111587.8 (Joules/Mol)
                                   26.67014 (Kcal/Mol)
 Warning -- explicit consideration of   3 degrees of freedom as
           vibrations may cause significant error
 Vibrational temperatures:    379.84   405.12   817.79   986.19  1296.74
          (Kelvin)           1552.42  1620.41  2344.89  2438.45  4572.69
                             5158.78  5268.51

 Zero-point correction=                           0.042502 (Hartree/Particle)
 Thermal correction to Energy=                    0.046650
 Thermal correction to Enthalpy=                  0.047594
 Thermal correction to Gibbs Free Energy=         0.017721
 Sum of electronic and zero-point Energies=           -152.724453
 Sum of electronic and thermal Energies=              -152.720304
 Sum of electronic and thermal Enthalpies=            -152.719360
 Sum of electronic and thermal Free Energies=         -152.749234

                     E (Thermal)             CV                S
                      KCal/Mol        Cal/Mol-Kelvin    Cal/Mol-Kelvin
 Total                   29.273             12.505             62.874
 Electronic               0.000              0.000              0.000
 Translational            0.889              2.981             37.204
 Rotational               0.889              2.981             21.405
 Vibrational             27.496              6.543              4.265
 Vibration     1          0.671              1.739              1.635
 Vibration     2          0.681              1.708              1.524
 Vibration     3          0.924              1.100              0.507

 Normal termination of Gaussian 09 at Thu Jan 24 15:42:50 2019.
