 Gaussian 09, Revision D.01,
 Gaussian 09:  ES64L-G09RevD.01 24-Apr-2013

 ---------------------------
 #p b3lyp/6-311++g(d,p) freq
 ---------------------------

 ---
 min
 ---
 Symbolic Z-matrix:
 Charge =  0 Multiplicity = 2

                         Standard orientation:
 ---------------------------------------------------------------------
 Center     Atomic      Atomic             Coordinates (Angstroms)
 Number     Number       Type             X           Y           Z
 ---------------------------------------------------------------------
      1          6           0        0.035257   -0.418175    0.656131
      2          6           0        0.035257   -0.418175   -0.656131
      3          6           0        0.035257    0.886457   -0.000000
      4          1           0        0.047656   -0.982352    1.573775
      5          1           0        0.047656   -0.982352   -1.573775
      6          1           0       -0.729932    1.664059   -0.000000
 ---------------------------------------------------------------------

 SCF Done:  E(UB3LYP) =  -115.986193631     A.U. after   12 cycles

 The electronic state is 2-A'.
 Alpha  occ. eigenvalues --  -10.21091 -10.20989 -10.19241  -0.90125  -0.59409
 Alpha  occ. eigenvalues --   -0.58571  -0.51827  -0.40183  -0.34734  -0.32399
 Alpha  occ. eigenvalues --   -0.16909
 Alpha virt. eigenvalues --   -0.02994   0.00124   0.01212   0.01576   0.05152
 Alpha virt. eigenvalues --    0.07416   0.07652   0.08355   0.09975   0.10697
 Alpha virt. eigenvalues --    0.11693   0.12219   0.12361   0.13598   0.17203

  Beta  occ. eigenvalues --  -10.20939 -10.20839 -10.17980  -0.89209  -0.58232
  Beta  occ. eigenvalues --   -0.57728  -0.50767  -0.37780  -0.33028  -0.31593
  Beta virt. eigenvalues --   -0.03955  -0.02089   0.00132   0.01207   0.01702
  Beta virt. eigenvalues --    0.05397   0.07441   0.07615   0.08331   0.10980
  Beta virt. eigenvalues --    0.11248   0.11882   0.12318   0.12423   0.13774

 Mulliken charges and spin densities:
               1          2
     1  C   -0.092598   0.085496
     2  C   -0.092598   0.085496
     3  C   -0.248687   0.817173
     4  H    0.160966  -0.008061
     5  H    0.160966  -0.008061
     6  H    0.111952   0.027958
 Sum of Mulliken charges =  -0.00000   1.00000

 Dipole moment (field-independent basis, Debye):
    X=             -0.6917    Y=             -1.3858    Z=             -0.0000  Tot=              1.5489
 Quadrupole moment (field-independent basis, Debye-Ang):
   XX=            -19.6822   YY=            -18.8519   ZZ=            -15.8604
   XY=             -1.5058   XZ=             -0.0000   YZ=              0.0000

  Exact polarizability:  24.877  -0.580  38.813   0.000   0.000  35.562
 Approx polarizability:  31.753  -0.909  51.061  -0.000   0.000  56.850

                      1                      2                      3
                     A'                     A"                     A"
 Frequencies --    614.4200               691.9528               885.4480
 Red. masses --      1.1299                 2.5671                 1.4514
 Frc consts  --      0.2513                 0.7242                 0.6705
 IR Inten    --     76.1924                40.8704                 0.0026

                      4                      5                      6
                     A'                     A'                     A"
 Frequencies --    915.7191               966.6560               976.0018
 Red. masses --      1.0917                 1.2879                 1.3664
 Frc consts  --      0.5393                 0.7090                 0.7669
 IR Inten    --      5.0530                20.9393                 9.8159

                      7                      8                      9
                     A"                     A'                     A'
 Frequencies --   1030.4485              1228.9664              1655.7168
 Red. masses --      1.4903                 5.7725                 5.3577
 Frc consts  --      0.9324                 5.1368                 8.6537
 IR Inten    --     22.9645                 8.6047                 0.6718

                     10                     11                     12
                     A'                     A"                     A'
 Frequencies --   3054.8372              3237.8274              3283.9005
 Red. masses --      1.0892                 1.0819                 1.1404
 Frc consts  --      5.9886                 6.6827                 7.2456
 IR Inten    --     52.8576                 3.0659                 0.2770

 - Thermochemistry -
 -------------------
 Temperature   298.150 Kelvin.  Pressure   1.00000 Atm.
 Atom     1 has atomic number  6 and mass  12.00000

 Molecular mass:    39.02348 amu.
 Principal axes and moments of inertia in atomic units:
                           1         2         3
     Eigenvalues --    56.44347  67.62278 120.62873
           X           -0.07264   0.00000   0.99736
           Y            0.99736  -0.00000   0.07264
           Z            0.00000   1.00000   0.00000
 This molecule is an asymmetric top.
 Rotational symmetry number  1.
 Rotational temperatures (Kelvin)      1.53452     1.28084     0.71802
 Rotational constants (GHZ):          31.97431    26.68836    14.96112
 Zero-point vibrational energy     110905.2 (Joules/Mol)
                                   26.50697 (Kcal/Mol)
 Warning -- explicit consideration of   1 degrees of freedom as
           vibrations may cause significant error
 Vibrational temperatures:    884.01   995.56  1273.96  1317.51  1390.80
          (Kelvin)           1404.25  1482.58  1768.21  2382.20  4395.22
                             4658.51  4724.79

 Zero-point correction=                           0.042242 (Hartree/Particle)
 Thermal correction to Energy=                    0.045583
 Thermal correction to Enthalpy=                  0.046527
 Thermal correction to Gibbs Free Energy=         0.017826
 Sum of electronic and zero-point Energies=           -115.943952
 Sum of electronic and thermal Energies=              -115.940611
 Sum of electronic and thermal Enthalpies=            -115.939667
 Sum of electronic and thermal Free Energies=         -115.968368

                     E (Thermal)             CV                S
                      KCal/Mol        Cal/Mol-Kelvin    Cal/Mol-Kelvin
 Total                   28.604             10.201             60.406
 Electronic               0.000              0.000              1.377
 Translational            0.889              2.981             36.913
 Rotational               0.889              2.981             20.759
 Vibrational             26.826              4.240              1.356
 Vibration     1          0.974              1.001              0.426

 Optimization completed.
    -- Stationary point found.
 Normal termination of Gaussian 09 at Sun Mar  4 21:07:49 2018.
