 Gaussian 09, Revision D.01,
 Gaussian 09:  ES64L-G09RevD.01 24-Apr-2013

 ---------------------------
 #p b3lyp/6-311++g(d,p) freq
 ---------------------------

 ---
 min
 ---
 Symbolic Z-matrix:
 Charge =  0 Multiplicity = 2

                         Standard orientation:
 ---------------------------------------------------------------------
 Center     Atomic      Atomic             Coordinates (Angstroms)
 Number     Number       Type             X           Y           Z
 ---------------------------------------------------------------------
      1          6           0        0.000000   -0.000000    0.115477
      2          6           0        0.000000   -0.000000    1.338491
      3          6           0       -0.000000    0.000000   -1.251847
      4          1           0        0.000000   -0.000000    2.400971
      5          1           0        0.000000    0.930169   -1.806846
      6          1           0       -0.000000   -0.930169   -1.806846
 ---------------------------------------------------------------------

 SCF Done:  E(UB3LYP) =  -116.039757124     A.U. after   14 cycles

 The electronic state is 2-B1.
 Alpha  occ. eigenvalues --  -10.20472 -10.19015 -10.18769  -0.79907  -0.71409
 Alpha  occ. eigenvalues --   -0.54886  -0.48509  -0.45925  -0.35121  -0.28950
 Alpha  occ. eigenvalues --   -0.22278
 Alpha virt. eigenvalues --   -0.00338   0.00907   0.01273   0.03899   0.03934
 Alpha virt. eigenvalues --    0.05422   0.08545   0.08653   0.09379   0.09717
 Alpha virt. eigenvalues --    0.11534   0.12686   0.14550   0.15320   0.16158

  Beta  occ. eigenvalues --  -10.19426 -10.19302 -10.18055  -0.78691  -0.68955
  Beta  occ. eigenvalues --   -0.54093  -0.47869  -0.45315  -0.31791  -0.28526
  Beta virt. eigenvalues --   -0.10480  -0.00204   0.00939   0.01356   0.03934
  Beta virt. eigenvalues --    0.04237   0.05452   0.08720   0.09463   0.10231
  Beta virt. eigenvalues --    0.11425   0.11786   0.13010   0.14554   0.16065

 Mulliken charges and spin densities:
               1          2
     1  C    1.648176  -0.279700
     2  C   -1.789776   0.519485
     3  C   -0.254578   0.864230
     4  H    0.119802  -0.025589
     5  H    0.138188  -0.039213
     6  H    0.138188  -0.039213
 Sum of Mulliken charges =   0.00000   1.00000

 Dipole moment (field-independent basis, Debye):
    X=             -0.0000    Y=              0.0000    Z=             -0.1010  Tot=              0.1010
 Quadrupole moment (field-independent basis, Debye-Ang):
   XX=            -20.4933   YY=            -18.5988   ZZ=            -12.9909
   XY=             -0.0000   XZ=              0.0000   YZ=             -0.0000

  Exact polarizability:  21.115  -0.000  21.930   0.000   0.000  60.052
 Approx polarizability:  25.785   0.000  27.356   0.000  -0.000  98.325

                      1                      2                      3
                     B2                     B1                     B1
 Frequencies --    357.6675               411.2186               478.8472
 Red. masses --      2.7627                 3.7498                 1.2668
 Frc consts  --      0.2082                 0.3736                 0.1711
 IR Inten    --      6.9166                11.7522                54.2905

                      4                      5                      6
                     B2                     B1                     B2
 Frequencies --    645.3332               692.8996              1031.3859
 Red. masses --      1.2383                 1.3760                 1.4526
 Frc consts  --      0.3038                 0.3892                 0.9104
 IR Inten    --     60.9782                54.2291                 0.4187

                      7                      8                      9
                     A1                     A1                     A1
 Frequencies --   1088.3164              1454.0731              2007.6967
 Red. masses --      3.7699                 1.2044                 6.8078
 Frc consts  --      2.6308                 1.5003                16.1679
 IR Inten    --      1.7435                 1.3425                 0.5155

                     10                     11                     12
                     A1                     B2                     A1
 Frequencies --   3139.6054              3230.8220              3467.1612
 Red. masses --      1.0510                 1.1174                 1.1376
 Frc consts  --      6.1040                 6.8722                 8.0573
 IR Inten    --      2.0865                 0.6918                64.2401

 - Thermochemistry -
 -------------------
 Temperature   298.150 Kelvin.  Pressure   1.00000 Atm.
 Atom     1 has atomic number  6 and mass  12.00000

 Molecular mass:    39.02348 amu.
 Principal axes and moments of inertia in atomic units:
                           1         2         3
     Eigenvalues --     6.22783 188.61405 194.84187
           X            0.00000  -0.00000   1.00000
           Y           -0.00000   1.00000   0.00000
           Z            1.00000   0.00000  -0.00000
 This molecule is an asymmetric top.
 Rotational symmetry number  2.
 Rotational temperatures (Kelvin)     13.90755     0.45921     0.44453
 Rotational constants (GHZ):         289.78674     9.56843     9.26259
 Zero-point vibrational energy     107694.0 (Joules/Mol)
                                   25.73948 (Kcal/Mol)
 Warning -- explicit consideration of   3 degrees of freedom as
           vibrations may cause significant error
 Vibrational temperatures:    514.60   591.65   688.95   928.49   996.93
          (Kelvin)           1483.93  1565.84  2092.08  2888.62  4517.19
                             4648.43  4988.47

 Zero-point correction=                           0.041018 (Hartree/Particle)
 Thermal correction to Energy=                    0.045060
 Thermal correction to Enthalpy=                  0.046004
 Thermal correction to Gibbs Free Energy=         0.017211
 Sum of electronic and zero-point Energies=           -115.998739
 Sum of electronic and thermal Energies=              -115.994697
 Sum of electronic and thermal Enthalpies=            -115.993753
 Sum of electronic and thermal Free Energies=         -116.022547

                     E (Thermal)             CV                S
                      KCal/Mol        Cal/Mol-Kelvin    Cal/Mol-Kelvin
 Total                   28.276             12.778             60.602
 Electronic               0.000              0.000              1.377
 Translational            0.889              2.981             36.913
 Rotational               0.889              2.981             18.687
 Vibrational             26.498              6.817              3.624
 Vibration     1          0.733              1.559              1.132
 Vibration     2          0.775              1.446              0.922
 Vibration     3          0.835              1.297              0.713

 Optimization completed.
    -- Stationary point found.
 Normal termination of Gaussian 09 at Sun Mar  4 21:07:31 2018.
