 Gaussian 09, Revision D.01,
 Gaussian 09:  ES64L-G09RevD.01 24-Apr-2013

 ---------------------------
 #p b3lyp/6-311++g(d,p) freq
 ---------------------------

 ---
 min
 ---
 Symbolic Z-matrix:
 Charge =  1 Multiplicity = 1

                         Standard orientation:
 ---------------------------------------------------------------------
 Center     Atomic      Atomic             Coordinates (Angstroms)
 Number     Number       Type             X           Y           Z
 ---------------------------------------------------------------------
      1          6           0       -0.663057   -1.001866   -0.000000
      2          6           0        0.695367   -0.977139    0.000000
      3          6           0        0.000000    0.206146   -0.000000
      4          1           0       -1.571831   -1.588726   -0.000000
      5          1           0       -0.799007    1.922132   -0.000000
      6          1           0        1.624533   -1.530836    0.000000
      7          8           0        0.069055    1.479323   -0.000000
 ---------------------------------------------------------------------

 SCF Done:  E(RB3LYP) =  -191.026469682     A.U. after   11 cycles

 The electronic state is 1-A'.
 Alpha  occ. eigenvalues --  -19.44080 -10.55070 -10.49110 -10.48844  -1.36443
 Alpha  occ. eigenvalues --   -1.20324  -0.90020  -0.84760  -0.81044  -0.72175
 Alpha  occ. eigenvalues --   -0.70751  -0.65010  -0.59109  -0.58952
 Alpha virt. eigenvalues --   -0.28269  -0.24285  -0.19624  -0.14442  -0.13761
 Alpha virt. eigenvalues --   -0.12577  -0.10463  -0.10003  -0.09069  -0.05194
 Alpha virt. eigenvalues --   -0.05111  -0.04816  -0.03834  -0.03413  -0.02371

 Mulliken charges:
               1
     1  C    0.137964
     2  C    0.001921
     3  C    0.112953
     4  H    0.267355
     5  H    0.346031
     6  H    0.264974
     7  O   -0.131198
 Sum of Mulliken charges =   1.00000

 Dipole moment (field-independent basis, Debye):
    X=             -1.6349    Y=             -1.5828    Z=             -0.0000  Tot=              2.2756
 Quadrupole moment (field-independent basis, Debye-Ang):
   XX=            -13.6552   YY=            -10.7454   ZZ=            -20.9673
   XY=             -3.8704   XZ=              0.0000   YZ=             -0.0000

  Exact polarizability:  30.238  -0.942  38.281  -0.001   0.001  16.755
 Approx polarizability:  46.978  -0.343  57.890   0.000  -0.000  23.759

                      1                      2                      3
                     A'                     A"                     A"
 Frequencies --    459.9798               492.0255               619.3711
 Red. masses --      3.0589                 3.0298                 1.1467
 Frc consts  --      0.3813                 0.4322                 0.2592
 IR Inten    --     13.2674                11.7663               155.6104

                      4                      5                      6
                     A"                     A'                     A"
 Frequencies --    859.7733               865.5062               993.4755
 Red. masses --      1.5066                 1.8524                 1.4053
 Frc consts  --      0.6562                 0.8176                 0.8172
 IR Inten    --     51.2513                19.4440                 0.3013

                      7                      8                      9
                     A'                     A'                     A'
 Frequencies --   1008.8822              1021.9114              1189.7446
 Red. masses --      1.4156                 1.8535                 1.6141
 Frc consts  --      0.8489                 1.1405                 1.3461
 IR Inten    --     14.6088                 6.8142               129.8309

                     10                     11                     12
                     A'                     A'                     A'
 Frequencies --   1373.8844              1444.7475              1875.5384
 Red. masses --      2.9249                 6.0760                 7.5109
 Frc consts  --      3.2528                 7.4722                15.5666
 IR Inten    --     78.7373               126.9007               235.4096

                     13                     14                     15
                     A'                     A'                     A'
 Frequencies --   3237.1577              3269.3613              3695.0340
 Red. masses --      1.0996                 1.1433                 1.0669
 Frc consts  --      6.7889                 7.2002                 8.5825
 IR Inten    --     77.8490                53.9933               270.0667

 - Thermochemistry -
 -------------------
 Temperature   298.150 Kelvin.  Pressure   1.00000 Atm.
 Atom     1 has atomic number  6 and mass  12.00000

 Molecular mass:    55.01839 amu.
 Principal axes and moments of inertia in atomic units:
                           1         2         3
     Eigenvalues --    60.48466 241.47391 301.95857
           X           -0.00200   1.00000   0.00000
           Y            1.00000   0.00200   0.00000
           Z            0.00000   0.00000   1.00000
 This molecule is an asymmetric top.
 Rotational symmetry number  1.
 Rotational temperatures (Kelvin)      1.43200     0.35869     0.28684
 Rotational constants (GHZ):          29.83800     7.47386     5.97678
 Zero-point vibrational energy     134020.0 (Joules/Mol)
                                   32.03155 (Kcal/Mol)
 Warning -- explicit consideration of   3 degrees of freedom as
           vibrations may cause significant error
 Vibrational temperatures:    661.81   707.91   891.14  1237.02  1245.27
          (Kelvin)           1429.39  1451.55  1470.30  1711.78  1976.71
                             2078.67  2698.48  4657.54  4703.88  5316.32

 Zero-point correction=                           0.051046 (Hartree/Particle)
 Thermal correction to Energy=                    0.054778
 Thermal correction to Enthalpy=                  0.055722
 Thermal correction to Gibbs Free Energy=         0.025561
 Sum of electronic and zero-point Energies=           -190.975424
 Sum of electronic and thermal Energies=              -190.971692
 Sum of electronic and thermal Enthalpies=            -190.970748
 Sum of electronic and thermal Free Energies=         -191.000909

                     E (Thermal)             CV                S
                      KCal/Mol        Cal/Mol-Kelvin    Cal/Mol-Kelvin
 Total                   34.373             12.208             63.480
 Electronic               0.000              0.000              0.000
 Translational            0.889              2.981             37.937
 Rotational               0.889              2.981             23.004
 Vibrational             32.596              6.247              2.538
 Vibration     1          0.818              1.339              0.766
 Vibration     2          0.848              1.268              0.678
 Vibration     3          0.979              0.991              0.418

 Optimization completed.
    -- Stationary point found.
 Normal termination of Gaussian 09 at Thu Jan 24 15:46:57 2019.
