 Gaussian 09, Revision D.01,
 Gaussian 09:  ES64L-G09RevD.01 24-Apr-2013

 ---------------------------
 #p b3lyp/6-311++g(d,p) freq
 ---------------------------

 ---
 min
 ---
 Symbolic Z-matrix:
 Charge =  1 Multiplicity = 1

                         Standard orientation:
 ---------------------------------------------------------------------
 Center     Atomic      Atomic             Coordinates (Angstroms)
 Number     Number       Type             X           Y           Z
 ---------------------------------------------------------------------
      1          6           0       -0.431342    1.861055    0.000000
      2          6           0       -0.000000    0.730029    0.000000
      3          6           0        0.569746   -0.530107   -0.000000
      4          1           0       -0.822990    2.859087    0.000000
      5          1           0       -1.050104   -1.533065   -0.000000
      6          1           0        1.652509   -0.656502   -0.000000
      7          8           0       -0.076230   -1.629422   -0.000000
 ---------------------------------------------------------------------

 SCF Done:  E(RB3LYP) =  -191.010971405     A.U. after   13 cycles

 The electronic state is 1-A'.
 Alpha  occ. eigenvalues --  -19.47191 -10.57266 -10.46506 -10.43483  -1.39269
 Alpha  occ. eigenvalues --   -1.05099  -0.97227  -0.88705  -0.77742  -0.76858
 Alpha  occ. eigenvalues --   -0.70695  -0.65532  -0.56270  -0.54883
 Alpha virt. eigenvalues --   -0.36200  -0.24010  -0.18057  -0.15269  -0.14841
 Alpha virt. eigenvalues --   -0.12369  -0.10508  -0.09907  -0.08199  -0.06975
 Alpha virt. eigenvalues --   -0.05740  -0.04993  -0.03564  -0.02322  -0.00126

 Mulliken charges:
               1
     1  C   -1.647495
     2  C    1.923536
     3  C   -0.112385
     4  H    0.231205
     5  H    0.314852
     6  H    0.255891
     7  O    0.034395
 Sum of Mulliken charges =   1.00000

 Dipole moment (field-independent basis, Debye):
    X=             -0.8578    Y=              1.2208    Z=              0.0000  Tot=              1.4920
 Quadrupole moment (field-independent basis, Debye-Ang):
   XX=            -15.0746   YY=             -7.2280   ZZ=            -21.4980
   XY=             -1.7904   XZ=             -0.0000   YZ=             -0.0000

  Exact polarizability:  26.257  -7.238  56.230   0.000  -0.000  16.792
 Approx polarizability:  38.497 -19.099 110.219  -0.000   0.000  22.256

                      1                      2                      3
                     A'                     A"                     A'
 Frequencies --    207.0387               255.6755               606.5937
 Red. masses --      4.0343                 3.1787                 4.9256
 Frc consts  --      0.1019                 0.1224                 1.0678
 IR Inten    --      1.4558                 3.0886                33.4861

                      4                      5                      6
                     A'                     A"                     A"
 Frequencies --    742.8668               784.1670               849.0437
 Red. masses --      1.2461                 1.5669                 1.3144
 Frc consts  --      0.4051                 0.5677                 0.5583
 IR Inten    --     39.0411               152.7095                18.6571

                      7                      8                      9
                     A'                     A"                     A'
 Frequencies --   1023.4687              1055.4872              1243.2828
 Red. masses --      3.6252                 1.2937                 1.2091
 Frc consts  --      2.2373                 0.8491                 1.1012
 IR Inten    --     36.3401                31.7727               201.9747

                     10                     11                     12
                     A'                     A'                     A'
 Frequencies --   1413.6316              1566.9450              2195.4408
 Red. masses --      1.4445                 4.9805                 5.8762
 Frc consts  --      1.7008                 7.2050                16.6874
 IR Inten    --      6.4214               322.6263               467.8295

                     13                     14                     15
                     A'                     A'                     A'
 Frequencies --   3158.4125              3398.0464              3639.9832
 Red. masses --      1.0944                 1.1699                 1.0668
 Frc consts  --      6.4320                 7.9590                 8.3276
 IR Inten    --     17.4791                89.9516               219.0417

 - Thermochemistry -
 -------------------
 Temperature   298.150 Kelvin.  Pressure   1.00000 Atm.
 Atom     1 has atomic number  6 and mass  12.00000

 Molecular mass:    55.01839 amu.
 Principal axes and moments of inertia in atomic units:
                           1         2         3
     Eigenvalues --    32.04354 380.75835 412.80189
           X           -0.13551   0.99078   0.00000
           Y            0.99078   0.13551  -0.00000
           Z            0.00000  -0.00000   1.00000
 This molecule is an asymmetric top.
 Rotational symmetry number  1.
 Rotational temperatures (Kelvin)      2.70300     0.22748     0.20982
 Rotational constants (GHZ):          56.32154     4.73986     4.37193
 Zero-point vibrational energy     132427.1 (Joules/Mol)
                                   31.65084 (Kcal/Mol)
 Warning -- explicit consideration of   3 degrees of freedom as
           vibrations may cause significant error
 Vibrational temperatures:    297.88   367.86   872.75  1068.82  1128.24
          (Kelvin)           1221.58  1472.54  1518.61  1788.80  2033.90
                             2254.48  3158.75  4544.25  4889.02  5237.12

 Zero-point correction=                           0.050439 (Hartree/Particle)
 Thermal correction to Energy=                    0.054790
 Thermal correction to Enthalpy=                  0.055734
 Thermal correction to Gibbs Free Energy=         0.024307
 Sum of electronic and zero-point Energies=           -190.960533
 Sum of electronic and thermal Energies=              -190.956182
 Sum of electronic and thermal Enthalpies=            -190.955238
 Sum of electronic and thermal Free Energies=         -190.986665

                     E (Thermal)             CV                S
                      KCal/Mol        Cal/Mol-Kelvin    Cal/Mol-Kelvin
 Total                   34.381             13.579             66.144
 Electronic               0.000              0.000              0.000
 Translational            0.889              2.981             37.937
 Rotational               0.889              2.981             23.136
 Vibrational             32.604              7.618              5.071
 Vibration     1          0.641              1.830              2.070
 Vibration     2          0.666              1.753              1.691
 Vibration     3          0.965              1.018              0.438

 Normal termination of Gaussian 09 at Thu Jan 24 15:47:27 2019.
