 Gaussian 09, Revision D.01,
 Gaussian 09:  ES64L-G09RevD.01 24-Apr-2013

 ---------------------------
 #p b3lyp/6-311++g(d,p) freq
 ---------------------------

 ---
 min
 ---
 Symbolic Z-matrix:
 Charge =  0 Multiplicity = 4

                         Standard orientation:
 ---------------------------------------------------------------------
 Center     Atomic      Atomic             Coordinates (Angstroms)
 Number     Number       Type             X           Y           Z
 ---------------------------------------------------------------------
      1          6           0       -0.898426   -0.614862    0.000000
      2          6           0       -0.000000    0.424766   -0.000000
      3          6           0        1.383717    0.290941   -0.000000
      4          1           0       -1.962614   -0.409489    0.000000
      5          1           0       -0.373414    1.452434   -0.000000
      6          1           0       -0.575716   -1.648014    0.000000
 ---------------------------------------------------------------------

 SCF Done:  E(UB3LYP) =  -115.901992409     A.U. after   14 cycles

 The electronic state is 4-A".
 Alpha  occ. eigenvalues --  -10.24617 -10.21621 -10.19308  -0.82018  -0.68827
 Alpha  occ. eigenvalues --   -0.54865  -0.47559  -0.42553  -0.37150  -0.34914
 Alpha  occ. eigenvalues --   -0.23789  -0.22306
 Alpha virt. eigenvalues --   -0.00049   0.00541   0.01628   0.02975   0.05906
 Alpha virt. eigenvalues --    0.06434   0.07693   0.09682   0.10002   0.11631
 Alpha virt. eigenvalues --    0.12259   0.12449   0.12982   0.14131   0.15553

  Beta  occ. eigenvalues --  -10.21699 -10.20582 -10.18363  -0.79272  -0.63672
  Beta  occ. eigenvalues --   -0.51541  -0.45336  -0.39645  -0.31143
  Beta virt. eigenvalues --   -0.17467  -0.08295  -0.05239   0.00352   0.01815
  Beta virt. eigenvalues --    0.03067   0.03492   0.06885   0.07848   0.08637
  Beta virt. eigenvalues --    0.10267   0.10776   0.12131   0.12875   0.13272

 Mulliken charges and spin densities:
               1          2
     1  C   -0.331779   0.683772
     2  C   -0.002601  -0.211119
     3  C   -0.078044   2.484887
     4  H    0.118927  -0.010895
     5  H    0.153471   0.079583
     6  H    0.140026  -0.026228
 Sum of Mulliken charges =  -0.00000   3.00000

 Dipole moment (field-independent basis, Debye):
    X=             -0.8711    Y=              0.0511    Z=              0.0000  Tot=              0.8726
 Quadrupole moment (field-independent basis, Debye-Ang):
   XX=            -18.0793   YY=            -17.3652   ZZ=            -20.9454
   XY=             -0.2815   XZ=              0.0000   YZ=              0.0000

  Exact polarizability:  49.787   7.008  33.628  -0.002  -0.003  24.206
 Approx polarizability:  73.658  11.671  44.916  -0.000  -0.000  29.950

                      1                      2                      3
                     A'                     A"                     A"
 Frequencies --    477.3688               598.8074               812.7978
 Red. masses --      2.9771                 1.3845                 1.3760
 Frc consts  --      0.3997                 0.2925                 0.5356
 IR Inten    --      0.1172                13.2199                51.7327

                      4                      5                      6
                     A"                     A'                     A'
 Frequencies --    868.9779               988.0365              1167.6003
 Red. masses --      1.2072                 1.5415                 3.4083
 Frc consts  --      0.5371                 0.8866                 2.7377
 IR Inten    --     16.2632                 1.3322                26.2243

                      7                      8                      9
                     A'                     A'                     A'
 Frequencies --   1232.7818              1336.9080              1489.7064
 Red. masses --      2.2421                 1.4960                 1.3828
 Frc consts  --      2.0076                 1.5754                 1.8081
 IR Inten    --      0.0785                 9.9922                 6.8971

                     10                     11                     12
                     A'                     A'                     A'
 Frequencies --   3057.2466              3141.9113              3241.5196
 Red. masses --      1.0835                 1.0545                 1.1176
 Frc consts  --      5.9667                 6.1330                 6.9186
 IR Inten    --      6.2126                 1.5179                 3.3931

 - Thermochemistry -
 -------------------
 Temperature   298.150 Kelvin.  Pressure   1.00000 Atm.
 Atom     1 has atomic number  6 and mass  12.00000

 Molecular mass:    39.02348 amu.
 Principal axes and moments of inertia in atomic units:
                           1         2         3
     Eigenvalues --    26.15880 150.77096 176.92977
           X            0.91914  -0.39394   0.00000
           Y            0.39394   0.91914   0.00000
           Z            0.00000  -0.00000   1.00000
 This molecule is an asymmetric top.
 Rotational symmetry number  1.
 Rotational temperatures (Kelvin)      3.31108     0.57447     0.48954
 Rotational constants (GHZ):          68.99173    11.97008    10.20033
 Zero-point vibrational energy     110138.2 (Joules/Mol)
                                   26.32365 (Kcal/Mol)
 Warning -- explicit consideration of   2 degrees of freedom as
           vibrations may cause significant error
 Vibrational temperatures:    686.83   861.55  1169.43  1250.26  1421.56
          (Kelvin)           1679.91  1773.70  1923.51  2143.35  4398.69
                             4520.50  4663.82

 Zero-point correction=                           0.041949 (Hartree/Particle)
 Thermal correction to Energy=                    0.045407
 Thermal correction to Enthalpy=                  0.046351
 Thermal correction to Gibbs Free Energy=         0.016616
 Sum of electronic and zero-point Energies=           -115.860043
 Sum of electronic and thermal Energies=              -115.856586
 Sum of electronic and thermal Enthalpies=            -115.855642
 Sum of electronic and thermal Free Energies=         -115.885376

                     E (Thermal)             CV                S
                      KCal/Mol        Cal/Mol-Kelvin    Cal/Mol-Kelvin
 Total                   28.493             10.481             62.582
 Electronic               0.000              0.000              2.755
 Translational            0.889              2.981             36.913
 Rotational               0.889              2.981             21.173
 Vibrational             26.716              4.519              1.741
 Vibration     1          0.834              1.300              0.717
 Vibration     2          0.957              1.034              0.452

 Normal termination of Gaussian 09 at Sun Mar  4 21:07:43 2018.
