 Gaussian 09, Revision D.01,
 Gaussian 09:  ES64L-G09RevD.01 24-Apr-2013

 ---------------------------
 #p b3lyp/6-311++g(d,p) freq
 ---------------------------

 ---
 min
 ---
 Symbolic Z-matrix:
 Charge =  1 Multiplicity = 3

                         Standard orientation:
 ---------------------------------------------------------------------
 Center     Atomic      Atomic             Coordinates (Angstroms)
 Number     Number       Type             X           Y           Z
 ---------------------------------------------------------------------
      1          6           0       -0.000000    0.791066    0.000000
      2          6           0       -0.524335   -0.649641   -0.000000
      3          6           0        0.802273   -0.401101   -0.000000
      4          1           0       -0.124191    1.410023    0.910458
      5          1           0       -1.419241   -1.261993   -0.000000
      6          1           0       -0.124191    1.410023   -0.910458
 ---------------------------------------------------------------------

 SCF Done:  E(UB3LYP) =  -115.605397242     A.U. after   13 cycles

 The electronic state is 3-A".
 Alpha  occ. eigenvalues --  -10.55432 -10.54842 -10.50102  -1.21846  -0.91283
 Alpha  occ. eigenvalues --   -0.85776  -0.75653  -0.72786  -0.67077  -0.57795
 Alpha  occ. eigenvalues --   -0.55548
 Alpha virt. eigenvalues --   -0.32851  -0.18094  -0.17066  -0.14183  -0.13671
 Alpha virt. eigenvalues --   -0.13224  -0.10001  -0.07313  -0.07133  -0.07038
 Alpha virt. eigenvalues --   -0.05599  -0.04433  -0.02341  -0.01773  -0.01034

  Beta  occ. eigenvalues --  -10.53825 -10.53523 -10.49764  -1.18822  -0.88348
  Beta  occ. eigenvalues --   -0.83333  -0.71822  -0.66950  -0.64921
  Beta virt. eigenvalues --   -0.45745  -0.40761  -0.26357  -0.16841  -0.16401
  Beta virt. eigenvalues --   -0.13212  -0.13188  -0.11975  -0.09618  -0.06897
  Beta virt. eigenvalues --   -0.06332  -0.06014  -0.04762  -0.03712  -0.01764

 Mulliken charges and spin densities:
               1          2
     1  C   -0.329147   0.191105
     2  C    0.215035   0.653544
     3  C    0.271488   0.952081
     4  H    0.267545   0.111081
     5  H    0.307533  -0.018892
     6  H    0.267545   0.111081
 Sum of Mulliken charges =   1.00000   2.00000

 Dipole moment (field-independent basis, Debye):
    X=             -1.4527    Y=              0.3016    Z=              0.0000  Tot=              1.4837
 Quadrupole moment (field-independent basis, Debye-Ang):
   XX=            -13.3730   YY=            -10.1567   ZZ=            -13.9346
   XY=              1.8424   XZ=              0.0000   YZ=              0.0000

  Exact polarizability:  27.247   0.116  31.516   0.000  -0.000  18.832
 Approx polarizability:  47.168  -1.085  47.657   0.000   0.000  26.762

                      1                      2                      3
                     A"                     A"                     A'
 Frequencies --    583.0323               689.3541               730.5015
 Red. masses --      1.1408                 1.2027                 2.9864
 Frc consts  --      0.2285                 0.3367                 0.9389
 IR Inten    --      0.0677                18.3257                 2.6566

                      4                      5                      6
                     A"                     A'                     A'
 Frequencies --    838.3539               902.5516               988.2449
 Red. masses --      1.3583                 1.4001                 1.3455
 Frc consts  --      0.5625                 0.6720                 0.7742
 IR Inten    --     11.7345                74.6823                73.9402

                      7                      8                      9
                     A'                     A'                     A'
 Frequencies --   1147.6338              1260.5289              1506.1464
 Red. masses --      7.5640                 1.0684                 7.2375
 Frc consts  --      5.8696                 1.0003                 9.6733
 IR Inten    --     11.5832                99.4345                 7.0148

                     10                     11                     12
                     A'                     A"                     A'
 Frequencies --   2888.9232              2915.1597              3229.0977
 Red. masses --      1.0486                 1.0965                 1.1117
 Frc consts  --      5.1562                 5.4903                 6.8297
 IR Inten    --    151.0906                81.5444               118.2726

 - Thermochemistry -
 -------------------
 Temperature   298.150 Kelvin.  Pressure   1.00000 Atm.
 Atom     1 has atomic number  6 and mass  12.00000

 Molecular mass:    39.02348 amu.
 Principal axes and moments of inertia in atomic units:
                           1         2         3
     Eigenvalues --    50.98226  79.04434 118.09324
           X            0.22790   0.97369  -0.00000
           Y            0.97369  -0.22790  -0.00000
           Z            0.00000   0.00000   1.00000
 This molecule is an asymmetric top.
 Rotational symmetry number  1.
 Rotational temperatures (Kelvin)      1.69890     1.09576     0.73344
 Rotational constants (GHZ):          35.39940    22.83201    15.28234
 Zero-point vibrational energy     105747.1 (Joules/Mol)
                                   25.27415 (Kcal/Mol)
 Warning -- explicit consideration of   1 degrees of freedom as
           vibrations may cause significant error
 Vibrational temperatures:    838.85   991.83  1051.03  1206.20  1298.57
          (Kelvin)           1421.86  1651.19  1813.62  2167.01  4156.51
                             4194.26  4645.95

 Zero-point correction=                           0.040277 (Hartree/Particle)
 Thermal correction to Energy=                    0.043696
 Thermal correction to Enthalpy=                  0.044640
 Thermal correction to Gibbs Free Energy=         0.015434
 Sum of electronic and zero-point Energies=           -115.565120
 Sum of electronic and thermal Energies=              -115.561702
 Sum of electronic and thermal Enthalpies=            -115.560757
 Sum of electronic and thermal Free Energies=         -115.589963

                     E (Thermal)             CV                S
                      KCal/Mol        Cal/Mol-Kelvin    Cal/Mol-Kelvin
 Total                   27.419             10.612             61.469
 Electronic               0.000              0.000              2.183
 Translational            0.889              2.981             36.913
 Rotational               0.889              2.981             20.792
 Vibrational             25.642              4.650              1.580
 Vibration     1          0.940              1.068              0.480

 Optimization completed.
    -- Stationary point found.
 Normal termination of Gaussian 09 at Thu Jan 24 15:44:15 2019.
