 Gaussian 09, Revision D.01,
 Gaussian 09:  ES64L-G09RevD.01 24-Apr-2013

 ---------------------------
 #p b3lyp/6-311++g(d,p) freq
 ---------------------------

 ---
 min
 ---
 Symbolic Z-matrix:
 Charge =  1 Multiplicity = 1

                         Standard orientation:
 ---------------------------------------------------------------------
 Center     Atomic      Atomic             Coordinates (Angstroms)
 Number     Number       Type             X           Y           Z
 ---------------------------------------------------------------------
      1          6           0        0.681779   -0.594435    0.000000
      2          6           0       -0.381576   -1.658244   -0.000000
      3          6           0       -0.000000    0.701533   -0.000000
      4          1           0        1.348186   -0.636573    0.882295
      5          1           0        1.348186   -0.636573   -0.882295
      6          1           0        0.183950   -2.606998    0.000000
      7          8           0       -0.585192    1.648378   -0.000000
 ---------------------------------------------------------------------

 SCF Done:  E(RB3LYP) =  -190.920110256     A.U. after   12 cycles

 The electronic state is 1-A'.
 Alpha  occ. eigenvalues --  -19.52577 -10.62305 -10.50102 -10.47298  -1.46544
 Alpha  occ. eigenvalues --   -1.09932  -0.90093  -0.83102  -0.79123  -0.78361
 Alpha  occ. eigenvalues --   -0.75096  -0.70613  -0.65339  -0.47189
 Alpha virt. eigenvalues --   -0.34571  -0.31682  -0.31338  -0.20806  -0.14352
 Alpha virt. eigenvalues --   -0.14051  -0.12801  -0.11176  -0.09027  -0.07624
 Alpha virt. eigenvalues --   -0.06352  -0.05512  -0.04917  -0.04431  -0.02415

 Mulliken charges:
               1
     1  C   -0.172622
     2  C   -0.086949
     3  C    0.427871
     4  H    0.280044
     5  H    0.280044
     6  H    0.212786
     7  O    0.058826
 Sum of Mulliken charges =   1.00000

 Dipole moment (field-independent basis, Debye):
    X=              3.6014    Y=             -0.8383    Z=             -0.0000  Tot=              3.6977
 Quadrupole moment (field-independent basis, Debye-Ang):
   XX=            -20.1500   YY=            -13.7490   ZZ=            -18.5134
   XY=             -3.9631   XZ=             -0.0000   YZ=              0.0000

  Exact polarizability:  29.786  -2.632  43.161   0.000  -0.000  22.480
 Approx polarizability:  43.348  -6.742  63.287   0.000   0.000  33.384

                      1                      2                      3
                     A"                     A'                     A"
 Frequencies --    111.7032               180.8114               351.7376
 Red. masses --      1.2869                 5.7662                 2.3154
 Frc consts  --      0.0095                 0.1111                 0.1688
 IR Inten    --     17.9187                18.0798                 5.8335

                      4                      5                      6
                     A'                     A'                     A"
 Frequencies --    568.0889               690.4107               727.7001
 Red. masses --      6.9877                 4.2788                 1.5192
 Frc consts  --      1.3287                 1.2017                 0.4740
 IR Inten    --     16.3228                 0.9511                25.1415

                      7                      8                      9
                     A'                     A'                     A"
 Frequencies --    888.7808              1078.1243              1179.1000
 Red. masses --      3.8211                 1.3385                 1.1960
 Frc consts  --      1.7784                 0.9167                 0.9797
 IR Inten    --     32.0044                 3.5792                 6.7360

                     10                     11                     12
                     A'                     A'                     A'
 Frequencies --   1254.1185              1317.9492              2374.1490
 Red. masses --      1.1771                 1.2427                12.9671
 Frc consts  --      1.0908                 1.2717                43.0635
 IR Inten    --     57.6410                26.8868               185.5150

                     13                     14                     15
                     A'                     A"                     A'
 Frequencies --   2943.1315              2981.5521              3021.2781
 Red. masses --      1.0594                 1.0972                 1.0849
 Frc consts  --      5.4068                 5.7470                 5.8349
 IR Inten    --     68.3040                52.1496                 1.0249

 - Thermochemistry -
 -------------------
 Temperature   298.150 Kelvin.  Pressure   1.00000 Atm.
 Atom     1 has atomic number  6 and mass  12.00000

 Molecular mass:    55.01839 amu.
 Principal axes and moments of inertia in atomic units:
                           1         2         3
     Eigenvalues --    54.37614 350.91259 394.08221
           X           -0.18013   0.98364   0.00000
           Y            0.98364   0.18013   0.00000
           Z            0.00000   0.00000   1.00000
 This molecule is an asymmetric top.
 Rotational symmetry number  1.
 Rotational temperatures (Kelvin)      1.59286     0.24682     0.21979
 Rotational constants (GHZ):          33.18995     5.14299     4.57961
 Zero-point vibrational energy     117644.6 (Joules/Mol)
                                   28.11773 (Kcal/Mol)
 Warning -- explicit consideration of   4 degrees of freedom as
           vibrations may cause significant error
 Vibrational temperatures:    160.72   260.15   506.07   817.35   993.35
          (Kelvin)           1047.00  1278.76  1551.18  1696.46  1804.39
                             1896.23  3415.87  4234.50  4289.78  4346.94

 Zero-point correction=                           0.044808 (Hartree/Particle)
 Thermal correction to Energy=                    0.049827
 Thermal correction to Enthalpy=                  0.050771
 Thermal correction to Gibbs Free Energy=         0.017698
 Sum of electronic and zero-point Energies=           -190.875302
 Sum of electronic and thermal Energies=              -190.870283
 Sum of electronic and thermal Enthalpies=            -190.869339
 Sum of electronic and thermal Free Energies=         -190.902412

                     E (Thermal)             CV                S
                      KCal/Mol        Cal/Mol-Kelvin    Cal/Mol-Kelvin
 Total                   31.267             15.413             69.608
 Electronic               0.000              0.000              0.000
 Translational            0.889              2.981             37.937
 Rotational               0.889              2.981             23.535
 Vibrational             29.489              9.451              8.136
 Vibration     1          0.607              1.940              3.239
 Vibration     2          0.630              1.866              2.320
 Vibration     3          0.728              1.572              1.158
 Vibration     4          0.924              1.100              0.508

 Normal termination of Gaussian 09 at Thu Jan 24 15:46:59 2019.
