 Gaussian 09, Revision D.01,
 Gaussian 09:  ES64L-G09RevD.01 24-Apr-2013

 ---------------------------
 #p b3lyp/6-311++g(d,p) freq
 ---------------------------

 ---
 min
 ---
 Symbolic Z-matrix:
 Charge =  1 Multiplicity = 1

                         Standard orientation:
 ---------------------------------------------------------------------
 Center     Atomic      Atomic             Coordinates (Angstroms)
 Number     Number       Type             X           Y           Z
 ---------------------------------------------------------------------
      1          6           0        0.000000    0.655777   -0.000000
      2          6           0       -0.727288   -0.520872   -0.000000
      3          6           0        1.130811   -0.077621    0.000000
      4          1           0       -1.821500   -0.513136   -0.000000
      5          1           0       -0.338714    1.685411   -0.000000
      6          1           0       -0.260925   -1.515976    0.000000
 ---------------------------------------------------------------------

 SCF Done:  E(RB3LYP) =  -115.646978065     A.U. after   11 cycles

 The electronic state is 1-A'.
 Alpha  occ. eigenvalues --  -10.57099 -10.54560 -10.49398  -1.17190  -0.93378
 Alpha  occ. eigenvalues --   -0.85074  -0.74978  -0.70396  -0.64051  -0.58500
 Alpha virt. eigenvalues --   -0.38934  -0.35435  -0.26304  -0.16601  -0.15907
 Alpha virt. eigenvalues --   -0.12711  -0.11085  -0.10404  -0.09632  -0.07538
 Alpha virt. eigenvalues --   -0.05241  -0.05152  -0.03864  -0.03366  -0.02851

 Mulliken charges:
               1
     1  C    0.210358
     2  C   -0.239998
     3  C    0.148026
     4  H    0.297779
     5  H    0.304909
     6  H    0.278926
 Sum of Mulliken charges =   1.00000

 Dipole moment (field-independent basis, Debye):
    X=             -2.1513    Y=              0.3454    Z=             -0.0000  Tot=              2.1788
 Quadrupole moment (field-independent basis, Debye-Ang):
   XX=            -12.1163   YY=            -10.2402   ZZ=            -16.5497
   XY=              2.2635   XZ=              0.0000   YZ=              0.0000

  Exact polarizability:  34.801   3.316  27.996   0.001  -0.000  17.032
 Approx polarizability:  65.228  10.548  44.393   0.000  -0.000  25.178

                      1                      2                      3
                     A'                     A"                     A'
 Frequencies --    280.7148               490.2136               760.7074
 Red. masses --      4.3533                 1.3007                 1.2139
 Frc consts  --      0.2021                 0.1842                 0.4139
 IR Inten    --      4.1586                14.4967                43.7232

                      4                      5                      6
                     A"                     A"                     A'
 Frequencies --    952.8869              1068.4239              1085.4137
 Red. masses --      1.1275                 1.3374                 1.3179
 Frc consts  --      0.6032                 0.8995                 0.9148
 IR Inten    --     31.4838                34.8640                 2.3102

                      7                      8                      9
                     A'                     A'                     A'
 Frequencies --   1305.3289              1449.9973              1542.5153
 Red. masses --      2.1540                 1.6095                 4.9560
 Frc consts  --      2.1624                 1.9937                 6.9477
 IR Inten    --     71.9057                35.1163                99.1937

                     10                     11                     12
                     A'                     A'                     A'
 Frequencies --   3032.7712              3130.0077              3217.7408
 Red. masses --      1.0577                 1.1109                 1.1101
 Frc consts  --      5.7316                 6.4125                 6.7721
 IR Inten    --    105.9761                80.1068               114.6921

 - Thermochemistry -
 -------------------
 Temperature   298.150 Kelvin.  Pressure   1.00000 Atm.
 Atom     1 has atomic number  6 and mass  12.00000

 Molecular mass:    39.02348 amu.
 Principal axes and moments of inertia in atomic units:
                           1         2         3
     Eigenvalues --    44.64491  94.63475 139.27966
           X            0.94762  -0.31940  -0.00000
           Y            0.31940   0.94762   0.00000
           Z            0.00000  -0.00000   1.00000
 This molecule is an asymmetric top.
 Rotational symmetry number  1.
 Rotational temperatures (Kelvin)      1.94006     0.91524     0.62187
 Rotational constants (GHZ):          40.42434    19.07060    12.95768
 Zero-point vibrational energy     109558.3 (Joules/Mol)
                                   26.18507 (Kcal/Mol)
 Warning -- explicit consideration of   2 degrees of freedom as
           vibrations may cause significant error
 Vibrational temperatures:    403.89   705.31  1094.49  1370.99  1537.22
          (Kelvin)           1561.67  1878.07  2086.22  2219.33  4363.48
                             4503.38  4629.61

 Zero-point correction=                           0.041729 (Hartree/Particle)
 Thermal correction to Energy=                    0.045448
 Thermal correction to Enthalpy=                  0.046392
 Thermal correction to Gibbs Free Energy=         0.017565
 Sum of electronic and zero-point Energies=           -115.605250
 Sum of electronic and thermal Energies=              -115.601530
 Sum of electronic and thermal Enthalpies=            -115.600586
 Sum of electronic and thermal Free Energies=         -115.629413

                     E (Thermal)             CV                S
                      KCal/Mol        Cal/Mol-Kelvin    Cal/Mol-Kelvin
 Total                   28.519             10.992             60.672
 Electronic               0.000              0.000              0.000
 Translational            0.889              2.981             36.913
 Rotational               0.889              2.981             21.003
 Vibrational             26.741              5.031              2.755
 Vibration     1          0.680              1.709              1.529
 Vibration     2          0.846              1.272              0.683

 Optimization completed.
    -- Stationary point found.
 Normal termination of Gaussian 09 at Thu Jan 24 15:43:53 2019.
