 Gaussian 09, Revision D.01,
 Gaussian 09:  ES64L-G09RevD.01 24-Apr-2013

 ---------------------------
 #p b3lyp/6-311++g(d,p) freq
 ---------------------------

 ---
 min
 ---
 Symbolic Z-matrix:
 Charge =  1 Multiplicity = 3

                         Standard orientation:
 ---------------------------------------------------------------------
 Center     Atomic      Atomic             Coordinates (Angstroms)
 Number     Number       Type             X           Y           Z
 ---------------------------------------------------------------------
      1          6           0        1.124452   -0.331312    0.000000
      2          6           0       -0.000000    0.440190    0.000000
      3          6           0       -1.226325   -0.144179   -0.000000
      4          1           0        2.204704   -0.193656    0.000000
      5          1           0        0.089557    1.535844    0.000000
      6          1           0       -1.683029   -1.130380   -0.000000
 ---------------------------------------------------------------------

 SCF Done:  E(UB3LYP) =  -115.609230360     A.U. after   14 cycles

 The electronic state is 3-A'.
 Alpha  occ. eigenvalues --  -10.53918 -10.53666 -10.47500  -1.10688  -0.95948
 Alpha  occ. eigenvalues --   -0.83317  -0.76333  -0.73396  -0.60774  -0.54303
 Alpha  occ. eigenvalues --   -0.53299
 Alpha virt. eigenvalues --   -0.41330  -0.23121  -0.16005  -0.14943  -0.12944
 Alpha virt. eigenvalues --   -0.10954  -0.10150  -0.08399  -0.07094  -0.05278
 Alpha virt. eigenvalues --   -0.04430  -0.04149  -0.03315  -0.02434  -0.01150

  Beta  occ. eigenvalues --  -10.52143 -10.51925 -10.47593  -1.08324  -0.91791
  Beta  occ. eigenvalues --   -0.80877  -0.74015  -0.70999  -0.59922
  Beta virt. eigenvalues --   -0.38536  -0.37197  -0.34407  -0.22084  -0.15576
  Beta virt. eigenvalues --   -0.14243  -0.12403  -0.10306  -0.09989  -0.07423
  Beta virt. eigenvalues --   -0.06273  -0.05077  -0.03810  -0.03522  -0.03224

 Mulliken charges and spin densities:
               1          2
     1  C    0.067718   0.998885
     2  C   -0.100850  -0.122629
     3  C    0.219996   0.978622
     4  H    0.270458   0.025165
     5  H    0.276082   0.104019
     6  H    0.266596   0.015938
 Sum of Mulliken charges =   1.00000   2.00000

 Dipole moment (field-independent basis, Debye):
    X=              0.5543    Y=             -0.4032    Z=             -0.0000  Tot=              0.6855
 Quadrupole moment (field-independent basis, Debye-Ang):
   XX=             -5.3710   YY=            -12.9343   ZZ=            -16.4451
   XY=              1.9682   XZ=              0.0000   YZ=             -0.0000

  Exact polarizability:  44.273   0.018  24.565  -0.000  -0.000  16.707
 Approx polarizability:  79.527  -2.866  33.585   0.000   0.000  22.587

                      1                      2                      3
                     A"                     A'                     A"
 Frequencies --    139.0638               427.3468               736.8532
 Red. masses --      1.3970                 2.0772                 1.1928
 Frc consts  --      0.0159                 0.2235                 0.3816
 IR Inten    --      9.9720                12.7654                61.0959

                      4                      5                      6
                     A'                     A'                     A"
 Frequencies --    765.3836               866.3771               910.0929
 Red. masses --      1.1823                 1.6221                 1.3736
 Frc consts  --      0.4081                 0.7174                 0.6703
 IR Inten    --     18.7549                35.0063                19.1813

                      7                      8                      9
                     A'                     A'                     A'
 Frequencies --   1227.2676              1289.8043              1535.7681
 Red. masses --      1.1473                 6.3787                 7.2107
 Frc consts  --      1.0181                 6.2522                10.0202
 IR Inten    --      1.4427                 1.2532               315.5429

                     10                     11                     12
                     A'                     A'                     A'
 Frequencies --   3011.7029              3183.7972              3208.1938
 Red. masses --      1.0834                 1.1019                 1.1034
 Frc consts  --      5.7898                 6.5811                 6.6909
 IR Inten    --     49.3353                42.9526                56.9118

 - Thermochemistry -
 -------------------
 Temperature   298.150 Kelvin.  Pressure   1.00000 Atm.
 Atom     1 has atomic number  6 and mass  12.00000

 Molecular mass:    39.02348 amu.
 Principal axes and moments of inertia in atomic units:
                           1         2         3
     Eigenvalues --    27.06068 146.36776 173.42844
           X            0.99976   0.02175   0.00000
           Y           -0.02175   0.99976   0.00000
           Z            0.00000  -0.00000   1.00000
 This molecule is an asymmetric top.
 Rotational symmetry number  1.
 Rotational temperatures (Kelvin)      3.20073     0.59175     0.49942
 Rotational constants (GHZ):          66.69239    12.33018    10.40626
 Zero-point vibrational energy     103486.9 (Joules/Mol)
                                   24.73395 (Kcal/Mol)
 Warning -- explicit consideration of   2 degrees of freedom as
           vibrations may cause significant error
 Vibrational temperatures:    200.08   614.86  1060.17  1101.21  1246.52
          (Kelvin)           1309.42  1765.76  1855.74  2209.62  4333.16
                             4580.77  4615.87

 Zero-point correction=                           0.039416 (Hartree/Particle)
 Thermal correction to Energy=                    0.043527
 Thermal correction to Enthalpy=                  0.044471
 Thermal correction to Gibbs Free Energy=         0.013678
 Sum of electronic and zero-point Energies=           -115.569814
 Sum of electronic and thermal Energies=              -115.565704
 Sum of electronic and thermal Enthalpies=            -115.564759
 Sum of electronic and thermal Free Energies=         -115.595552

                     E (Thermal)             CV                S
                      KCal/Mol        Cal/Mol-Kelvin    Cal/Mol-Kelvin
 Total                   27.313             12.198             64.809
 Electronic               0.000              0.000              2.183
 Translational            0.889              2.981             36.913
 Rotational               0.889              2.981             21.157
 Vibrational             25.536              6.236              4.556
 Vibration     1          0.615              1.914              2.817
 Vibration     2          0.789              1.411              0.867

 Optimization completed.
    -- Stationary point found.
 Normal termination of Gaussian 09 at Thu Jan 24 15:44:43 2019.
