 Gaussian 09, Revision D.01,
 Gaussian 09:  ES64L-G09RevD.01 24-Apr-2013

 ---------------------------
 #p b3lyp/6-311++g(d,p) freq
 ---------------------------

 ---
 min
 ---
 Symbolic Z-matrix:
 Charge =  1 Multiplicity = 3

                         Standard orientation:
 ---------------------------------------------------------------------
 Center     Atomic      Atomic             Coordinates (Angstroms)
 Number     Number       Type             X           Y           Z
 ---------------------------------------------------------------------
      1          6           0       -1.148041   -0.106328   -0.000322
      2          6           0        0.191206    0.216061   -0.000067
      3          6           0        1.416185   -0.248431   -0.000440
      4          1           0       -1.884899    0.688752   -0.002394
      5          1           0        0.588915    1.287599    0.003826
      6          1           0       -1.460115   -1.144159    0.003542
 ---------------------------------------------------------------------

 SCF Done:  E(UB3LYP) =  -115.565787950     A.U. after   18 cycles

 The electronic state is 3-A.
 Alpha  occ. eigenvalues --  -10.61702 -10.50969 -10.46494  -1.13098  -0.98861
 Alpha  occ. eigenvalues --   -0.79414  -0.74569  -0.70654  -0.65021  -0.64587
 Alpha  occ. eigenvalues --   -0.49940
 Alpha virt. eigenvalues --   -0.40803  -0.23768  -0.18350  -0.14230  -0.11923
 Alpha virt. eigenvalues --   -0.10278  -0.09063  -0.08110  -0.07629  -0.06444
 Alpha virt. eigenvalues --   -0.05410  -0.03027  -0.02028  -0.01993  -0.00156

  Beta  occ. eigenvalues --  -10.58890 -10.50962 -10.45454  -1.10664  -0.95200
  Beta  occ. eigenvalues --   -0.77422  -0.72850  -0.65205  -0.60310
  Beta virt. eigenvalues --   -0.48791  -0.36560  -0.35951  -0.19316  -0.18113
  Beta virt. eigenvalues --   -0.13909  -0.11154  -0.09478  -0.08615  -0.07903
  Beta virt. eigenvalues --   -0.07409  -0.06212  -0.04571  -0.02619  -0.01841

 Mulliken charges and spin densities:
               1          2
     1  C   -0.247870   0.774836
     2  C    0.000876  -0.010000
     3  C    0.522513   1.285235
     4  H    0.214403  -0.021005
     5  H    0.272249   0.005682
     6  H    0.237829  -0.034748
 Sum of Mulliken charges =   1.00000   2.00000

 Dipole moment (field-independent basis, Debye):
    X=              1.1614    Y=              0.5789    Z=              0.0011  Tot=              1.2977
 Quadrupole moment (field-independent basis, Debye-Ang):
   XX=             -5.8697   YY=            -11.5154   ZZ=            -17.9523
   XY=              0.3329   XZ=             -0.0053   YZ=              0.0006

  Exact polarizability:  46.144  -2.031  23.542   0.069  -0.017  18.622
 Approx polarizability:  81.997  -9.045  36.261   0.049  -0.010  21.713

                      1                      2                      3
                      A                      A                      A
 Frequencies --    148.6640               240.6286               492.4413
 Red. masses --      3.9344                 1.0570                 2.6605
 Frc consts  --      0.0512                 0.0361                 0.3801
 IR Inten    --     13.6294                 3.9322                21.5967

                      4                      5                      6
                      A                      A                      A
 Frequencies --    783.9867               799.7509              1052.4662
 Red. masses --      1.2747                 1.0948                 1.9850
 Frc consts  --      0.4616                 0.4126                 1.2955
 IR Inten    --     58.8129                 5.1869                 3.8586

                      7                      8                      9
                      A                      A                      A
 Frequencies --   1122.8778              1419.8437              1492.2688
 Red. masses --      2.1224                 1.3219                 4.5991
 Frc consts  --      1.5767                 1.5701                 6.0342
 IR Inten    --      0.6431                29.2119                10.3016

                     10                     11                     12
                      A                      A                      A
 Frequencies --   2701.5051              3138.2067              3258.4369
 Red. masses --      1.0728                 1.0496                 1.1218
 Frc consts  --      4.6131                 6.0902                 7.0175
 IR Inten    --    144.4989                73.7724                41.3677

 - Thermochemistry -
 -------------------
 Temperature   298.150 Kelvin.  Pressure   1.00000 Atm.
 Atom     1 has atomic number  6 and mass  12.00000

 Molecular mass:    39.02348 amu.
 Principal axes and moments of inertia in atomic units:
                           1         2         3
     Eigenvalues --    17.35531 165.11263 182.46768
           X            0.99967   0.02572   0.00002
           Y           -0.02572   0.99967  -0.00013
           Z           -0.00003   0.00013   1.00000
 This molecule is an asymmetric top.
 Rotational symmetry number  1.
 Rotational temperatures (Kelvin)      4.99062     0.52457     0.47468
 Rotational constants (GHZ):         103.98782    10.93036     9.89074
 Zero-point vibrational energy      99595.6 (Joules/Mol)
                                   23.80391 (Kcal/Mol)
 Warning -- explicit consideration of   3 degrees of freedom as
           vibrations may cause significant error
 Vibrational temperatures:    213.89   346.21   708.51  1127.98  1150.66
          (Kelvin)           1514.26  1615.57  2042.84  2147.04  3886.86
                             4515.17  4688.16

 Zero-point correction=                           0.037934 (Hartree/Particle)
 Thermal correction to Energy=                    0.042368
 Thermal correction to Enthalpy=                  0.043312
 Thermal correction to Gibbs Free Energy=         0.012079
 Sum of electronic and zero-point Energies=           -115.527854
 Sum of electronic and thermal Energies=              -115.523420
 Sum of electronic and thermal Enthalpies=            -115.522476
 Sum of electronic and thermal Free Energies=         -115.553709

                     E (Thermal)             CV                S
                      KCal/Mol        Cal/Mol-Kelvin    Cal/Mol-Kelvin
 Total                   26.586             13.000             65.736
 Electronic               0.000              0.000              2.183
 Translational            0.889              2.981             36.913
 Rotational               0.889              2.981             20.886
 Vibrational             24.809              7.039              5.754
 Vibration     1          0.618              1.904              2.689
 Vibration     2          0.658              1.778              1.798
 Vibration     3          0.848              1.267              0.677

 Normal termination of Gaussian 09 at Thu Jan 24 15:44:41 2019.
