 Gaussian 09, Revision D.01,
 Gaussian 09:  ES64L-G09RevD.01 24-Apr-2013

 ---------------------------
 #p b3lyp/6-311++g(d,p) freq
 ---------------------------

 ---
 min
 ---
 Symbolic Z-matrix:
 Charge =  1 Multiplicity = 1

                         Standard orientation:
 ---------------------------------------------------------------------
 Center     Atomic      Atomic             Coordinates (Angstroms)
 Number     Number       Type             X           Y           Z
 ---------------------------------------------------------------------
      1          6           0        0.000000    0.786641    0.000000
      2          6           0        0.681251   -0.393320   -0.000000
      3          6           0       -0.681251   -0.393320    0.000000
      4          1           0        0.000000    1.868789    0.000000
      5          1           0       -1.618419   -0.934394    0.000000
      6          1           0        1.618419   -0.934394   -0.000000
 ---------------------------------------------------------------------

 SCF Done:  E(RB3LYP) =  -115.761101065     A.U. after    8 cycles

 The electronic state is 1-A1'.
 Alpha  occ. eigenvalues --  -10.51267 -10.51165 -10.51165  -1.22730  -0.86147
 Alpha  occ. eigenvalues --   -0.86147  -0.80457  -0.66697  -0.64293  -0.64293
 Alpha virt. eigenvalues --   -0.29843  -0.29843  -0.15134  -0.14980  -0.14980
 Alpha virt. eigenvalues --   -0.13624  -0.11173  -0.09784  -0.08278  -0.08278
 Alpha virt. eigenvalues --   -0.04275  -0.04275  -0.03801  -0.03801  -0.01558

 Mulliken charges:
               1
     1  C    0.059437
     2  C    0.059437
     3  C    0.059437
     4  H    0.273896
     5  H    0.273896
     6  H    0.273896
 Sum of Mulliken charges =   1.00000

 Dipole moment (field-independent basis, Debye):
    X=             -0.0000    Y=             -0.0000    Z=              0.0000  Tot=              0.0000
 Quadrupole moment (field-independent basis, Debye-Ang):
   XX=             -9.7060   YY=             -9.7060   ZZ=            -15.5727
   XY=              0.0000   XZ=              0.0000   YZ=             -0.0000

  Exact polarizability:  26.611  -0.000  26.611   0.000  -0.000  13.993
 Approx polarizability:  40.471   0.000  40.471  -0.000   0.000  20.210

                      1                      2                      3
                     A2"                    E'                     E'
 Frequencies --    775.2168               935.1820               935.1820
 Red. masses --      1.0848                 1.0810                 1.0810
 Frc consts  --      0.3841                 0.5570                 0.5570
 IR Inten    --     73.7855                32.8134                32.8134

                      4                      5                      6
                     E"                     E"                     A2'
 Frequencies --   1018.8679              1018.8679              1038.9384
 Red. masses --      1.4287                 1.4287                 1.4287
 Frc consts  --      0.8738                 0.8738                 0.9086
 IR Inten    --      0.0000                 0.0000                 0.0000

                      7                      8                      9
                     E'                     E'                     A1'
 Frequencies --   1308.8171              1308.8171              1663.8732
 Red. masses --      6.1253                 6.1253                 4.5780
 Frc consts  --      6.1821                 6.1821                 7.4674
 IR Inten    --     50.9090                50.9128                 0.0000

                     10                     11                     12
                     E'                     E'                     A1'
 Frequencies --   3237.8754              3237.8754              3288.2066
 Red. masses --      1.1000                 1.1000                 1.1667
 Frc consts  --      6.7946                 6.7946                 7.4322
 IR Inten    --     93.9369                93.9370                 0.0000

 - Thermochemistry -
 -------------------
 Temperature   298.150 Kelvin.  Pressure   1.00000 Atm.
 Atom     1 has atomic number  6 and mass  12.00000

 Molecular mass:    39.02348 amu.
 Principal axes and moments of inertia in atomic units:
                           1         2         3
     Eigenvalues --    58.62977  58.62977 117.25955
           X            0.96077   0.27735   0.00000
           Y           -0.27735   0.96077   0.00000
           Z            0.00000   0.00000   1.00000
 This molecule is an oblate symmetric top.
 Rotational symmetry number  6.
 Rotational temperatures (Kelvin)      1.47730     1.47730     0.73865
 Rotational constants (GHZ):          30.78199    30.78199    15.39100
 Zero-point vibrational energy     118237.2 (Joules/Mol)
                                   28.25937 (Kcal/Mol)
 Vibrational temperatures:   1115.36  1345.52  1345.52  1465.92  1465.92
          (Kelvin)           1494.80  1883.09  1883.09  2393.94  4658.57
                             4658.57  4730.99

 Zero-point correction=                           0.045034 (Hartree/Particle)
 Thermal correction to Energy=                    0.048171
 Thermal correction to Enthalpy=                  0.049116
 Thermal correction to Gibbs Free Energy=         0.023096
 Sum of electronic and zero-point Energies=           -115.716067
 Sum of electronic and thermal Energies=              -115.712930
 Sum of electronic and thermal Enthalpies=            -115.711986
 Sum of electronic and thermal Free Energies=         -115.738005

                     E (Thermal)             CV                S
                      KCal/Mol        Cal/Mol-Kelvin    Cal/Mol-Kelvin
 Total                   30.228              8.942             54.763
 Electronic               0.000              0.000              0.000
 Translational            0.889              2.981             36.913
 Rotational               0.889              2.981             17.067
 Vibrational             28.451              2.980              0.783

 Optimization completed.
    -- Stationary point found.
 Normal termination of Gaussian 09 at Thu Jan 24 15:43:36 2019.
