 Gaussian 09, Revision D.01,
 Gaussian 09:  ES64L-G09RevD.01 24-Apr-2013

 ---------------------------
 #p b3lyp/6-311++g(d,p) freq
 ---------------------------

 ---
 min
 ---
 Symbolic Z-matrix:
 Charge =  1 Multiplicity = 1

                         Standard orientation:
 ---------------------------------------------------------------------
 Center     Atomic      Atomic             Coordinates (Angstroms)
 Number     Number       Type             X           Y           Z
 ---------------------------------------------------------------------
      1          6           0       -0.430211    1.861498    0.000000
      2          6           0        0.000000    0.730034    0.000000
      3          6           0        0.569235   -0.530314    0.000000
      4          1           0       -0.821322    2.859742    0.000000
      5          1           0       -1.050735   -1.533796   -0.000000
      6          1           0        1.651974   -0.656771    0.000000
      7          8           0       -0.076758   -1.629561   -0.000000
 ---------------------------------------------------------------------

 SCF Done:  E(RB3LYP) =  -191.010971448     A.U. after   13 cycles

 The electronic state is 1-A'.
 Alpha  occ. eigenvalues --  -19.47190 -10.57265 -10.46505 -10.43481  -1.39267
 Alpha  occ. eigenvalues --   -1.05099  -0.97227  -0.88706  -0.77742  -0.76857
 Alpha  occ. eigenvalues --   -0.70695  -0.65526  -0.56269  -0.54881
 Alpha virt. eigenvalues --   -0.36198  -0.24010  -0.18056  -0.15267  -0.14841
 Alpha virt. eigenvalues --   -0.12369  -0.10509  -0.09907  -0.08198  -0.06976
 Alpha virt. eigenvalues --   -0.05738  -0.04993  -0.03561  -0.02321  -0.00126

 Mulliken charges:
               1
     1  C   -1.649083
     2  C    1.922939
     3  C   -0.110134
     4  H    0.231189
     5  H    0.315002
     6  H    0.255878
     7  O    0.034209
 Sum of Mulliken charges =   1.00000

 Dipole moment (field-independent basis, Debye):
    X=             -0.8581    Y=              1.2199    Z=             -0.0000  Tot=              1.4915
 Quadrupole moment (field-independent basis, Debye-Ang):
   XX=            -15.0792   YY=             -7.2178   ZZ=            -21.4980
   XY=             -1.7797   XZ=             -0.0000   YZ=              0.0000

  Exact polarizability:  26.240  -7.214  56.248   0.000  -0.000  16.792
 Approx polarizability:  38.461 -19.047 110.261   0.000   0.000  22.255

                      1                      2                      3
                     A'                     A"                     A'
 Frequencies --    207.0811               255.5939               606.4730
 Red. masses --      4.0341                 3.1806                 4.9254
 Frc consts  --      0.1019                 0.1224                 1.0674
 IR Inten    --      1.4605                 3.0944                33.4464

                      4                      5                      6
                     A'                     A"                     A"
 Frequencies --    742.8475               784.1866               849.0556
 Red. masses --      1.2460                 1.5676                 1.3144
 Frc consts  --      0.4051                 0.5680                 0.5583
 IR Inten    --     39.0586               152.6629                18.6938

                      7                      8                      9
                     A'                     A"                     A'
 Frequencies --   1023.4779              1055.4481              1243.1054
 Red. masses --      3.6248                 1.2934                 1.2093
 Frc consts  --      2.2371                 0.8489                 1.1011
 IR Inten    --     36.3032                31.8423               201.9606

                     10                     11                     12
                     A'                     A'                     A'
 Frequencies --   1413.5386              1567.1426              2195.4218
 Red. masses --      1.4436                 4.9898                 5.8764
 Frc consts  --      1.6994                 7.2203                16.6878
 IR Inten    --      6.4551               322.8593               467.8885

                     13                     14                     15
                     A'                     A'                     A'
 Frequencies --   3158.5247              3398.0271              3639.4146
 Red. masses --      1.0943                 1.1699                 1.0668
 Frc consts  --      6.4324                 7.9589                 8.3251
 IR Inten    --     17.4688                89.9282               219.3975

 - Thermochemistry -
 -------------------
 Temperature   298.150 Kelvin.  Pressure   1.00000 Atm.
 Atom     1 has atomic number  6 and mass  12.00000

 Molecular mass:    55.01839 amu.
 Principal axes and moments of inertia in atomic units:
                           1         2         3
     Eigenvalues --    32.01645 380.84104 412.85749
           X           -0.13499   0.99085   0.00000
           Y            0.99085   0.13499   0.00000
           Z           -0.00000  -0.00000   1.00000
 This molecule is an asymmetric top.
 Rotational symmetry number  1.
 Rotational temperatures (Kelvin)      2.70529     0.22743     0.20979
 Rotational constants (GHZ):          56.36918     4.73883     4.37134
 Zero-point vibrational energy     132422.7 (Joules/Mol)
                                   31.64977 (Kcal/Mol)
 Warning -- explicit consideration of   3 degrees of freedom as
           vibrations may cause significant error
 Vibrational temperatures:    297.94   367.74   872.58  1068.79  1128.27
          (Kelvin)           1221.60  1472.55  1518.55  1788.55  2033.76
                             2254.77  3158.72  4544.41  4889.00  5236.30

 Zero-point correction=                           0.050437 (Hartree/Particle)
 Thermal correction to Energy=                    0.054788
 Thermal correction to Enthalpy=                  0.055732
 Thermal correction to Gibbs Free Energy=         0.024305
 Sum of electronic and zero-point Energies=           -190.960534
 Sum of electronic and thermal Energies=              -190.956183
 Sum of electronic and thermal Enthalpies=            -190.955239
 Sum of electronic and thermal Free Energies=         -190.986666

                     E (Thermal)             CV                S
                      KCal/Mol        Cal/Mol-Kelvin    Cal/Mol-Kelvin
 Total                   34.380             13.580             66.144
 Electronic               0.000              0.000              0.000
 Translational            0.889              2.981             37.937
 Rotational               0.889              2.981             23.136
 Vibrational             32.603              7.618              5.071
 Vibration     1          0.641              1.830              2.069
 Vibration     2          0.666              1.753              1.692
 Vibration     3          0.965              1.018              0.439

 Optimization completed.
    -- Stationary point found.
 Normal termination of Gaussian 09 at Thu Jan 24 15:47:28 2019.
