 Gaussian 09, Revision D.01,
 Gaussian 09:  ES64L-G09RevD.01 24-Apr-2013

 ---------------------------
 #p b3lyp/6-311++g(d,p) freq
 ---------------------------

 ---
 min
 ---
 Symbolic Z-matrix:
 Charge =  0 Multiplicity = 2

                         Standard orientation:
 ---------------------------------------------------------------------
 Center     Atomic      Atomic             Coordinates (Angstroms)
 Number     Number       Type             X           Y           Z
 ---------------------------------------------------------------------
      1          6           0       -0.814600   -0.818051   -0.000000
      2          6           0        1.266310    0.706544    0.000000
      3          6           0       -0.000000    0.310985   -0.000000
      4          1           0       -0.373564   -1.805016   -0.000000
      5          1           0       -0.445987    1.336082   -0.000000
      6          1           0       -1.890706   -0.727933   -0.000000
 ---------------------------------------------------------------------

 SCF Done:  E(UB3LYP) =  -115.962581283     A.U. after   16 cycles

 The electronic state is 2-A".
 Alpha  occ. eigenvalues --  -10.24650 -10.21469 -10.20343  -0.83389  -0.71486
 Alpha  occ. eigenvalues --   -0.53236  -0.49044  -0.42105  -0.35971  -0.31207
 Alpha  occ. eigenvalues --   -0.22744
 Alpha virt. eigenvalues --   -0.10640  -0.00517   0.01085   0.02043   0.02892
 Alpha virt. eigenvalues --    0.06259   0.06782   0.07209   0.09500   0.09754
 Alpha virt. eigenvalues --    0.11442   0.12609   0.12841   0.13319   0.13870

  Beta  occ. eigenvalues --  -10.23902 -10.20632 -10.20431  -0.82452  -0.69008
  Beta  occ. eigenvalues --   -0.52578  -0.48465  -0.41491  -0.32888  -0.30060
  Beta virt. eigenvalues --   -0.10833  -0.09746  -0.00457   0.01131   0.02916
  Beta virt. eigenvalues --    0.03299   0.06845   0.07222   0.07953   0.09958
  Beta virt. eigenvalues --    0.10326   0.11451   0.12689   0.12848   0.13994

 Mulliken charges and spin densities:
               1          2
     1  C   -0.404702   0.809762
     2  C   -0.147765   0.491095
     3  C    0.097621  -0.215704
     4  H    0.152586  -0.040958
     5  H    0.172575  -0.004123
     6  H    0.129684  -0.040071
 Sum of Mulliken charges =  -0.00000   1.00000

 Dipole moment (field-independent basis, Debye):
    X=             -2.4337    Y=             -0.7400    Z=             -0.0000  Tot=              2.5437
 Quadrupole moment (field-independent basis, Debye-Ang):
   XX=            -21.6203   YY=            -17.1214   ZZ=            -21.2320
   XY=             -2.8984   XZ=             -0.0000   YZ=              0.0000

  Exact polarizability:  45.022  11.523  38.806   0.002   0.000  25.943
 Approx polarizability:  68.841  16.873  54.649   0.000   0.000  32.649

                      1                      2                      3
                     A'                     A"                     A"
 Frequencies --    149.6954               451.4113               683.5401
 Red. masses --      3.8660                 1.7476                 1.2162
 Frc consts  --      0.0510                 0.2098                 0.3348
 IR Inten    --     15.4042                 0.6154                71.6373

                      4                      5                      6
                     A"                     A'                     A'
 Frequencies --    720.1377               830.4169              1044.2747
 Red. masses --      1.3382                 1.0957                 2.4584
 Frc consts  --      0.4089                 0.4452                 1.5795
 IR Inten    --      1.8272                 0.5481                 1.1849

                      7                      8                      9
                     A'                     A'                     A'
 Frequencies --   1150.8625              1473.5153              1558.0049
 Red. masses --      1.8450                 1.1824                 6.8578
 Frc consts  --      1.4397                 1.5126                 9.8079
 IR Inten    --      0.8636                 2.7353                50.7492

                     10                     11                     12
                     A'                     A'                     A'
 Frequencies --   2889.6870              3166.8898              3272.0204
 Red. masses --      1.0749                 1.0512                 1.1198
 Frc consts  --      5.2881                 6.2117                 7.0633
 IR Inten    --     29.3520                 1.1763                 1.3072

 - Thermochemistry -
 -------------------
 Temperature   298.150 Kelvin.  Pressure   1.00000 Atm.
 Atom     1 has atomic number  6 and mass  12.00000

 Molecular mass:    39.02348 amu.
 Principal axes and moments of inertia in atomic units:
                           1         2         3
     Eigenvalues --    18.24465 166.47213 184.71678
           X            0.78923  -0.61409  -0.00000
           Y            0.61409   0.78923   0.00000
           Z            0.00000  -0.00000   1.00000
 This molecule is an asymmetric top.
 Rotational symmetry number  1.
 Rotational temperatures (Kelvin)      4.74735     0.52029     0.46890
 Rotational constants (GHZ):          98.91893    10.84110     9.77032
 Zero-point vibrational energy     104018.0 (Joules/Mol)
                                   24.86090 (Kcal/Mol)
 Warning -- explicit consideration of   2 degrees of freedom as
           vibrations may cause significant error
 Vibrational temperatures:    215.38   649.48   983.46  1036.12  1194.78
          (Kelvin)           1502.48  1655.83  2120.06  2241.62  4157.61
                             4556.44  4707.70

 Zero-point correction=                           0.039618 (Hartree/Particle)
 Thermal correction to Energy=                    0.043713
 Thermal correction to Enthalpy=                  0.044657
 Thermal correction to Gibbs Free Energy=         0.014411
 Sum of electronic and zero-point Energies=           -115.922963
 Sum of electronic and thermal Energies=              -115.918869
 Sum of electronic and thermal Enthalpies=            -115.917925
 Sum of electronic and thermal Free Energies=         -115.948171

                     E (Thermal)             CV                S
                      KCal/Mol        Cal/Mol-Kelvin    Cal/Mol-Kelvin
 Total                   27.430             12.191             63.658
 Electronic               0.000              0.000              1.377
 Translational            0.889              2.981             36.913
 Rotational               0.889              2.981             20.956
 Vibrational             25.653              6.229              4.412
 Vibration     1          0.618              1.903              2.676
 Vibration     2          0.810              1.358              0.792

 Optimization completed.
    -- Stationary point found.
 Normal termination of Gaussian 09 at Sun Mar  4 21:07:44 2018.
