 Gaussian 09, Revision D.01,
 Gaussian 09:  ES64L-G09RevD.01 24-Apr-2013

 ---------------------------
 #p b3lyp/6-311++g(d,p) freq
 ---------------------------

 ---
 min
 ---
 Symbolic Z-matrix:
 Charge =  0 Multiplicity = 4

                         Standard orientation:
 ---------------------------------------------------------------------
 Center     Atomic      Atomic             Coordinates (Angstroms)
 Number     Number       Type             X           Y           Z
 ---------------------------------------------------------------------
      1          6           0        0.741546   -0.233408    0.015504
      2          6           0       -0.807967   -0.352092   -0.189426
      3          6           0       -0.117613    0.927014    0.089242
      4          1           0        1.140137   -0.777565    0.875265
      5          1           0       -1.401979   -0.942652    0.513226
      6          1           0        1.366051   -0.328865   -0.880417
 ---------------------------------------------------------------------

 SCF Done:  E(UB3LYP) =  -115.863258856     A.U. after   14 cycles

 The electronic state is 4-A.
 Alpha  occ. eigenvalues --  -10.23904 -10.22317 -10.22092  -0.89301  -0.63130
 Alpha  occ. eigenvalues --   -0.57609  -0.48479  -0.43188  -0.37035  -0.30681
 Alpha  occ. eigenvalues --   -0.27213  -0.18653
 Alpha virt. eigenvalues --   -0.00533   0.01027   0.02502   0.03775   0.06845
 Alpha virt. eigenvalues --    0.07478   0.08312   0.09224   0.09915   0.10108
 Alpha virt. eigenvalues --    0.12879   0.12952   0.14177   0.15331   0.17036

  Beta  occ. eigenvalues --  -10.22098 -10.21897 -10.19591  -0.85721  -0.60274
  Beta  occ. eigenvalues --   -0.53475  -0.44951  -0.37226  -0.33591
  Beta virt. eigenvalues --   -0.14363  -0.12527  -0.01687  -0.00225   0.01336
  Beta virt. eigenvalues --    0.02798   0.04250   0.07300   0.07742   0.09265
  Beta virt. eigenvalues --    0.09933   0.11541   0.11856   0.13322   0.13383

 Mulliken charges and spin densities:
               1          2
     1  C   -0.313155   0.115675
     2  C   -0.075293   1.089439
     3  C   -0.039692   1.641042
     4  H    0.139902   0.052824
     5  H    0.130963   0.019177
     6  H    0.157274   0.081842
 Sum of Mulliken charges =  -0.00000   3.00000

 Dipole moment (field-independent basis, Debye):
    X=              0.8996    Y=             -1.5606    Z=              0.3869  Tot=              1.8424
 Quadrupole moment (field-independent basis, Debye-Ang):
   XX=            -17.9427   YY=            -20.4050   ZZ=            -18.9370
   XY=              0.1411   XZ=             -1.1861   YZ=             -1.0241

  Exact polarizability:  36.513   0.110  37.397  -0.342  -0.052  27.719
 Approx polarizability:  49.347  -0.357  54.152  -0.140   0.723  35.346

                      1                      2                      3
                      A                      A                      A
 Frequencies --    711.3536               732.4577               778.5266
 Red. masses --      4.4222                 1.1374                 1.2734
 Frc consts  --      1.3184                 0.3595                 0.4547
 IR Inten    --      4.3053                19.3065                 4.1197

                      4                      5                      6
                      A                      A                      A
 Frequencies --    974.8065               985.9336              1000.8541
 Red. masses --      1.2794                 1.5828                 1.7206
 Frc consts  --      0.7163                 0.9065                 1.0155
 IR Inten    --     25.5881                22.3641                16.3677

                      7                      8                      9
                      A                      A                      A
 Frequencies --   1045.6344              1245.8337              1405.8349
 Red. masses --      1.7471                 4.9267                 1.1912
 Frc consts  --      1.1255                 4.5053                 1.3870
 IR Inten    --      8.7189                 9.9424                 7.0984

                     10                     11                     12
                      A                      A                      A
 Frequencies --   3002.9460              3046.8077              3072.0172
 Red. masses --      1.0510                 1.0861                 1.1059
 Frc consts  --      5.5842                 5.9404                 6.1492
 IR Inten    --      1.8668                36.7604                13.2427

 - Thermochemistry -
 -------------------
 Temperature   298.150 Kelvin.  Pressure   1.00000 Atm.
 Atom     1 has atomic number  6 and mass  12.00000

 Molecular mass:    39.02348 amu.
 Principal axes and moments of inertia in atomic units:
                           1         2         3
     Eigenvalues --    58.04327  78.61915 120.75598
           X            0.99840  -0.02418  -0.05104
           Y            0.02028   0.99693  -0.07558
           Z            0.05271   0.07442   0.99583
 This molecule is an asymmetric top.
 Rotational symmetry number  1.
 Rotational temperatures (Kelvin)      1.49223     1.10169     0.71726
 Rotational constants (GHZ):          31.09303    22.95549    14.94536
 Zero-point vibrational energy     107681.9 (Joules/Mol)
                                   25.73659 (Kcal/Mol)
 Vibrational temperatures:   1023.48  1053.84  1120.12  1402.53  1418.54
          (Kelvin)           1440.00  1504.43  1792.47  2022.68  4320.56
                             4383.67  4419.94

 Zero-point correction=                           0.041014 (Hartree/Particle)
 Thermal correction to Energy=                    0.044308
 Thermal correction to Enthalpy=                  0.045252
 Thermal correction to Gibbs Free Energy=         0.015880
 Sum of electronic and zero-point Energies=           -115.822245
 Sum of electronic and thermal Energies=              -115.818951
 Sum of electronic and thermal Enthalpies=            -115.818007
 Sum of electronic and thermal Free Energies=         -115.847379

                     E (Thermal)             CV                S
                      KCal/Mol        Cal/Mol-Kelvin    Cal/Mol-Kelvin
 Total                   27.804             10.010             61.819
 Electronic               0.000              0.000              2.755
 Translational            0.889              2.981             36.913
 Rotational               0.889              2.981             20.938
 Vibrational             26.026              4.049              1.214

 Normal termination of Gaussian 09 at Sun Mar  4 21:08:11 2018.
