 Gaussian 09, Revision D.01,
 Gaussian 09:  ES64L-G09RevD.01 24-Apr-2013

 ---------------------------
 #p b3lyp/6-311++g(d,p) freq
 ---------------------------

 ---
 min
 ---
 Symbolic Z-matrix:
 Charge =  1 Multiplicity = 1

                         Standard orientation:
 ---------------------------------------------------------------------
 Center     Atomic      Atomic             Coordinates (Angstroms)
 Number     Number       Type             X           Y           Z
 ---------------------------------------------------------------------
      1          6           0       -0.006651    1.331381   -0.000000
      2          6           0       -0.000000    0.105176   -0.000000
      3          6           0        0.005702   -1.238995    0.000000
      4          1           0       -0.009759    2.405850   -0.000000
      5          1           0        0.945692   -1.791645    0.000000
      6          1           0       -0.930238   -1.799580   -0.000000
 ---------------------------------------------------------------------

 SCF Done:  E(RB3LYP) =  -115.720777813     A.U. after   11 cycles

 The electronic state is 1-A'.
 Alpha  occ. eigenvalues --  -10.52980 -10.50440 -10.46771  -1.08514  -0.99189
 Alpha  occ. eigenvalues --   -0.81231  -0.76549  -0.73544  -0.61071  -0.55900
 Alpha virt. eigenvalues --   -0.41468  -0.23898  -0.18036  -0.17102  -0.13630
 Alpha virt. eigenvalues --   -0.12074  -0.11586  -0.09399  -0.07357  -0.07009
 Alpha virt. eigenvalues --   -0.05446  -0.05088  -0.02653  -0.00754  -0.00494

 Mulliken charges:
               1
     1  C   -1.486914
     2  C    1.723851
     3  C    0.029459
     4  H    0.240679
     5  H    0.246400
     6  H    0.246525
 Sum of Mulliken charges =   1.00000

 Dipole moment (field-independent basis, Debye):
    X=              0.0029    Y=             -0.4444    Z=             -0.0000  Tot=              0.4444
 Quadrupole moment (field-independent basis, Debye-Ang):
   XX=            -15.2091   YY=              0.5970   ZZ=            -15.9659
   XY=             -0.0671   XZ=             -0.0000   YZ=             -0.0000

  Exact polarizability:  17.369  -0.159  51.336   0.002   0.000  13.854
 Approx polarizability:  22.007  -0.430 107.254   0.000  -0.000  18.577

                      1                      2                      3
                     A"                     A'                     A'
 Frequencies --    288.4078               328.5639               645.1436
 Red. masses --      3.1781                 2.8794                 1.2248
 Frc consts  --      0.1558                 0.1831                 0.3004
 IR Inten    --     29.1879                18.3305                63.2578

                      4                      5                      6
                     A"                     A'                     A"
 Frequencies --    914.0880              1033.9200              1125.9586
 Red. masses --      1.3747                 1.4406                 1.3533
 Frc consts  --      0.6767                 0.9073                 1.0109
 IR Inten    --      4.2985                 0.3422                13.0557

                      7                      8                      9
                     A'                     A'                     A'
 Frequencies --   1147.1013              1468.0515              2132.7738
 Red. masses --      3.1542                 1.2692                 6.2987
 Frc consts  --      2.4453                 1.6116                16.8807
 IR Inten    --     24.3748                 9.2298               373.4841

                     10                     11                     12
                     A'                     A'                     A'
 Frequencies --   3096.7275              3197.4434              3370.9049
 Red. masses --      1.0577                 1.1203                 1.1577
 Frc consts  --      5.9762                 6.7482                 7.7508
 IR Inten    --     28.8131                43.6206               117.9656

 - Thermochemistry -
 -------------------
 Temperature   298.150 Kelvin.  Pressure   1.00000 Atm.
 Atom     1 has atomic number  6 and mass  12.00000

 Molecular mass:    39.02348 amu.
 Principal axes and moments of inertia in atomic units:
                           1         2         3
     Eigenvalues --     6.33280 186.13442 192.46722
           X           -0.00467   0.99999   0.00000
           Y            0.99999   0.00467   0.00000
           Z            0.00000   0.00000   1.00000
 This molecule is an asymmetric top.
 Rotational symmetry number  1.
 Rotational temperatures (Kelvin)     13.67702     0.46533     0.45002
 Rotational constants (GHZ):         284.98309     9.69590     9.37688
 Zero-point vibrational energy     112144.4 (Joules/Mol)
                                   26.80316 (Kcal/Mol)
 Warning -- explicit consideration of   2 degrees of freedom as
           vibrations may cause significant error
 Vibrational temperatures:    414.95   472.73   928.22  1315.17  1487.58
          (Kelvin)           1620.00  1650.42  2112.20  3068.58  4455.49
                             4600.40  4849.97

 Zero-point correction=                           0.042714 (Hartree/Particle)
 Thermal correction to Energy=                    0.046636
 Thermal correction to Enthalpy=                  0.047580
 Thermal correction to Gibbs Free Energy=         0.018866
 Sum of electronic and zero-point Energies=           -115.678064
 Sum of electronic and thermal Energies=              -115.674142
 Sum of electronic and thermal Enthalpies=            -115.673198
 Sum of electronic and thermal Free Energies=         -115.701911

                     E (Thermal)             CV                S
                      KCal/Mol        Cal/Mol-Kelvin    Cal/Mol-Kelvin
 Total                   29.265             11.627             60.433
 Electronic               0.000              0.000              0.000
 Translational            0.889              2.981             36.913
 Rotational               0.889              2.981             20.056
 Vibrational             27.487              5.666              3.464
 Vibration     1          0.685              1.695              1.483
 Vibration     2          0.712              1.618              1.267

 Optimization completed.
    -- Stationary point found.
 Normal termination of Gaussian 09 at Thu Jan 24 15:43:52 2019.
