 Gaussian 09, Revision D.01,
 Gaussian 09:  ES64L-G09RevD.01 24-Apr-2013

 ---------------------------
 #p b3lyp/6-311++g(d,p) freq
 ---------------------------

 ---
 min
 ---
 Symbolic Z-matrix:
 Charge =  1 Multiplicity = 1

                         Standard orientation:
 ---------------------------------------------------------------------
 Center     Atomic      Atomic             Coordinates (Angstroms)
 Number     Number       Type             X           Y           Z
 ---------------------------------------------------------------------
      1          6           0        1.401754   -0.636002   -0.247088
      2          6           0       -1.008487   -0.000144    0.118333
      3          8           0       -2.052778    0.000162   -0.292979
      4          6           0        0.296136   -0.000542    0.632185
      5          6           0        1.401522    0.636463   -0.246454
      6          1           0        1.775038   -1.624070   -0.460819
      7          1           0        0.327677   -0.000982    1.721786
      8          1           0        1.773962    1.625107   -0.458992
 ---------------------------------------------------------------------

 SCF Done:  E(RB3LYP) =  -229.116541885     A.U. after   12 cycles

 The electronic state is 1-A.
 Alpha  occ. eigenvalues --  -19.48541 -10.58446 -10.48236 -10.45261 -10.45124
 Alpha  occ. eigenvalues --   -1.42468  -1.15184  -0.97345  -0.81264  -0.79932
 Alpha  occ. eigenvalues --   -0.76212  -0.76023  -0.73402  -0.71519  -0.63411
 Alpha  occ. eigenvalues --   -0.56234  -0.53161
 Alpha virt. eigenvalues --   -0.29386  -0.28718  -0.23364  -0.18127  -0.13030
 Alpha virt. eigenvalues --   -0.12858  -0.12518  -0.09004  -0.08930  -0.08355
 Alpha virt. eigenvalues --   -0.07368  -0.06231  -0.04898  -0.04655  -0.03790

 Mulliken charges:
               1
     1  C   -0.081672
     2  C    0.199135
     3  O    0.008064
     4  C    0.126543
     5  C   -0.081560
     6  H    0.278721
     7  H    0.272027
     8  H    0.278741
 Sum of Mulliken charges =   1.00000

 Dipole moment (field-independent basis, Debye):
    X=              1.6482    Y=              0.0002    Z=              0.6601  Tot=              1.7754
 Quadrupole moment (field-independent basis, Debye-Ang):
   XX=            -17.7127   YY=            -20.3665   ZZ=            -23.5154
   XY=              0.0003   XZ=             -1.8220   YZ=              0.0016

  Exact polarizability:  53.937  -0.000  33.688  -1.168   0.001  29.389
 Approx polarizability:  88.861  -0.001  55.977   0.890   0.003  43.750

                      1                      2                      3
                      A                      A                      A
 Frequencies --    189.7824               205.9460               615.6620
 Red. masses --      6.7958                 3.5604                 6.4814
 Frc consts  --      0.1442                 0.0890                 1.4475
 IR Inten    --      2.3683                 0.5185                 4.5975

                      4                      5                      6
                      A                      A                      A
 Frequencies --    625.3807               704.4504               733.0772
 Red. masses --      6.9967                 1.1795                 6.2460
 Frc consts  --      1.6123                 0.3449                 1.9777
 IR Inten    --      5.0043                98.0172                15.6718

                      7                      8                      9
                      A                      A                      A
 Frequencies --    833.3881               905.7528               913.7734
 Red. masses --      1.4840                 1.8259                 1.1503
 Frc consts  --      0.6073                 0.8826                 0.5659
 IR Inten    --      2.2964                 1.3242                73.7440

                     10                     11                     12
                      A                      A                      A
 Frequencies --    960.3827              1011.0260              1024.5670
 Red. masses --      4.3254                 2.2384                 1.3401
 Frc consts  --      2.3505                 1.3480                 0.8289
 IR Inten    --    136.6264                23.2910                 0.1939

                     13                     14                     15
                      A                      A                      A
 Frequencies --   1319.3672              1776.1063              2318.0544
 Red. masses --      1.1793                 4.6773                12.9025
 Frc consts  --      1.2095                 8.6932                40.8480
 IR Inten    --     14.0853                 5.0097               456.0142

                     16                     17                     18
                      A                      A                      A
 Frequencies --   3108.8958              3262.8375              3324.0472
 Red. masses --      1.0846                 1.0867                 1.1684
 Frc consts  --      6.1761                 6.8160                 7.6064
 IR Inten    --     22.0130               115.8632                43.3107

 - Thermochemistry -
 -------------------
 Temperature   298.150 Kelvin.  Pressure   1.00000 Atm.
 Atom     1 has atomic number  6 and mass  12.00000

 Molecular mass:    67.01839 amu.
 Principal axes and moments of inertia in atomic units:
                           1         2         3
     Eigenvalues --    93.66765 518.68525 532.39875
           X            0.99997  -0.00000  -0.00823
           Y            0.00000   1.00000   0.00021
           Z            0.00823  -0.00021   0.99997
 This molecule is an asymmetric top.
 Rotational symmetry number  1.
 Rotational temperatures (Kelvin)      0.92469     0.16699     0.16269
 Rotational constants (GHZ):          19.26750     3.47945     3.38983
 Zero-point vibrational energy     142550.0 (Joules/Mol)
                                   34.07026 (Kcal/Mol)
 Warning -- explicit consideration of   3 degrees of freedom as
           vibrations may cause significant error
 Vibrational temperatures:    273.05   296.31   885.80   899.78  1013.55
          (Kelvin)           1054.73  1199.06  1303.17  1314.71  1381.77
                             1454.64  1474.12  1898.27  2555.42  3335.16
                             4473.00  4694.49  4782.56

 Zero-point correction=                           0.054294 (Hartree/Particle)
 Thermal correction to Energy=                    0.059061
 Thermal correction to Enthalpy=                  0.060006
 Thermal correction to Gibbs Free Energy=         0.026860
 Sum of electronic and zero-point Energies=           -229.062247
 Sum of electronic and thermal Energies=              -229.057480
 Sum of electronic and thermal Enthalpies=            -229.056536
 Sum of electronic and thermal Free Energies=         -229.089682

                     E (Thermal)             CV                S
                      KCal/Mol        Cal/Mol-Kelvin    Cal/Mol-Kelvin
 Total                   37.062             16.092             69.762
 Electronic               0.000              0.000              0.000
 Translational            0.889              2.981             38.525
 Rotational               0.889              2.981             24.762
 Vibrational             35.284             10.131              6.474
 Vibration     1          0.633              1.854              2.230
 Vibration     2          0.640              1.831              2.079
 Vibration     3          0.975              0.999              0.423

 Normal termination of Gaussian 09 at Thu Jan 24 15:58:39 2019.
