 Gaussian 09, Revision D.01,
 Gaussian 09:  ES64L-G09RevD.01 24-Apr-2013

 ---------------------------
 #p b3lyp/6-311++g(d,p) freq
 ---------------------------

 ---
 min
 ---
 Symbolic Z-matrix:
 Charge =  1 Multiplicity = 3

                         Standard orientation:
 ---------------------------------------------------------------------
 Center     Atomic      Atomic             Coordinates (Angstroms)
 Number     Number       Type             X           Y           Z
 ---------------------------------------------------------------------
      1          6           0       -0.915707   -0.351414   -0.000000
      2          6           0        0.203412   -0.291010    0.870267
      3          1           0        0.776931   -0.782970    1.643471
      4          6           0        0.203412    0.869701    0.000000
      5          1           0        0.278959    1.948344    0.000000
      6          6           0        0.203412   -0.291010   -0.870267
      7          1           0        0.776931   -0.782970   -1.643471
 ---------------------------------------------------------------------

 SCF Done:  E(UB3LYP) =  -153.677235855     A.U. after   13 cycles

 The electronic state is 3-A'.
 Alpha  occ. eigenvalues --  -10.53511 -10.51602 -10.50846 -10.50838  -1.28399
 Alpha  occ. eigenvalues --   -0.91186  -0.89465  -0.84591  -0.77306  -0.71275
 Alpha  occ. eigenvalues --   -0.66347  -0.61407  -0.57906  -0.46146
 Alpha virt. eigenvalues --   -0.25402  -0.22646  -0.15964  -0.14809  -0.13920
 Alpha virt. eigenvalues --   -0.12774  -0.10900  -0.09942  -0.08519  -0.07978
 Alpha virt. eigenvalues --   -0.06580  -0.06046  -0.05032  -0.04683  -0.03395

  Beta  occ. eigenvalues --  -10.51471 -10.51007 -10.50318 -10.50314  -1.26614
  Beta  occ. eigenvalues --   -0.89277  -0.86974  -0.82190  -0.73994  -0.70031
  Beta  occ. eigenvalues --   -0.63057  -0.59804
  Beta virt. eigenvalues --   -0.41145  -0.34662  -0.22561  -0.18448  -0.15268
  Beta virt. eigenvalues --   -0.14106  -0.13194  -0.11460  -0.10087  -0.09146
  Beta virt. eigenvalues --   -0.07969  -0.07766  -0.06209  -0.05354  -0.04353

 Mulliken charges and spin densities:
               1          2
     1  C    0.124911   0.989299
     2  C    0.033304   0.283813
     3  H    0.294109  -0.002404
     4  C   -0.078342   0.451437
     5  H    0.298605  -0.003553
     6  C    0.033304   0.283813
     7  H    0.294109  -0.002404
 Sum of Mulliken charges =   1.00000   2.00000

 Dipole moment (field-independent basis, Debye):
    X=              1.2189    Y=              0.0912    Z=              0.0000  Tot=              1.2223
 Quadrupole moment (field-independent basis, Debye-Ang):
   XX=            -19.4321   YY=            -15.4888   ZZ=            -15.1090
   XY=             -0.1688   XZ=             -0.0000   YZ=             -0.0000

  Exact polarizability:  28.615   1.221  31.434   0.000   0.000  36.445
 Approx polarizability:  47.158   5.365  48.488  -0.000   0.000  60.916

                      1                      2                      3
                     A'                     A"                     A'
 Frequencies --    468.5350               583.0197               632.7997
 Red. masses --      7.6783                 9.1261                 1.7415
 Frc consts  --      0.9931                 1.8277                 0.4109
 IR Inten    --     10.7917                 3.5678                 7.3183

                      4                      5                      6
                     A'                     A"                     A'
 Frequencies --    673.5778               727.5676               749.2863
 Red. masses --      1.9578                 1.3356                 1.2228
 Frc consts  --      0.5234                 0.4165                 0.4045
 IR Inten    --     46.1154                53.6739                10.7020

                      7                      8                      9
                     A"                     A'                     A"
 Frequencies --    904.3193               956.9455              1001.3069
 Red. masses --      1.0906                 1.2487                 1.2798
 Frc consts  --      0.5255                 0.6737                 0.7560
 IR Inten    --      6.2063                38.8311                11.3465

                     10                     11                     12
                     A'                     A"                     A'
 Frequencies --   1197.3990              1265.5046              1441.1818
 Red. masses --      5.0129                 4.8390                 6.5259
 Frc consts  --      4.2346                 4.5660                 7.9860
 IR Inten    --     20.2285                 1.8202                 1.2666

                     13                     14                     15
                     A'                     A"                     A'
 Frequencies --   3239.9037              3242.1901              3265.1227
 Red. masses --      1.0931                 1.1011                 1.1219
 Frc consts  --      6.7603                 6.8195                 7.0469
 IR Inten    --    136.0060               169.3338                31.2133

 - Thermochemistry -
 -------------------
 Temperature   298.150 Kelvin.  Pressure   1.00000 Atm.
 Atom     1 has atomic number  6 and mass  12.00000

 Molecular mass:    51.02348 amu.
 Principal axes and moments of inertia in atomic units:
                           1         2         3
     Eigenvalues --   108.67346 122.35771 155.01999
           X           -0.00000   0.48365   0.87526
           Y           -0.00000   0.87526  -0.48365
           Z            1.00000   0.00000  -0.00000
 This molecule is an asymmetric top.
 Rotational symmetry number  1.
 Rotational temperatures (Kelvin)      0.79701     0.70787     0.55873
 Rotational constants (GHZ):          16.60701    14.74971    11.64199
 Zero-point vibrational energy     121712.0 (Joules/Mol)
                                   29.08987 (Kcal/Mol)
 Warning -- explicit consideration of   2 degrees of freedom as
           vibrations may cause significant error
 Vibrational temperatures:    674.12   838.83   910.46   969.13  1046.81
          (Kelvin)           1078.05  1301.11  1376.83  1440.66  1722.79
                             1820.78  2073.54  4661.49  4664.78  4697.78

 Zero-point correction=                           0.046358 (Hartree/Particle)
 Thermal correction to Energy=                    0.050240
 Thermal correction to Enthalpy=                  0.051185
 Thermal correction to Gibbs Free Energy=         0.020273
 Sum of electronic and zero-point Energies=           -153.630878
 Sum of electronic and thermal Energies=              -153.626995
 Sum of electronic and thermal Enthalpies=            -153.626051
 Sum of electronic and thermal Free Energies=         -153.656963

                     E (Thermal)             CV                S
                      KCal/Mol        Cal/Mol-Kelvin    Cal/Mol-Kelvin
 Total                   31.526             13.470             65.059
 Electronic               0.000              0.000              2.183
 Translational            0.889              2.981             37.712
 Rotational               0.889              2.981             22.249
 Vibrational             29.749              7.508              2.915
 Vibration     1          0.826              1.320              0.742
 Vibration     2          0.940              1.068              0.480

 Normal termination of Gaussian 09 at Thu Jan 24 15:51:52 2019.
