 Gaussian 09, Revision D.01,
 Gaussian 09:  ES64L-G09RevD.01 24-Apr-2013

 ---------------------------
 #p b3lyp/6-311++g(d,p) freq
 ---------------------------

 ---
 min
 ---
 Symbolic Z-matrix:
 Charge =  0 Multiplicity = 2

                         Standard orientation:
 ---------------------------------------------------------------------
 Center     Atomic      Atomic             Coordinates (Angstroms)
 Number     Number       Type             X           Y           Z
 ---------------------------------------------------------------------
      1          6           0        0.000000   -0.000000   -1.869631
      2          1           0        0.000000    0.924849   -2.446470
      3          1           0       -0.000000   -0.924849   -2.446470
      4          6           0        0.000000   -0.000000   -0.563417
      5          6           0       -0.000000    0.000000    0.754075
      6          6           0       -0.000000    0.000000    1.986339
      7          1           0       -0.000000    0.000000    3.048737
 ---------------------------------------------------------------------

 SCF Done:  E(UB3LYP) =  -154.118263854     A.U. after   17 cycles

 The electronic state is 2-B2.
 Alpha  occ. eigenvalues --  -10.21429 -10.20219 -10.19955 -10.19827  -0.82125
 Alpha  occ. eigenvalues --   -0.76203  -0.66222  -0.54261  -0.49912  -0.46601
 Alpha  occ. eigenvalues --   -0.36508  -0.34914  -0.26584  -0.20907
 Alpha virt. eigenvalues --   -0.06126  -0.00329   0.00696   0.02617   0.04432
 Alpha virt. eigenvalues --    0.04637   0.06218   0.06294   0.08218   0.09610
 Alpha virt. eigenvalues --    0.11142   0.12014   0.12675   0.13772   0.14741

  Beta  occ. eigenvalues --  -10.20419 -10.20332 -10.20043 -10.19299  -0.80735
  Beta  occ. eigenvalues --   -0.75248  -0.64788  -0.53437  -0.49210  -0.45119
  Beta  occ. eigenvalues --   -0.36015  -0.32122  -0.26228
  Beta virt. eigenvalues --   -0.09700  -0.05615  -0.00267   0.00784   0.02831
  Beta virt. eigenvalues --    0.04498   0.05170   0.06210   0.06349   0.08336
  Beta virt. eigenvalues --    0.11265   0.11540   0.12156   0.13476   0.13822

 Mulliken charges and spin densities:
               1          2
     1  C   -0.650982  -0.153729
     2  H    0.134901   0.059696
     3  H    0.134901   0.059696
     4  C    0.236721   0.713708
     5  C    1.827916  -0.280586
     6  C   -1.825274   0.627760
     7  H    0.141816  -0.026544
 Sum of Mulliken charges =   0.00000   1.00000

 Dipole moment (field-independent basis, Debye):
    X=             -0.0000    Y=              0.0000    Z=             -0.0879  Tot=              0.0879
 Quadrupole moment (field-independent basis, Debye-Ang):
   XX=            -26.0604   YY=            -24.2065   ZZ=            -15.8194
   XY=              0.0000   XZ=              0.0000   YZ=             -0.0000

  Exact polarizability:  24.737   0.000  26.540  -0.000  -0.000 101.920
 Approx polarizability:  31.072   0.000  33.413  -0.000  -0.000 188.502

                      1                      2                      3
                     B2                     B1                     B2
 Frequencies --     90.0668               234.0945               302.2949
 Red. masses --      3.1795                 3.8773                 1.5938
 Frc consts  --      0.0152                 0.1252                 0.0858
 IR Inten    --      6.4921                 6.9319                58.8456

                      4                      5                      6
                     B2                     B1                     B1
 Frequencies --    383.9960               546.9919               645.9108
 Red. masses --      2.9889                 8.2771                 1.2437
 Frc consts  --      0.2597                 1.4591                 0.3057
 IR Inten    --      9.0347                 0.4060                49.3039

                      7                      8                      9
                     B1                     A1                     B2
 Frequencies --    890.2482               899.3050               975.7314
 Red. masses --      1.3282                 4.8731                 1.3465
 Frc consts  --      0.6202                 2.3220                 0.7553
 IR Inten    --     54.5833                 0.0256                 0.0588

                     10                     11                     12
                     A1                     A1                     A1
 Frequencies --   1432.6418              1793.8584              2013.4730
 Red. masses --      1.1251                 7.7215                 8.5758
 Frc consts  --      1.3605                14.6395                20.4840
 IR Inten    --      0.7083                15.8078                 1.0014

                     13                     14                     15
                     A1                     B2                     A1
 Frequencies --   3063.6823              3124.1441              3466.4672
 Red. masses --      1.0534                 1.1133                 1.1320
 Frc consts  --      5.8253                 6.4022                 8.0146
 IR Inten    --      6.4941                 4.3338                99.8707

 - Thermochemistry -
 -------------------
 Temperature   298.150 Kelvin.  Pressure   1.00000 Atm.
 Atom     1 has atomic number  6 and mass  12.00000

 Molecular mass:    51.02348 amu.
 Principal axes and moments of inertia in atomic units:
                           1         2         3
     Eigenvalues --     6.15679 433.14016 439.29695
           X            0.00000  -0.00000   1.00000
           Y           -0.00000   1.00000   0.00000
           Z            1.00000   0.00000  -0.00000
 This molecule is an asymmetric top.
 Rotational symmetry number  2.
 Rotational temperatures (Kelvin)     14.06801     0.19997     0.19716
 Rotational constants (GHZ):         293.13005     4.16664     4.10825
 Zero-point vibrational energy     118806.6 (Joules/Mol)
                                   28.39545 (Kcal/Mol)
 Warning -- explicit consideration of   5 degrees of freedom as
           vibrations may cause significant error
 Vibrational temperatures:    129.59   336.81   434.93   552.48   787.00
          (Kelvin)            929.32  1280.87  1293.90  1403.86  2061.25
                             2580.96  2896.93  4407.95  4494.94  4987.47

 Zero-point correction=                           0.045251 (Hartree/Particle)
 Thermal correction to Energy=                    0.050576
 Thermal correction to Enthalpy=                  0.051520
 Thermal correction to Gibbs Free Energy=         0.018893
 Sum of electronic and zero-point Energies=           -154.073013
 Sum of electronic and thermal Energies=              -154.067688
 Sum of electronic and thermal Enthalpies=            -154.066743
 Sum of electronic and thermal Free Energies=         -154.099370

                     E (Thermal)             CV                S
                      KCal/Mol        Cal/Mol-Kelvin    Cal/Mol-Kelvin
 Total                   31.737             16.514             68.669
 Electronic               0.000              0.000              1.377
 Translational            0.889              2.981             37.712
 Rotational               0.889              2.981             20.310
 Vibrational             29.960             10.552              9.270
 Vibration     1          0.602              1.956              3.659
 Vibration     2          0.654              1.789              1.847
 Vibration     3          0.694              1.669              1.404
 Vibration     4          0.753              1.504              1.023
 Vibration     5          0.902              1.146              0.550

 Optimization completed.
    -- Stationary point found.
 Normal termination of Gaussian 09 at Sun Mar  4 21:08:27 2018.
