 Gaussian 09, Revision D.01,
 Gaussian 09:  ES64L-G09RevD.01 24-Apr-2013

 ---------------------------
 #p b3lyp/6-311++g(d,p) freq
 ---------------------------

 ---
 min
 ---
 Symbolic Z-matrix:
 Charge =  1 Multiplicity = 3

                         Standard orientation:
 ---------------------------------------------------------------------
 Center     Atomic      Atomic             Coordinates (Angstroms)
 Number     Number       Type             X           Y           Z
 ---------------------------------------------------------------------
      1          6           0       -0.000000    0.000000   -1.892186
      2          1           0        0.000000    0.934698   -2.454996
      3          1           0       -0.000000   -0.934698   -2.454996
      4          6           0       -0.000000    0.000000   -0.539503
      5          6           0        0.000000   -0.000000    0.736700
      6          6           0        0.000000   -0.000000    2.001017
      7          1           0        0.000000   -0.000000    3.073829
 ---------------------------------------------------------------------

 SCF Done:  E(UB3LYP) =  -153.773533176     A.U. after   15 cycles

 The electronic state is 3-A2.
 Alpha  occ. eigenvalues --  -10.49010 -10.48676 -10.47873 -10.46131  -1.08286
 Alpha  occ. eigenvalues --   -1.02611  -0.92544  -0.78250  -0.74969  -0.71296
 Alpha  occ. eigenvalues --   -0.62610  -0.59885  -0.53349  -0.45902
 Alpha virt. eigenvalues --   -0.33250  -0.16948  -0.16011  -0.13411  -0.12835
 Alpha virt. eigenvalues --   -0.11565  -0.10787  -0.09414  -0.07521  -0.06413
 Alpha virt. eigenvalues --   -0.04953  -0.04611  -0.03022  -0.02238  -0.01728

  Beta  occ. eigenvalues --  -10.48346 -10.47059 -10.46856 -10.46419  -1.05846
  Beta  occ. eigenvalues --   -0.99218  -0.90088  -0.76658  -0.73568  -0.69373
  Beta  occ. eigenvalues --   -0.59058  -0.56487
  Beta virt. eigenvalues --   -0.42673  -0.33532  -0.28118  -0.15674  -0.14332
  Beta virt. eigenvalues --   -0.12754  -0.11062  -0.10762  -0.10696  -0.08901
  Beta virt. eigenvalues --   -0.07036  -0.05128  -0.04148  -0.03462  -0.02073

 Mulliken charges and spin densities:
               1          2
     1  C   -0.476745   0.499227
     2  H    0.232880   0.015004
     3  H    0.232880   0.015004
     4  C    0.451630   0.643928
     5  C    1.921222  -0.150321
     6  C   -1.604914   1.015815
     7  H    0.243047  -0.038655
 Sum of Mulliken charges =   1.00000   2.00000

 Dipole moment (field-independent basis, Debye):
    X=             -0.0000    Y=             -0.0000    Z=             -0.3456  Tot=              0.3456
 Quadrupole moment (field-independent basis, Debye-Ang):
   XX=            -21.4380   YY=            -20.8159   ZZ=              5.3129
   XY=              0.0000   XZ=              0.0000   YZ=              0.0000

  Exact polarizability:  17.846  -0.000  21.565  -0.000   0.000  91.319
 Approx polarizability:  23.768   0.000  27.608   0.000   0.000 176.772

                      1                      2                      3
                     B2                     B1                     B2
 Frequencies --    107.3140               209.8199               232.6890
 Red. masses --      3.2244                 3.5941                 1.6307
 Frc consts  --      0.0219                 0.0932                 0.0520
 IR Inten    --     17.1637                16.0968                44.6192

                      4                      5                      6
                     B2                     B1                     B1
 Frequencies --    364.6401               487.1051               745.0041
 Red. masses --      2.9138                 5.4352                 1.3646
 Frc consts  --      0.2283                 0.7598                 0.4462
 IR Inten    --     13.6204                 0.2792                14.3698

                      7                      8                      9
                     A1                     B2                     B1
 Frequencies --    899.1789               994.1208              1011.1394
 Red. masses --      4.8076                 1.3212                 1.3503
 Frc consts  --      2.2902                 0.7693                 0.8134
 IR Inten    --      6.0374                 0.0497                26.0625

                     10                     11                     12
                     A1                     A1                     A1
 Frequencies --   1437.2093              1555.6769              2007.5342
 Red. masses --      1.1595                 6.1774                10.0296
 Frc consts  --      1.4111                 8.8083                23.8155
 IR Inten    --     31.5154               100.9744                18.6234

                     13                     14                     15
                     A1                     B2                     A1
 Frequencies --   3075.2156              3172.9657              3364.8873
 Red. masses --      1.0513                 1.1187                 1.1241
 Frc consts  --      5.8576                 6.6361                 7.4991
 IR Inten    --     36.5312                26.9035               207.7514

 - Thermochemistry -
 -------------------
 Temperature   298.150 Kelvin.  Pressure   1.00000 Atm.
 Atom     1 has atomic number  6 and mass  12.00000

 Molecular mass:    51.02348 amu.
 Principal axes and moments of inertia in atomic units:
                           1         2         3
     Eigenvalues --     6.28862 437.89957 444.18819
           X            0.00000  -0.00000   1.00000
           Y            0.00000   1.00000   0.00000
           Z            1.00000  -0.00000  -0.00000
 This molecule is an asymmetric top.
 Rotational symmetry number  2.
 Rotational temperatures (Kelvin)     13.77310     0.19779     0.19499
 Rotational constants (GHZ):         286.98515     4.12136     4.06301
 Zero-point vibrational energy     117619.8 (Joules/Mol)
                                   28.11181 (Kcal/Mol)
 Warning -- explicit consideration of   5 degrees of freedom as
           vibrations may cause significant error
 Vibrational temperatures:    154.40   301.88   334.79   524.64   700.83
          (Kelvin)           1071.89  1293.72  1430.32  1454.80  2067.82
                             2238.27  2888.39  4424.54  4565.18  4841.32

 Zero-point correction=                           0.044799 (Hartree/Particle)
 Thermal correction to Energy=                    0.050222
 Thermal correction to Enthalpy=                  0.051166
 Thermal correction to Gibbs Free Energy=         0.017969
 Sum of electronic and zero-point Energies=           -153.728734
 Sum of electronic and thermal Energies=              -153.723311
 Sum of electronic and thermal Enthalpies=            -153.722367
 Sum of electronic and thermal Free Energies=         -153.755565

                     E (Thermal)             CV                S
                      KCal/Mol        Cal/Mol-Kelvin    Cal/Mol-Kelvin
 Total                   31.515             16.508             69.870
 Electronic               0.000              0.000              2.183
 Translational            0.889              2.981             37.712
 Rotational               0.889              2.981             20.353
 Vibrational             29.737             10.546              9.622
 Vibration     1          0.606              1.943              3.317
 Vibration     2          0.642              1.826              2.045
 Vibration     3          0.653              1.791              1.858
 Vibration     4          0.738              1.545              1.102
 Vibration     5          0.843              1.279              0.691

 Optimization completed.
    -- Stationary point found.
 Normal termination of Gaussian 09 at Thu Jan 24 15:51:53 2019.
