 Gaussian 09, Revision D.01,
 Gaussian 09:  ES64L-G09RevD.01 24-Apr-2013

 ---------------------------
 #p b3lyp/6-311++g(d,p) freq
 ---------------------------

 ---
 min
 ---
 Symbolic Z-matrix:
 Charge =  1 Multiplicity = 1

                         Standard orientation:
 ---------------------------------------------------------------------
 Center     Atomic      Atomic             Coordinates (Angstroms)
 Number     Number       Type             X           Y           Z
 ---------------------------------------------------------------------
      1          6           0        0.000000    0.000000   -1.168851
      2          1           0       -0.920633    0.000000   -1.750919
      3          1           0        0.920633   -0.000000   -1.750919
      4          6           0        0.000000    0.783215    0.089454
      5          6           0        0.000000   -0.000000    1.194522
      6          1           0        0.000000   -0.000000    2.274354
      7          6           0       -0.000000   -0.783215    0.089454
 ---------------------------------------------------------------------

 SCF Done:  E(RB3LYP) =  -153.788664904     A.U. after   10 cycles

 The electronic state is 1-A1.
 Alpha  occ. eigenvalues --  -10.53934 -10.53912 -10.51631 -10.50104  -1.27142
 Alpha  occ. eigenvalues --   -1.01219  -0.83043  -0.81938  -0.75173  -0.73108
 Alpha  occ. eigenvalues --   -0.68074  -0.61376  -0.55936
 Alpha virt. eigenvalues --   -0.33667  -0.29150  -0.27396  -0.16607  -0.13741
 Alpha virt. eigenvalues --   -0.13417  -0.12494  -0.11904  -0.08678  -0.07824
 Alpha virt. eigenvalues --   -0.07300  -0.04978  -0.04365  -0.03237  -0.02265

 Mulliken charges:
               1
     1  C   -0.611042
     2  H    0.265009
     3  H    0.265009
     4  C    0.520157
     5  C   -0.231002
     6  H    0.271711
     7  C    0.520157
 Sum of Mulliken charges =   1.00000

 Dipole moment (field-independent basis, Debye):
    X=              0.0000    Y=             -0.0000    Z=              0.0539  Tot=              0.0539
 Quadrupole moment (field-independent basis, Debye-Ang):
   XX=            -19.2750   YY=            -22.4940   ZZ=             -8.7181
   XY=             -0.0000   XZ=              0.0000   YZ=             -0.0000

  Exact polarizability:  22.346  -0.000  33.863  -0.000  -0.000  41.406
 Approx polarizability:  33.236   0.000  79.191   0.000  -0.000  64.149

                      1                      2                      3
                     B1                     B2                     B1
 Frequencies --    450.2038               586.8923               819.5224
 Red. masses --      2.6913                 5.3235                 1.2657
 Frc consts  --      0.3214                 1.0804                 0.5008
 IR Inten    --      6.0397                76.2658                22.7295

                      4                      5                      6
                     A1                     A2                     B2
 Frequencies --    858.3259              1022.3810              1036.2104
 Red. masses --      9.1185                 1.1139                 1.3785
 Frc consts  --      3.9580                 0.6860                 0.8721
 IR Inten    --      3.0968                 0.0000                 2.5379

                      7                      8                      9
                     B1                     B2                     B2
 Frequencies --   1052.7006              1125.6914              1170.6671
 Red. masses --      1.4387                 1.7840                 2.2253
 Frc consts  --      0.9394                 1.3319                 1.7968
 IR Inten    --      0.7753                19.4315                 4.4126

                     10                     11                     12
                     A1                     A1                     A1
 Frequencies --   1190.7876              1462.2693              1653.6069
 Red. masses --      4.9833                 1.1500                 6.3695
 Frc consts  --      4.1633                 1.4487                10.2617
 IR Inten    --     10.2343                10.5387                34.2797

                     13                     14                     15
                     A1                     B1                     A1
 Frequencies --   3099.8568              3184.0846              3283.3937
 Red. masses --      1.0557                 1.1189                 1.1253
 Frc consts  --      5.9768                 6.6835                 7.1475
 IR Inten    --     42.0007                43.1066                94.6045

 - Thermochemistry -
 -------------------
 Temperature   298.150 Kelvin.  Pressure   1.00000 Atm.
 Atom     1 has atomic number  6 and mass  12.00000

 Molecular mass:    51.02348 amu.
 Principal axes and moments of inertia in atomic units:
                           1         2         3
     Eigenvalues --    58.67478 167.05833 213.53153
           X            0.00000  -0.00000   1.00000
           Y            0.00000   1.00000   0.00000
           Z            1.00000  -0.00000  -0.00000
 This molecule is an asymmetric top.
 Rotational symmetry number  2.
 Rotational temperatures (Kelvin)      1.47617     0.51846     0.40563
 Rotational constants (GHZ):          30.75838    10.80306     8.45187
 Zero-point vibrational energy     131568.8 (Joules/Mol)
                                   31.44571 (Kcal/Mol)
 Warning -- explicit consideration of   2 degrees of freedom as
           vibrations may cause significant error
 Vibrational temperatures:    647.74   844.41  1179.11  1234.94  1470.98
          (Kelvin)           1490.87  1514.60  1619.62  1684.33  1713.28
                             2103.88  2379.17  4460.00  4581.18  4724.07

 Zero-point correction=                           0.050112 (Hartree/Particle)
 Thermal correction to Energy=                    0.053674
 Thermal correction to Enthalpy=                  0.054619
 Thermal correction to Gibbs Free Energy=         0.025811
 Sum of electronic and zero-point Energies=           -153.738553
 Sum of electronic and thermal Energies=              -153.734990
 Sum of electronic and thermal Enthalpies=            -153.734046
 Sum of electronic and thermal Free Energies=         -153.762854

                     E (Thermal)             CV                S
                      KCal/Mol        Cal/Mol-Kelvin    Cal/Mol-Kelvin
 Total                   33.681             11.399             60.631
 Electronic               0.000              0.000              0.000
 Translational            0.889              2.981             37.712
 Rotational               0.889              2.981             20.887
 Vibrational             31.904              5.438              2.032
 Vibration     1          0.809              1.360              0.795
 Vibration     2          0.944              1.060              0.473

 Normal termination of Gaussian 09 at Thu Jan 24 15:48:44 2019.
