 Gaussian 09, Revision D.01,
 Gaussian 09:  ES64L-G09RevD.01 24-Apr-2013

 ---------------------------
 #p b3lyp/6-311++g(d,p) freq
 ---------------------------

 ---
 min
 ---
 Symbolic Z-matrix:
 Charge =  1 Multiplicity = 3

                         Standard orientation:
 ---------------------------------------------------------------------
 Center     Atomic      Atomic             Coordinates (Angstroms)
 Number     Number       Type             X           Y           Z
 ---------------------------------------------------------------------
      1          6           0        0.756958    0.465368   -0.006152
      2          1           0        1.064164    1.159377   -0.807345
      3          1           0        1.120377    0.887021    0.964296
      4          6           0        1.766504   -0.672948   -0.021435
      5          6           0       -0.616379    0.125709    0.006100
      6          6           0       -1.798044   -0.185518   -0.003700
      7          1           0       -2.838779   -0.442066   -0.005828
 ---------------------------------------------------------------------

 SCF Done:  E(UB3LYP) =  -153.642250284     A.U. after   25 cycles

 The electronic state is 3-A.
 Alpha  occ. eigenvalues --  -10.55641 -10.48946 -10.46337 -10.45976  -1.09390
 Alpha  occ. eigenvalues --   -1.01391  -0.86111  -0.78113  -0.74518  -0.72039
 Alpha  occ. eigenvalues --   -0.61795  -0.55214  -0.54288  -0.49656
 Alpha virt. eigenvalues --   -0.37296  -0.23646  -0.22080  -0.16739  -0.12586
 Alpha virt. eigenvalues --   -0.12063  -0.10943  -0.10445  -0.08055  -0.07021
 Alpha virt. eigenvalues --   -0.06824  -0.05030  -0.04268  -0.03951  -0.01817

  Beta  occ. eigenvalues --  -10.53292 -10.48786 -10.45834 -10.45632  -1.07602
  Beta  occ. eigenvalues --   -0.98862  -0.82645  -0.76437  -0.72937  -0.71556
  Beta  occ. eigenvalues --   -0.54200  -0.53592
  Beta virt. eigenvalues --   -0.44914  -0.34415  -0.31178  -0.21677  -0.20729
  Beta virt. eigenvalues --   -0.16240  -0.12334  -0.11956  -0.10434  -0.09863
  Beta virt. eigenvalues --   -0.07665  -0.06881  -0.06231  -0.04404  -0.03804

 Mulliken charges and spin densities:
               1          2
     1  C   -0.150879   0.051045
     2  H    0.275794   0.035647
     3  H    0.266352   0.012885
     4  C    0.321038   1.371627
     5  C    1.498203   0.238341
     6  C   -1.442383   0.305677
     7  H    0.231875  -0.015222
 Sum of Mulliken charges =   1.00000   2.00000

 Dipole moment (field-independent basis, Debye):
    X=             -0.2436    Y=              0.6847    Z=              0.1305  Tot=              0.7384
 Quadrupole moment (field-independent basis, Debye-Ang):
   XX=             -5.8340   YY=            -19.6899   ZZ=            -20.2181
   XY=              2.9121   XZ=              0.3753   YZ=              0.3103

  Exact polarizability: 108.665 -10.285  32.259   0.266   0.036  25.091
 Approx polarizability: 225.103 -30.933  52.270  -0.601   1.613  36.017

                      1                      2                      3
                      A                      A                      A
 Frequencies --    213.7835               284.1497               361.3208
 Red. masses --      4.6605                 1.7645                 2.2812
 Frc consts  --      0.1255                 0.0839                 0.1755
 IR Inten    --      5.3955                26.0487                 0.5516

                      4                      5                      6
                      A                      A                      A
 Frequencies --    535.1946               705.7825               773.9187
 Red. masses --      5.6812                 1.2418                 1.3650
 Frc consts  --      0.9588                 0.3645                 0.4817
 IR Inten    --     10.6817                46.2911                15.4857

                      7                      8                      9
                      A                      A                      A
 Frequencies --    800.7654               998.6169              1069.5778
 Red. masses --      6.4908                 3.0536                 1.2919
 Frc consts  --      2.4522                 1.7941                 0.8707
 IR Inten    --     11.1677                 1.8768                10.3111

                     10                     11                     12
                      A                      A                      A
 Frequencies --   1141.6929              1314.8170              2108.4506
 Red. masses --      1.1941                 1.2144                 6.1585
 Frc consts  --      0.9170                 1.2369                16.1306
 IR Inten    --     49.2673                55.8781               588.4239

                     13                     14                     15
                      A                      A                      A
 Frequencies --   2854.3157              2980.5556              3392.0028
 Red. masses --      1.0701                 1.0817                 1.1579
 Frc consts  --      5.1366                 5.6618                 7.8496
 IR Inten    --     94.8133                69.0622                97.6378

 - Thermochemistry -
 -------------------
 Temperature   298.150 Kelvin.  Pressure   1.00000 Atm.
 Atom     1 has atomic number  6 and mass  12.00000

 Molecular mass:    51.02348 amu.
 Principal axes and moments of inertia in atomic units:
                           1         2         3
     Eigenvalues --    44.26450 356.86180 389.70459
           X            0.99923   0.03929   0.00217
           Y           -0.03927   0.99920  -0.00700
           Z           -0.00245   0.00691   0.99997
 This molecule is an asymmetric top.
 Rotational symmetry number  1.
 Rotational temperatures (Kelvin)      1.95673     0.24271     0.22226
 Rotational constants (GHZ):          40.77175     5.05726     4.63105
 Zero-point vibrational energy     116844.9 (Joules/Mol)
                                   27.92660 (Kcal/Mol)
 Warning -- explicit consideration of   4 degrees of freedom as
           vibrations may cause significant error
 Vibrational temperatures:    307.59   408.83   519.86   770.02  1015.46
          (Kelvin)           1113.49  1152.12  1436.79  1538.88  1642.64
                             1891.73  3033.59  4106.72  4288.35  4880.33

 Zero-point correction=                           0.044504 (Hartree/Particle)
 Thermal correction to Energy=                    0.049237
 Thermal correction to Enthalpy=                  0.050181
 Thermal correction to Gibbs Free Energy=         0.017196
 Sum of electronic and zero-point Energies=           -153.597746
 Sum of electronic and thermal Energies=              -153.593014
 Sum of electronic and thermal Enthalpies=            -153.592070
 Sum of electronic and thermal Free Energies=         -153.625054

                     E (Thermal)             CV                S
                      KCal/Mol        Cal/Mol-Kelvin    Cal/Mol-Kelvin
 Total                   30.896             15.453             69.423
 Electronic               0.000              0.000              2.183
 Translational            0.889              2.981             37.712
 Rotational               0.889              2.981             23.336
 Vibrational             29.119              9.491              6.191
 Vibration     1          0.644              1.820              2.011
 Vibration     2          0.683              1.703              1.509
 Vibration     3          0.735              1.552              1.116
 Vibration     4          0.890              1.172              0.576

 Optimization completed.
    -- Stationary point found.
 Normal termination of Gaussian 09 at Thu Jan 24 15:55:23 2019.
