 Gaussian 09, Revision D.01,
 Gaussian 09:  ES64L-G09RevD.01 24-Apr-2013

 ---------------------------
 #p b3lyp/6-311++g(d,p) freq
 ---------------------------

 ---
 min
 ---
 Symbolic Z-matrix:
 Charge =  0 Multiplicity = 2

                         Standard orientation:
 ---------------------------------------------------------------------
 Center     Atomic      Atomic             Coordinates (Angstroms)
 Number     Number       Type             X           Y           Z
 ---------------------------------------------------------------------
      1          6           0        0.132753   -0.121772    0.885752
      2          6           0        0.132753    1.100301   -0.000000
      3          1           0        1.007908    1.746266   -0.000000
      4          6           0        0.132753   -0.121772   -0.885752
      5          1           0       -0.802756    1.653404   -0.000000
      6          6           0       -0.336379   -1.070181    0.000000
      7          1           0       -0.576430   -2.119128    0.000000
 ---------------------------------------------------------------------

 SCF Done:  E(UB3LYP) =  -154.057338454     A.U. after   14 cycles

 The electronic state is 2-A".
 Alpha  occ. eigenvalues --  -10.23223 -10.23215 -10.22379 -10.22216  -0.94657
 Alpha  occ. eigenvalues --   -0.71462  -0.57715  -0.56846  -0.48740  -0.43019
 Alpha  occ. eigenvalues --   -0.40886  -0.34411  -0.30226  -0.20456
 Alpha virt. eigenvalues --   -0.04443  -0.02993   0.00163   0.01208   0.02601
 Alpha virt. eigenvalues --    0.03567   0.06041   0.07648   0.08021   0.08630
 Alpha virt. eigenvalues --    0.10091   0.11500   0.12048   0.12798   0.13296

  Beta  occ. eigenvalues --  -10.22403 -10.22378 -10.22272 -10.22242  -0.93614
  Beta  occ. eigenvalues --   -0.71162  -0.56734  -0.55343  -0.47669  -0.42731
  Beta  occ. eigenvalues --   -0.39849  -0.32402  -0.27554
  Beta virt. eigenvalues --   -0.08657  -0.03432  -0.01997   0.00440   0.01230
  Beta virt. eigenvalues --    0.02675   0.03815   0.06309   0.07684   0.07957
  Beta virt. eigenvalues --    0.08680   0.10863   0.11538   0.12062   0.12971

 Mulliken charges and spin densities:
               1          2
     1  C   -0.025996   0.465350
     2  C   -0.446355   0.068170
     3  H    0.156452   0.004842
     4  C   -0.025996   0.465350
     5  H    0.166051  -0.000853
     6  C   -0.013241  -0.011361
     7  H    0.189084   0.008502
 Sum of Mulliken charges =  -0.00000   1.00000

 Dipole moment (field-independent basis, Debye):
    X=             -0.9271    Y=              0.3331    Z=             -0.0000  Tot=              0.9852
 Quadrupole moment (field-independent basis, Debye-Ang):
   XX=            -24.0192   YY=            -18.9605   ZZ=            -29.3978
   XY=              1.3112   XZ=              0.0000   YZ=             -0.0000

  Exact polarizability:  32.388   3.971  47.284  -0.000   0.000  52.996
 Approx polarizability:  46.850   8.289  68.648   0.000  -0.000 110.682

                      1                      2                      3
                     A'                     A"                     A'
 Frequencies --    501.3950               668.1665               765.2503
 Red. masses --      2.2977                 4.7222                 4.8199
 Frc consts  --      0.3403                 1.2421                 1.6630
 IR Inten    --     11.6776                62.8495                 1.7883

                      4                      5                      6
                     A'                     A"                     A'
 Frequencies --    869.7059               922.6999              1031.0884
 Red. masses --      1.5601                 1.5804                 1.5045
 Frc consts  --      0.6953                 0.7927                 0.9424
 IR Inten    --     20.3293                31.8654                10.8951

                      7                      8                      9
                     A"                     A"                     A'
 Frequencies --   1052.4133              1100.4625              1121.9818
 Red. masses --      1.6814                 1.2298                 5.2137
 Frc consts  --      1.0972                 0.8775                 3.8669
 IR Inten    --      0.4921                 0.4623                 0.9408

                     10                     11                     12
                     A"                     A'                     A'
 Frequencies --   1177.4432              1466.5576              1495.4648
 Red. masses --      1.6666                 2.0463                 1.8591
 Frc consts  --      1.3614                 2.5931                 2.4496
 IR Inten    --      1.0256                 0.2395                 3.2379

                     13                     14                     15
                     A'                     A'                     A'
 Frequencies --   3103.5637              3169.2785              3285.6247
 Red. masses --      1.0550                 1.1136                 1.1071
 Frc consts  --      5.9870                 6.5901                 7.0418
 IR Inten    --      7.5932                 3.3524                 1.3775

 - Thermochemistry -
 -------------------
 Temperature   298.150 Kelvin.  Pressure   1.00000 Atm.
 Atom     1 has atomic number  6 and mass  12.00000

 Molecular mass:    51.02348 amu.
 Principal axes and moments of inertia in atomic units:
                           1         2         3
     Eigenvalues --    76.20675 153.36894 211.64378
           X            0.19801   0.00000   0.98020
           Y            0.98020   0.00000  -0.19801
           Z           -0.00000   1.00000  -0.00000
 This molecule is an asymmetric top.
 Rotational symmetry number  1.
 Rotational temperatures (Kelvin)      1.13656     0.56474     0.40924
 Rotational constants (GHZ):          23.68217    11.76732     8.52726
 Zero-point vibrational energy     129980.8 (Joules/Mol)
                                   31.06616 (Kcal/Mol)
 Warning -- explicit consideration of   1 degrees of freedom as
           vibrations may cause significant error
 Vibrational temperatures:    721.39   961.34  1101.02  1251.31  1327.56
          (Kelvin)           1483.50  1514.19  1583.32  1614.28  1694.08
                             2110.05  2151.64  4465.33  4559.88  4727.28

 Zero-point correction=                           0.049507 (Hartree/Particle)
 Thermal correction to Energy=                    0.053027
 Thermal correction to Enthalpy=                  0.053972
 Thermal correction to Gibbs Free Energy=         0.023852
 Sum of electronic and zero-point Energies=           -154.007831
 Sum of electronic and thermal Energies=              -154.004311
 Sum of electronic and thermal Enthalpies=            -154.003367
 Sum of electronic and thermal Free Energies=         -154.033486

                     E (Thermal)             CV                S
                      KCal/Mol        Cal/Mol-Kelvin    Cal/Mol-Kelvin
 Total                   33.275             11.412             63.391
 Electronic               0.000              0.000              1.377
 Translational            0.889              2.981             37.712
 Rotational               0.889              2.981             22.430
 Vibrational             31.498              5.450              1.872
 Vibration     1          0.857              1.247              0.655

 Optimization completed.
    -- Stationary point found.
 Normal termination of Gaussian 09 at Sun Mar  4 21:09:08 2018.
