 Gaussian 09, Revision D.01,
 Gaussian 09:  ES64L-G09RevD.01 24-Apr-2013

 ---------------------------
 #p b3lyp/6-311++g(d,p) freq
 ---------------------------

 ---
 min
 ---
 Symbolic Z-matrix:
 Charge =  0 Multiplicity = 2

                         Standard orientation:
 ---------------------------------------------------------------------
 Center     Atomic      Atomic             Coordinates (Angstroms)
 Number     Number       Type             X           Y           Z
 ---------------------------------------------------------------------
      1          6           0       -1.553577   -0.367659   -0.009679
      2          1           0       -1.377449   -1.435728    0.035750
      3          1           0       -2.579035   -0.019624   -0.059177
      4          6           0       -0.509614    0.512555   -0.003603
      5          1           0       -0.717180    1.579766   -0.057466
      6          6           0        0.814063    0.101550    0.078459
      7          6           0        2.028073   -0.267182   -0.051695
 ---------------------------------------------------------------------

 SCF Done:  E(UB3LYP) =  -154.069679484     A.U. after   22 cycles

 The electronic state is 2-A.
 Alpha  occ. eigenvalues --  -10.24507 -10.24434 -10.20449 -10.20252  -0.85432
 Alpha  occ. eigenvalues --   -0.76438  -0.66126  -0.55131  -0.49874  -0.43526
 Alpha  occ. eigenvalues --   -0.38651  -0.29780  -0.28710  -0.28555
 Alpha virt. eigenvalues --   -0.08687  -0.02024   0.00497   0.01687   0.02767
 Alpha virt. eigenvalues --    0.04668   0.05157   0.06450   0.06885   0.07913
 Alpha virt. eigenvalues --    0.09169   0.10084   0.11028   0.11108   0.11835

  Beta  occ. eigenvalues --  -10.24645 -10.23873 -10.19902 -10.19722  -0.84585
  Beta  occ. eigenvalues --   -0.73929  -0.65150  -0.54810  -0.49455  -0.43229
  Beta  occ. eigenvalues --   -0.35875  -0.27899  -0.27853
  Beta virt. eigenvalues --   -0.18740  -0.05946  -0.01913   0.00541   0.01864
  Beta virt. eigenvalues --    0.03218   0.05175   0.06291   0.06501   0.07129
  Beta virt. eigenvalues --    0.08133   0.09465   0.10333   0.11184   0.11796

 Mulliken charges and spin densities:
               1          2
     1  C   -0.328715   0.457042
     2  H    0.166549  -0.020283
     3  H    0.159184  -0.022416
     4  C   -0.197375  -0.144980
     5  H    0.182636   0.007190
     6  C    0.281042   0.293720
     7  C   -0.263322   0.429727
 Sum of Mulliken charges =  -0.00000   1.00000

 Dipole moment (field-independent basis, Debye):
    X=             -5.0334    Y=              0.7259    Z=              0.3167  Tot=              5.0954
 Quadrupole moment (field-independent basis, Debye-Ang):
   XX=            -29.6148   YY=            -23.0189   ZZ=            -25.0340
   XY=              1.6353   XZ=              1.1549   YZ=             -0.2799

  Exact polarizability: 102.476  -3.317  39.983   5.184  -0.708  30.626
 Approx polarizability: 147.700  -3.572  55.340  -0.057   0.288  39.895

                      1                      2                      3
                      A                      A                      A
 Frequencies --    198.7380               212.0323               521.0707
 Red. masses --      4.7861                 3.7646                 2.7880
 Frc consts  --      0.1114                 0.0997                 0.4460
 IR Inten    --     11.1462                48.7895                15.2548

                      4                      5                      6
                      A                      A                      A
 Frequencies --    556.3314               912.2905               943.2724
 Red. masses --      1.6965                 2.5689                 1.1222
 Frc consts  --      0.3094                 1.2597                 0.5883
 IR Inten    --     43.9889                 0.7310                47.2318

                      7                      8                      9
                      A                      A                      A
 Frequencies --    988.6915              1107.1279              1287.1498
 Red. masses --      1.4563                 1.7057                 1.6819
 Frc consts  --      0.8387                 1.2319                 1.6418
 IR Inten    --      2.2056                 2.2297                23.6717

                     10                     11                     12
                      A                      A                      A
 Frequencies --   1411.3383              1535.4545              1883.4754
 Red. masses --      1.4805                 1.7860                11.6273
 Frc consts  --      1.7375                 2.4808                24.3023
 IR Inten    --     37.8622                33.5401                95.9914

                     13                     14                     15
                      A                      A                      A
 Frequencies --   3126.5610              3144.6545              3247.0128
 Red. masses --      1.0853                 1.0587                 1.1188
 Frc consts  --      6.2506                 6.1682                 6.9495
 IR Inten    --      4.7632                 4.3189                 0.8482

 - Thermochemistry -
 -------------------
 Temperature   298.150 Kelvin.  Pressure   1.00000 Atm.
 Atom     1 has atomic number  6 and mass  12.00000

 Molecular mass:    51.02348 amu.
 Principal axes and moments of inertia in atomic units:
                           1         2         3
     Eigenvalues --    37.33181 350.76352 387.28737
           X            0.99995   0.01002   0.00142
           Y           -0.01000   0.99986  -0.01356
           Z           -0.00155   0.01355   0.99991
 This molecule is an asymmetric top.
 Rotational symmetry number  1.
 Rotational temperatures (Kelvin)      2.32011     0.24693     0.22364
 Rotational constants (GHZ):          48.34325     5.14518     4.65995
 Zero-point vibrational energy     126057.7 (Joules/Mol)
                                   30.12851 (Kcal/Mol)
 Warning -- explicit consideration of   4 degrees of freedom as
           vibrations may cause significant error
 Vibrational temperatures:    285.94   305.07   749.70   800.44  1312.58
          (Kelvin)           1357.16  1422.50  1592.91  1851.92  2030.60
                             2209.17  2709.90  4498.42  4524.45  4671.72

 Zero-point correction=                           0.048013 (Hartree/Particle)
 Thermal correction to Energy=                    0.052529
 Thermal correction to Enthalpy=                  0.053473
 Thermal correction to Gibbs Free Energy=         0.021160
 Sum of electronic and zero-point Energies=           -154.021667
 Sum of electronic and thermal Energies=              -154.017150
 Sum of electronic and thermal Enthalpies=            -154.016206
 Sum of electronic and thermal Free Energies=         -154.048520

                     E (Thermal)             CV                S
                      KCal/Mol        Cal/Mol-Kelvin    Cal/Mol-Kelvin
 Total                   32.962             13.887             68.010
 Electronic               0.000              0.000              1.377
 Translational            0.889              2.981             37.712
 Rotational               0.889              2.981             23.143
 Vibrational             31.185              7.925              5.777
 Vibration     1          0.637              1.842              2.145
 Vibration     2          0.643              1.823              2.026
 Vibration     3          0.876              1.203              0.607
 Vibration     4          0.912              1.126              0.531

 Optimization completed.
    -- Stationary point found.
 Normal termination of Gaussian 09 at Sun Mar  4 21:10:18 2018.
