 Gaussian 09, Revision D.01,
 Gaussian 09:  ES64L-G09RevD.01 24-Apr-2013

 ---------------------------
 #p b3lyp/6-311++g(d,p) freq
 ---------------------------

 ---
 min
 ---
 Symbolic Z-matrix:
 Charge =  0 Multiplicity = 4

                         Standard orientation:
 ---------------------------------------------------------------------
 Center     Atomic      Atomic             Coordinates (Angstroms)
 Number     Number       Type             X           Y           Z
 ---------------------------------------------------------------------
      1          6           0        1.447857    0.890727   -0.000000
      2          1           0        1.984300    1.031359    0.932580
      3          1           0        1.984300    1.031359   -0.932580
      4          6           0        0.000000    0.646667    0.000000
      5          1           0       -0.676531    1.506625    0.000000
      6          6           0       -0.574277   -0.581357    0.000000
      7          6           0       -1.422258   -1.550927    0.000000
 ---------------------------------------------------------------------

 SCF Done:  E(UB3LYP) =  -153.975477776     A.U. after   19 cycles

 The electronic state is 4-A".
 Alpha  occ. eigenvalues --  -10.23609 -10.23295 -10.22854 -10.21933  -0.84782
 Alpha  occ. eigenvalues --   -0.77033  -0.66916  -0.52800  -0.47370  -0.47177
 Alpha  occ. eigenvalues --   -0.36048  -0.35843  -0.31404  -0.25242  -0.22485
 Alpha virt. eigenvalues --   -0.03268   0.00141   0.01545   0.02288   0.03466
 Alpha virt. eigenvalues --    0.03773   0.06754   0.07132   0.07712   0.08613
 Alpha virt. eigenvalues --    0.09782   0.09952   0.11850   0.12761   0.12954

  Beta  occ. eigenvalues --  -10.22923 -10.21982 -10.21745 -10.20480  -0.81464
  Beta  occ. eigenvalues --   -0.72387  -0.63145  -0.50321  -0.45128  -0.45037
  Beta  occ. eigenvalues --   -0.32447  -0.29339
  Beta virt. eigenvalues --   -0.19712  -0.10517  -0.09599  -0.01257   0.00956
  Beta virt. eigenvalues --    0.02389   0.03138   0.04616   0.05140   0.06904
  Beta virt. eigenvalues --    0.07861   0.08498   0.09972   0.10241   0.11325

 Mulliken charges and spin densities:
               1          2
     1  C   -0.335704   1.101966
     2  H    0.147080  -0.018015
     3  H    0.147080  -0.018015
     4  C   -0.444009   0.629612
     5  H    0.197601   0.041123
     6  C    0.627477   0.180738
     7  C   -0.339525   1.082591
 Sum of Mulliken charges =  -0.00000   3.00000

 Dipole moment (field-independent basis, Debye):
    X=              1.9916    Y=              2.0110    Z=             -0.0000  Tot=              2.8304
 Quadrupole moment (field-independent basis, Debye-Ang):
   XX=            -26.5674   YY=            -25.0874   ZZ=            -24.8592
   XY=             -2.7039   XZ=              0.0000   YZ=             -0.0000

  Exact polarizability:  64.093  33.801  74.453   0.000   0.000  32.403
 Approx polarizability:  87.285  45.720  97.377   0.000   0.000  41.440

                      1                      2                      3
                     A'                     A"                     A"
 Frequencies --    220.3794               266.2153               436.5800
 Red. masses --      4.1483                 1.7568                 2.0865
 Frc consts  --      0.1187                 0.0734                 0.2343
 IR Inten    --      0.1178                 1.1299                 0.0654

                      4                      5                      6
                     A'                     A'                     A"
 Frequencies --    447.4313               536.8162               585.0814
 Red. masses --      1.4334                 5.4747                 1.3729
 Frc consts  --      0.1691                 0.9295                 0.2769
 IR Inten    --     89.6745                63.5488                13.7928

                      7                      8                      9
                     A'                     A"                     A'
 Frequencies --    934.6662               964.8230              1119.7267
 Red. masses --      6.9707                 1.3441                 2.1701
 Frc consts  --      3.5879                 0.7372                 1.6031
 IR Inten    --    121.1023                 2.9357               218.4560

                     10                     11                     12
                     A'                     A'                     A'
 Frequencies --   1173.7912              1407.5078              1458.2434
 Red. masses --      1.7998                 1.6930                 2.4600
 Frc consts  --      1.4610                 1.9761                 3.0820
 IR Inten    --    576.8678               179.6043               301.3618

                     13                     14                     15
                     A'                     A'                     A"
 Frequencies --   3048.4777              3112.2486              3212.8805
 Red. masses --      1.0798                 1.0472                 1.1187
 Frc consts  --      5.9121                 5.9761                 6.8037
 IR Inten    --     17.8790                 9.6884                 2.5547

 - Thermochemistry -
 -------------------
 Temperature   298.150 Kelvin.  Pressure   1.00000 Atm.
 Atom     1 has atomic number  6 and mass  12.00000

 Molecular mass:    51.02348 amu.
 Principal axes and moments of inertia in atomic units:
                           1         2         3
     Eigenvalues --    33.16966 383.66854 404.31790
           X            0.74202  -0.67038   0.00000
           Y            0.67038   0.74202   0.00000
           Z            0.00000  -0.00000   1.00000
 This molecule is an asymmetric top.
 Rotational symmetry number  1.
 Rotational temperatures (Kelvin)      2.61124     0.22575     0.21422
 Rotational constants (GHZ):          54.40939     4.70391     4.46367
 Zero-point vibrational energy     113195.9 (Joules/Mol)
                                   27.05446 (Kcal/Mol)
 Warning -- explicit consideration of   6 degrees of freedom as
           vibrations may cause significant error
 Vibrational temperatures:    317.08   383.02   628.14   643.75   772.36
          (Kelvin)            841.80  1344.77  1388.16  1611.03  1688.82
                             2025.09  2098.08  4386.07  4477.83  4622.61

 Zero-point correction=                           0.043114 (Hartree/Particle)
 Thermal correction to Energy=                    0.047993
 Thermal correction to Enthalpy=                  0.048937
 Thermal correction to Gibbs Free Energy=         0.015556
 Sum of electronic and zero-point Energies=           -153.932364
 Sum of electronic and thermal Energies=              -153.927485
 Sum of electronic and thermal Enthalpies=            -153.926541
 Sum of electronic and thermal Free Energies=         -153.959922

                     E (Thermal)             CV                S
                      KCal/Mol        Cal/Mol-Kelvin    Cal/Mol-Kelvin
 Total                   30.116             16.044             70.255
 Electronic               0.000              0.000              2.755
 Translational            0.889              2.981             37.712
 Rotational               0.889              2.981             23.158
 Vibrational             28.338             10.082              6.630
 Vibration     1          0.647              1.810              1.956
 Vibration     2          0.672              1.735              1.621
 Vibration     3          0.797              1.390              0.837
 Vibration     4          0.807              1.367              0.804
 Vibration     5          0.892              1.169              0.572
 Vibration     6          0.942              1.064              0.476

 Optimization completed.
    -- Stationary point found.
 Normal termination of Gaussian 09 at Sun Mar  4 21:09:23 2018.
