 Gaussian 09, Revision D.01,
 Gaussian 09:  ES64L-G09RevD.01 24-Apr-2013

 ---------------------------
 #p b3lyp/6-311++g(d,p) freq
 ---------------------------

 ---
 min
 ---
 Symbolic Z-matrix:
 Charge =  0 Multiplicity = 4

                         Standard orientation:
 ---------------------------------------------------------------------
 Center     Atomic      Atomic             Coordinates (Angstroms)
 Number     Number       Type             X           Y           Z
 ---------------------------------------------------------------------
      1          6           0       -1.151805    1.315944    0.000000
      2          1           0       -1.455838    2.353367    0.000000
      3          6           0        0.000000    0.611711    0.000000
      4          1           0        0.955010    1.146735    0.000000
      5          6           0        0.066742   -0.803764    0.000000
      6          1           0       -0.886686   -1.344737    0.000000
      7          6           0        1.316316   -1.483119    0.000000
 ---------------------------------------------------------------------

 SCF Done:  E(UB3LYP) =  -153.958115177     A.U. after   15 cycles

 The electronic state is 4-A".
 Alpha  occ. eigenvalues --  -10.26445 -10.23900 -10.22672 -10.20637  -0.86160
 Alpha  occ. eigenvalues --   -0.76522  -0.62570  -0.57020  -0.50750  -0.45867
 Alpha  occ. eigenvalues --   -0.38751  -0.30487  -0.28683  -0.28654  -0.20154
 Alpha virt. eigenvalues --   -0.08144  -0.01298   0.00792   0.00830   0.01767
 Alpha virt. eigenvalues --    0.04778   0.06492   0.06618   0.07674   0.09006
 Alpha virt. eigenvalues --    0.09488   0.10456   0.11339   0.11535   0.12683

  Beta  occ. eigenvalues --  -10.24244 -10.24005 -10.22116 -10.18899  -0.83900
  Beta  occ. eigenvalues --   -0.71958  -0.58885  -0.54821  -0.48454  -0.43666
  Beta  occ. eigenvalues --   -0.35355  -0.26004
  Beta virt. eigenvalues --   -0.17569  -0.13001  -0.04668  -0.03712  -0.01003
  Beta virt. eigenvalues --    0.01185   0.02008   0.02961   0.05573   0.06836
  Beta virt. eigenvalues --    0.07597   0.08151   0.09574   0.09707   0.10985

 Mulliken charges and spin densities:
               1          2
     1  C   -0.189004   1.463725
     2  H    0.195673  -0.009925
     3  C    0.026100  -0.165112
     4  H    0.185244   0.073567
     5  C    0.021977   0.400929
     6  H    0.146841   0.029752
     7  C   -0.386831   1.207064
 Sum of Mulliken charges =  -0.00000   3.00000

 Dipole moment (field-independent basis, Debye):
    X=             -3.0523    Y=              3.6469    Z=              0.0000  Tot=              4.7557
 Quadrupole moment (field-independent basis, Debye-Ang):
   XX=            -29.6182   YY=            -24.6910   ZZ=            -25.3459
   XY=              4.2236   XZ=              0.0000   YZ=              0.0000

  Exact polarizability:  61.658 -22.302  70.469   0.000  -0.000  36.143
 Approx polarizability:  89.190 -36.824  98.941  -0.000  -0.000  43.062

                      1                      2                      3
                     A"                     A'                     A'
 Frequencies --    109.3399               297.3128               494.1951
 Red. masses --      5.1180                 3.5589                 4.6355
 Frc consts  --      0.0361                 0.1854                 0.6670
 IR Inten    --     37.1702                15.0412                 6.6694

                      4                      5                      6
                     A"                     A"                     A'
 Frequencies --    563.2450               723.9390               802.9425
 Red. masses --      1.4654                 1.2326                 1.3492
 Frc consts  --      0.2739                 0.3806                 0.5125
 IR Inten    --    107.5941                 4.4387                16.1348

                      7                      8                      9
                     A"                     A'                     A'
 Frequencies --    924.8833              1115.9243              1213.7024
 Red. masses --      1.2780                 3.1241                 1.6160
 Frc consts  --      0.6441                 2.2921                 1.4026
 IR Inten    --     14.8496                52.8145                 2.9649

                     10                     11                     12
                     A'                     A'                     A'
 Frequencies --   1226.7793              1334.1909              1475.2004
 Red. masses --      1.3455                 5.0453                 3.5709
 Frc consts  --      1.1930                 5.2915                 4.5786
 IR Inten    --     19.4552                67.8643                 3.5511

                     13                     14                     15
                     A'                     A'                     A'
 Frequencies --   3031.9241              3057.5923              3233.1678
 Red. masses --      1.0842                 1.0833                 1.0975
 Frc consts  --      5.8719                 5.9669                 6.7593
 IR Inten    --     19.3000                 1.8293                 2.3385

 - Thermochemistry -
 -------------------
 Temperature   298.150 Kelvin.  Pressure   1.00000 Atm.
 Atom     1 has atomic number  6 and mass  12.00000

 Molecular mass:    51.02348 amu.
 Principal axes and moments of inertia in atomic units:
                           1         2         3
     Eigenvalues --    31.57682 356.36498 387.94180
           X           -0.59069   0.80690   0.00000
           Y            0.80690   0.59069   0.00000
           Z           -0.00000   0.00000   1.00000
 This molecule is an asymmetric top.
 Rotational symmetry number  1.
 Rotational temperatures (Kelvin)      2.74296     0.24305     0.22326
 Rotational constants (GHZ):          57.15400     5.06431     4.65209
 Zero-point vibrational energy     117260.0 (Joules/Mol)
                                   28.02581 (Kcal/Mol)
 Warning -- explicit consideration of   4 degrees of freedom as
           vibrations may cause significant error
 Vibrational temperatures:    157.32   427.77   711.04   810.38  1041.59
          (Kelvin)           1155.25  1330.70  1605.56  1746.24  1765.06
                             1919.60  2122.48  4362.26  4399.19  4651.80

 Zero-point correction=                           0.044662 (Hartree/Particle)
 Thermal correction to Energy=                    0.049344
 Thermal correction to Enthalpy=                  0.050289
 Thermal correction to Gibbs Free Energy=         0.016960
 Sum of electronic and zero-point Energies=           -153.913453
 Sum of electronic and thermal Energies=              -153.908771
 Sum of electronic and thermal Enthalpies=            -153.907827
 Sum of electronic and thermal Free Energies=         -153.941155

                     E (Thermal)             CV                S
                      KCal/Mol        Cal/Mol-Kelvin    Cal/Mol-Kelvin
 Total                   30.964             14.718             70.146
 Electronic               0.000              0.000              2.755
 Translational            0.889              2.981             37.712
 Rotational               0.889              2.981             22.994
 Vibrational             29.187              8.756              6.684
 Vibration     1          0.606              1.942              3.281
 Vibration     2          0.691              1.679              1.432
 Vibration     3          0.850              1.263              0.673
 Vibration     4          0.919              1.111              0.517

 Normal termination of Gaussian 09 at Sun Mar  4 21:09:18 2018.
