 Gaussian 09, Revision D.01,
 Gaussian 09:  ES64L-G09RevD.01 24-Apr-2013

 ---------------------------
 #p b3lyp/6-311++g(d,p) freq
 ---------------------------

 ---
 min
 ---
 Symbolic Z-matrix:
 Charge =  0 Multiplicity = 2

                         Standard orientation:
 ---------------------------------------------------------------------
 Center     Atomic      Atomic             Coordinates (Angstroms)
 Number     Number       Type             X           Y           Z
 ---------------------------------------------------------------------
      1          6           0       -0.368706    1.830981   -0.000000
      2          1           0       -0.707976    2.837911   -0.000000
      3          6           0       -0.000000    0.684285   -0.000000
      4          6           0        0.490357   -0.652467    0.000000
      5          1           0        1.581091   -0.760834    0.000000
      6          6           0       -0.252975   -1.741054    0.000000
      7          1           0       -0.085176   -2.807547    0.000000
 ---------------------------------------------------------------------

 SCF Done:  E(UB3LYP) =  -154.093050430     A.U. after   17 cycles

 The electronic state is 2-A'.
 Alpha  occ. eigenvalues --  -10.22004 -10.21568 -10.18898 -10.17750  -0.82338
 Alpha  occ. eigenvalues --   -0.74872  -0.62952  -0.53779  -0.49898  -0.48248
 Alpha  occ. eigenvalues --   -0.35467  -0.29336  -0.26628  -0.26400
 Alpha virt. eigenvalues --   -0.05078  -0.00750   0.00818   0.01890   0.02857
 Alpha virt. eigenvalues --    0.05427   0.05574   0.06925   0.07415   0.08804
 Alpha virt. eigenvalues --    0.10080   0.10832   0.11481   0.12413   0.12494

  Beta  occ. eigenvalues --  -10.21729 -10.20378 -10.18764 -10.17823  -0.81403
  Beta  occ. eigenvalues --   -0.74186  -0.61161  -0.53379  -0.48499  -0.47082
  Beta  occ. eigenvalues --   -0.35326  -0.29179  -0.25939
  Beta virt. eigenvalues --   -0.10130  -0.04021  -0.00549   0.00846   0.02016
  Beta virt. eigenvalues --    0.02958   0.05590   0.06071   0.06918   0.07431
  Beta virt. eigenvalues --    0.09592   0.10185   0.10759   0.11537   0.12580

 Mulliken charges and spin densities:
               1          2
     1  C   -1.629330  -0.175257
     2  H    0.118750   0.002423
     3  C    1.627877   0.027443
     4  C   -0.190161   0.001144
     5  H    0.167618   0.083750
     6  C   -0.264322   1.054089
     7  H    0.169567   0.006408
 Sum of Mulliken charges =  -0.00000   1.00000

 Dipole moment (field-independent basis, Debye):
    X=              0.7506    Y=             -0.4715    Z=              0.0000  Tot=              0.8864
 Quadrupole moment (field-independent basis, Debye-Ang):
   XX=            -23.7258   YY=            -16.5888   ZZ=            -26.3161
   XY=             -2.5237   XZ=             -0.0000   YZ=              0.0000

  Exact polarizability:  35.069  -2.284  76.823  -0.001  -0.000  27.511
 Approx polarizability:  49.389  -2.853 125.681   0.000  -0.000  35.398

                      1                      2                      3
                     A'                     A"                     A'
 Frequencies --    225.0951               329.5365               532.9818
 Red. masses --      3.5134                 2.5993                 3.4145
 Frc consts  --      0.1049                 0.1663                 0.5715
 IR Inten    --      8.0294                27.9671                 2.8899

                      4                      5                      6
                     A"                     A"                     A'
 Frequencies --    650.0965               670.6077               691.8629
 Red. masses --      1.3204                 1.3271                 1.2601
 Frc consts  --      0.3288                 0.3516                 0.3554
 IR Inten    --     73.0869                18.3504                51.1870

                      7                      8                      9
                     A'                     A"                     A'
 Frequencies --    795.4264               834.5882              1007.9494
 Red. masses --      1.6619                 1.5599                 3.0797
 Frc consts  --      0.6195                 0.6402                 1.8434
 IR Inten    --     21.3225                 0.0016                 7.3235

                     10                     11                     12
                     A'                     A'                     A'
 Frequencies --   1260.1181              1635.0371              2203.3684
 Red. masses --      1.2444                 7.0346                 6.0830
 Frc consts  --      1.1642                11.0802                17.3998
 IR Inten    --      2.0973                 3.6723                 0.6984

                     13                     14                     15
                     A'                     A'                     A'
 Frequencies --   3024.9236              3247.6160              3476.2053
 Red. masses --      1.0806                 1.1027                 1.1590
 Frc consts  --      5.8257                 6.8525                 8.2518
 IR Inten    --      4.6309                 2.5778                75.5423

 - Thermochemistry -
 -------------------
 Temperature   298.150 Kelvin.  Pressure   1.00000 Atm.
 Atom     1 has atomic number  6 and mass  12.00000

 Molecular mass:    51.02348 amu.
 Principal axes and moments of inertia in atomic units:
                           1         2         3
     Eigenvalues --    26.22148 374.70586 400.92735
           X           -0.09928   0.99506   0.00000
           Y            0.99506   0.09928   0.00000
           Z            0.00000   0.00000   1.00000
 This molecule is an asymmetric top.
 Rotational symmetry number  1.
 Rotational temperatures (Kelvin)      3.30316     0.23115     0.21603
 Rotational constants (GHZ):          68.82681     4.81642     4.50142
 Zero-point vibrational energy     123128.1 (Joules/Mol)
                                   29.42832 (Kcal/Mol)
 Warning -- explicit consideration of   3 degrees of freedom as
           vibrations may cause significant error
 Vibrational temperatures:    323.86   474.13   766.84   935.34   964.85
          (Kelvin)            995.44  1144.44  1200.78  1450.21  1813.03
                             2352.45  3170.15  4352.18  4672.59  5001.48

 Zero-point correction=                           0.046897 (Hartree/Particle)
 Thermal correction to Energy=                    0.051413
 Thermal correction to Enthalpy=                  0.052358
 Thermal correction to Gibbs Free Energy=         0.020384
 Sum of electronic and zero-point Energies=           -154.046153
 Sum of electronic and thermal Energies=              -154.041637
 Sum of electronic and thermal Enthalpies=            -154.040693
 Sum of electronic and thermal Free Energies=         -154.072667

                     E (Thermal)             CV                S
                      KCal/Mol        Cal/Mol-Kelvin    Cal/Mol-Kelvin
 Total                   32.262             15.060             67.295
 Electronic               0.000              0.000              1.377
 Translational            0.889              2.981             37.712
 Rotational               0.889              2.981             22.892
 Vibrational             30.485              9.099              5.313
 Vibration     1          0.650              1.803              1.918
 Vibration     2          0.712              1.616              1.262
 Vibration     3          0.888              1.177              0.581

 Optimization completed.
    -- Stationary point found.
 Normal termination of Gaussian 09 at Sun Mar  4 21:08:55 2018.
