 Gaussian 09, Revision D.01,
 Gaussian 09:  ES64L-G09RevD.01 24-Apr-2013

 ---------------------------
 #p b3lyp/6-311++g(d,p) freq
 ---------------------------

 ---
 min
 ---
 Symbolic Z-matrix:
 Charge =  1 Multiplicity = 3

                         Standard orientation:
 ---------------------------------------------------------------------
 Center     Atomic      Atomic             Coordinates (Angstroms)
 Number     Number       Type             X           Y           Z
 ---------------------------------------------------------------------
      1          6           0       -0.142305    1.132343   -0.000000
      2          1           0       -1.035607    1.752748   -0.000000
      3          1           0        0.800879    1.674546   -0.000000
      4          6           0       -0.142305   -0.126726    0.842212
      5          6           0        0.361641   -1.093228    0.000000
      6          1           0        0.626367   -2.141271    0.000000
      7          6           0       -0.142305   -0.126726   -0.842212
 ---------------------------------------------------------------------

 SCF Done:  E(UB3LYP) =  -153.693494432     A.U. after   15 cycles

 The electronic state is 3-A".
 Alpha  occ. eigenvalues --  -10.54907 -10.54898 -10.49537 -10.47511  -1.23538
 Alpha  occ. eigenvalues --   -0.97638  -0.86147  -0.81194  -0.74057  -0.69572
 Alpha  occ. eigenvalues --   -0.67569  -0.63271  -0.59453  -0.48833
 Alpha virt. eigenvalues --   -0.30885  -0.28507  -0.15406  -0.14468  -0.13328
 Alpha virt. eigenvalues --   -0.12160  -0.11280  -0.08680  -0.07451  -0.06884
 Alpha virt. eigenvalues --   -0.05214  -0.04793  -0.03934  -0.03103  -0.01688

  Beta  occ. eigenvalues --  -10.52888 -10.52882 -10.49720 -10.47424  -1.21547
  Beta  occ. eigenvalues --   -0.97213  -0.80892  -0.79770  -0.72066  -0.68827
  Beta  occ. eigenvalues --   -0.65719  -0.58342
  Beta virt. eigenvalues --   -0.45154  -0.32576  -0.26747  -0.24985  -0.15125
  Beta virt. eigenvalues --   -0.13655  -0.13242  -0.12025  -0.10781  -0.08408
  Beta virt. eigenvalues --   -0.07350  -0.06279  -0.04369  -0.04215  -0.02740

 Mulliken charges and spin densities:
               1          2
     1  C   -0.478327   0.059244
     2  H    0.244432   0.005903
     3  H    0.252889   0.006068
     4  C    0.353338   0.999394
     5  C   -0.017660  -0.088271
     6  H    0.291990   0.018269
     7  C    0.353338   0.999394
 Sum of Mulliken charges =   1.00000   2.00000

 Dipole moment (field-independent basis, Debye):
    X=              0.5828    Y=             -0.2844    Z=             -0.0000  Tot=              0.6485
 Quadrupole moment (field-independent basis, Debye-Ang):
   XX=            -19.8239   YY=            -11.1516   ZZ=            -19.2557
   XY=             -2.2515   XZ=              0.0000   YZ=             -0.0000

  Exact polarizability:  25.743  -4.213  39.936  -0.000   0.000  31.686
 Approx polarizability:  37.633  -8.564  59.089   0.000   0.000  62.819

                      1                      2                      3
                     A'                     A"                     A'
 Frequencies --    475.9454               635.0063               828.7221
 Red. masses --      2.2715                 4.5854                 2.4105
 Frc consts  --      0.3032                 1.0894                 0.9754
 IR Inten    --     15.7240                 4.2743                21.1290

                      4                      5                      6
                     A'                     A"                     A"
 Frequencies --    886.2238               923.4844              1026.7431
 Red. masses --      2.3233                 1.9294                 1.3408
 Frc consts  --      1.0751                 0.9695                 0.8328
 IR Inten    --     31.4569                19.3971                 1.2187

                      7                      8                      9
                     A'                     A"                     A'
 Frequencies --   1043.3192              1074.7751              1114.1806
 Red. masses --      1.5161                 1.2898                 5.0124
 Frc consts  --      0.9723                 0.8778                 3.6661
 IR Inten    --      6.6090                 1.7628                 0.2845

                     10                     11                     12
                     A"                     A'                     A'
 Frequencies --   1205.4919              1464.2446              1509.9103
 Red. masses --      1.7157                 1.5139                 2.6784
 Frc consts  --      1.4690                 1.9123                 3.5977
 IR Inten    --     57.1761                 4.6953                 4.7121

                     13                     14                     15
                     A'                     A'                     A'
 Frequencies --   3105.1434              3193.4859              3253.9336
 Red. masses --      1.0530                 1.1190                 1.1109
 Frc consts  --      5.9818                 6.7240                 6.9304
 IR Inten    --     28.2786                24.9734               106.6512

 - Thermochemistry -
 -------------------
 Temperature   298.150 Kelvin.  Pressure   1.00000 Atm.
 Atom     1 has atomic number  6 and mass  12.00000

 Molecular mass:    51.02348 amu.
 Principal axes and moments of inertia in atomic units:
                           1         2         3
     Eigenvalues --    70.41713 160.85148 212.01986
           X           -0.20846   0.00000   0.97803
           Y            0.97803   0.00000   0.20846
           Z           -0.00000   1.00000  -0.00000
 This molecule is an asymmetric top.
 Rotational symmetry number  1.
 Rotational temperatures (Kelvin)      1.23001     0.53847     0.40852
 Rotational constants (GHZ):          25.62929    11.21992     8.51213
 Zero-point vibrational energy     130037.7 (Joules/Mol)
                                   31.07976 (Kcal/Mol)
 Warning -- explicit consideration of   1 degrees of freedom as
           vibrations may cause significant error
 Vibrational temperatures:    684.78   913.63  1192.34  1275.08  1328.69
          (Kelvin)           1477.25  1501.10  1546.36  1603.06  1734.43
                             2106.72  2172.42  4467.60  4594.71  4681.68

 Zero-point correction=                           0.049529 (Hartree/Particle)
 Thermal correction to Energy=                    0.053065
 Thermal correction to Enthalpy=                  0.054009
 Thermal correction to Gibbs Free Energy=         0.023493
 Sum of electronic and zero-point Energies=           -153.643966
 Sum of electronic and thermal Energies=              -153.640430
 Sum of electronic and thermal Enthalpies=            -153.639486
 Sum of electronic and thermal Free Energies=         -153.670001

                     E (Thermal)             CV                S
                      KCal/Mol        Cal/Mol-Kelvin    Cal/Mol-Kelvin
 Total                   33.299             11.426             64.226
 Electronic               0.000              0.000              2.183
 Translational            0.889              2.981             37.712
 Rotational               0.889              2.981             22.401
 Vibrational             31.521              5.465              1.930
 Vibration     1          0.833              1.303              0.721

 Optimization completed.
    -- Stationary point found.
 Normal termination of Gaussian 09 at Thu Jan 24 15:51:32 2019.
