 Gaussian 09, Revision D.01,
 Gaussian 09:  ES64L-G09RevD.01 24-Apr-2013

 ---------------------------
 #p b3lyp/6-311++g(d,p) freq
 ---------------------------

 ---
 min
 ---
 Symbolic Z-matrix:
 Charge =  1 Multiplicity = 3

                         Standard orientation:
 ---------------------------------------------------------------------
 Center     Atomic      Atomic             Coordinates (Angstroms)
 Number     Number       Type             X           Y           Z
 ---------------------------------------------------------------------
      1          6           0       -0.091714    1.740734    0.000000
      2          1           0       -1.178610    1.969038    0.000000
      3          1           0        0.325350    2.187669    0.911645
      4          1           0        0.325350    2.187669   -0.911645
      5          6           0        0.000000    0.333735    0.000000
      6          6           0        0.057018   -0.935245   -0.000000
      7          6           0        0.122682   -2.196620   -0.000000
 ---------------------------------------------------------------------

 SCF Done:  E(UB3LYP) =  -153.686801090     A.U. after   16 cycles

 The electronic state is 3-A".
 Alpha  occ. eigenvalues --  -10.55911 -10.52270 -10.46510 -10.42950  -1.09250
 Alpha  occ. eigenvalues --   -1.02876  -0.93958  -0.73049  -0.68916  -0.67697
 Alpha  occ. eigenvalues --   -0.67549  -0.61370  -0.59679  -0.48102
 Alpha virt. eigenvalues --   -0.40100  -0.17370  -0.16867  -0.16201  -0.12258
 Alpha virt. eigenvalues --   -0.10880  -0.10691  -0.08436  -0.06766  -0.06748
 Alpha virt. eigenvalues --   -0.05906  -0.05623  -0.05130  -0.03446  -0.01129

  Beta  occ. eigenvalues --  -10.52547 -10.51429 -10.46645 -10.43002  -1.07648
  Beta  occ. eigenvalues --   -1.00722  -0.91504  -0.72211  -0.67678  -0.67190
  Beta  occ. eigenvalues --   -0.58451  -0.57444
  Beta virt. eigenvalues --   -0.43757  -0.36701  -0.34282  -0.16687  -0.14557
  Beta virt. eigenvalues --   -0.13363  -0.11771  -0.10905  -0.10644  -0.07641
  Beta virt. eigenvalues --   -0.06306  -0.05572  -0.05278  -0.05240  -0.04914

 Mulliken charges and spin densities:
               1          2
     1  C   -0.392666  -0.037648
     2  H    0.253841  -0.014894
     3  H    0.244064   0.031343
     4  H    0.244064   0.031343
     5  C    0.242728   0.523536
     6  C    0.374855  -0.059750
     7  C    0.033113   1.526071
 Sum of Mulliken charges =   1.00000   2.00000

 Dipole moment (field-independent basis, Debye):
    X=             -0.2150    Y=              0.1959    Z=              0.0000  Tot=              0.2908
 Quadrupole moment (field-independent basis, Debye-Ang):
   XX=            -19.6900   YY=             -1.3946   ZZ=            -21.1556
   XY=             -1.4265   XZ=              0.0000   YZ=              0.0000

  Exact polarizability:  22.756  -3.562  74.904   0.000   0.000  23.716
 Approx polarizability:  31.344  -8.381 150.041   0.000   0.000  29.503

                      1                      2                      3
                     A"                     A'                     A"
 Frequencies --    166.3055               197.1926               356.8011
 Red. masses --      3.6897                 5.0396                11.4954
 Frc consts  --      0.0601                 0.1155                 0.8622
 IR Inten    --      8.9380                 6.8677                 3.4868

                      4                      5                      6
                     A'                     A"                     A'
 Frequencies --    443.2053               550.0299               811.9220
 Red. masses --      3.0903                 1.3673                 4.3541
 Frc consts  --      0.3577                 0.2437                 1.6911
 IR Inten    --      0.3797                92.6009                12.0161

                      7                      8                      9
                     A'                     A"                     A'
 Frequencies --    935.0170              1271.9147              1317.3545
 Red. masses --      1.8395                 1.0415                 1.1382
 Frc consts  --      0.9475                 0.9927                 1.1638
 IR Inten    --     29.2173                34.6602                73.9035

                     10                     11                     12
                     A'                     A'                     A'
 Frequencies --   1421.5373              1558.1333              1984.3581
 Red. masses --      1.1016                10.9697                11.6134
 Frc consts  --      1.3115                15.6911                26.9432
 IR Inten    --      8.2461                14.1798               551.2329

                     13                     14                     15
                     A'                     A'                     A"
 Frequencies --   2922.0162              3012.2767              3051.7029
 Red. masses --      1.0560                 1.0663                 1.0945
 Frc consts  --      5.3124                 5.7008                 6.0053
 IR Inten    --    163.6219                33.1028                41.3588

 - Thermochemistry -
 -------------------
 Temperature   298.150 Kelvin.  Pressure   1.00000 Atm.
 Atom     1 has atomic number  6 and mass  12.00000

 Molecular mass:    51.02348 amu.
 Principal axes and moments of inertia in atomic units:
                           1         2         3
     Eigenvalues --    11.53154 431.39319 431.82616
           X           -0.05641   0.00000   0.99841
           Y            0.99841   0.00000   0.05641
           Z           -0.00000   1.00000  -0.00000
 This molecule is an asymmetric top.
 Rotational symmetry number  1.
 Rotational temperatures (Kelvin)      7.51104     0.20078     0.20058
 Rotational constants (GHZ):         156.50477     4.18352     4.17932
 Zero-point vibrational energy     119625.2 (Joules/Mol)
                                   28.59110 (Kcal/Mol)
 Warning -- explicit consideration of   5 degrees of freedom as
           vibrations may cause significant error
 Vibrational temperatures:    239.28   283.72   513.36   637.67   791.37
          (Kelvin)           1168.17  1345.28  1830.00  1895.38  2045.27
                             2241.80  2855.05  4204.12  4333.99  4390.71

 Zero-point correction=                           0.045563 (Hartree/Particle)
 Thermal correction to Energy=                    0.050546
 Thermal correction to Enthalpy=                  0.051490
 Thermal correction to Gibbs Free Energy=         0.018363
 Sum of electronic and zero-point Energies=           -153.641238
 Sum of electronic and thermal Energies=              -153.636255
 Sum of electronic and thermal Enthalpies=            -153.635311
 Sum of electronic and thermal Free Energies=         -153.668438

                     E (Thermal)             CV                S
                      KCal/Mol        Cal/Mol-Kelvin    Cal/Mol-Kelvin
 Total                   31.718             15.326             69.720
 Electronic               0.000              0.000              2.183
 Translational            0.889              2.981             37.712
 Rotational               0.889              2.981             22.290
 Vibrational             29.940              9.365              7.535
 Vibration     1          0.624              1.884              2.477
 Vibration     2          0.637              1.844              2.159
 Vibration     3          0.732              1.561              1.136
 Vibration     4          0.803              1.376              0.817
 Vibration     5          0.905              1.140              0.544

 Optimization completed.
    -- Stationary point found.
 Normal termination of Gaussian 09 at Thu Jan 24 15:51:50 2019.
