 Gaussian 09, Revision D.01,
 Gaussian 09:  ES64L-G09RevD.01 24-Apr-2013

 ---------------------------
 #p b3lyp/6-311++g(d,p) freq
 ---------------------------

 ---
 min
 ---
 Symbolic Z-matrix:
 Charge =  0 Multiplicity = 2

                         Standard orientation:
 ---------------------------------------------------------------------
 Center     Atomic      Atomic             Coordinates (Angstroms)
 Number     Number       Type             X           Y           Z
 ---------------------------------------------------------------------
      1          6           0       -0.003494    0.000442   -0.004443
      2          6           0        1.197839   -0.681355    0.000638
      3          6           0        1.198585    0.681050    0.000647
      4          6           0       -1.470146    0.000538   -0.003241
      5          1           0       -1.855200   -0.872706   -0.535241
      6          1           0       -1.823954   -0.046646    1.031419
      7          1           0       -1.857548    0.915306   -0.457784
 ---------------------------------------------------------------------

 SCF Done:  E(UB3LYP) =  -154.055689317     A.U. after   14 cycles

 The electronic state is 2-A.
 Alpha  occ. eigenvalues --  -10.27402 -10.22089 -10.22020 -10.21845  -0.95333
 Alpha  occ. eigenvalues --   -0.78605  -0.55040  -0.52399  -0.47435  -0.43881
 Alpha  occ. eigenvalues --   -0.42981  -0.37841  -0.28771  -0.25627
 Alpha virt. eigenvalues --   -0.04724  -0.01823  -0.01517   0.02410   0.02598
 Alpha virt. eigenvalues --    0.04230   0.05364   0.06204   0.06775   0.08291
 Alpha virt. eigenvalues --    0.08524   0.10717   0.12113   0.12355   0.13088

  Beta  occ. eigenvalues --  -10.26845 -10.21877 -10.21348 -10.21274  -0.94413
  Beta  occ. eigenvalues --   -0.78371  -0.53919  -0.50190  -0.47306  -0.42707
  Beta  occ. eigenvalues --   -0.39837  -0.37287  -0.26031
  Beta virt. eigenvalues --   -0.14113  -0.03844  -0.01451  -0.00591   0.02575
  Beta virt. eigenvalues --    0.02656   0.04444   0.05564   0.06423   0.06822
  Beta virt. eigenvalues --    0.08350   0.08701   0.10804   0.12397   0.12483

 Mulliken charges and spin densities:
               1          2
     1  C    0.585127   0.439370
     2  C   -0.277987   0.246963
     3  C   -0.275126   0.246941
     4  C   -0.565528   0.033082
     5  H    0.176105   0.015886
     6  H    0.180968   0.000295
     7  H    0.176441   0.017463
 Sum of Mulliken charges =  -0.00000   1.00000

 Dipole moment (field-independent basis, Debye):
    X=             -3.4610    Y=             -0.0077    Z=              0.0545  Tot=              3.4615
 Quadrupole moment (field-independent basis, Debye-Ang):
   XX=            -24.3166   YY=            -27.9621   ZZ=            -23.2376
   XY=              0.0067   XZ=             -0.0837   YZ=             -0.0003

  Exact polarizability:  52.604   0.026  58.165  -0.080   0.001  31.253
 Approx polarizability:  75.301   0.058  88.174  -0.197  -0.001  44.471

                      1                      2                      3
                      A                      A                      A
 Frequencies --     32.7833               317.0670               392.7410
 Red. masses --      1.2672                 3.5402                 3.2766
 Frc consts  --      0.0008                 0.2097                 0.2978
 IR Inten    --      0.2636                46.0747                 1.4594

                      4                      5                      6
                      A                      A                      A
 Frequencies --    651.8947               787.3727              1018.5799
 Red. masses --     11.6858                 4.5607                 1.5130
 Frc consts  --      2.9259                 1.6659                 0.9249
 IR Inten    --    391.9544                 2.8644                 6.4664

                      7                      8                      9
                      A                      A                      A
 Frequencies --   1036.2957              1337.8391              1395.9449
 Red. masses --      1.4143                 5.6171                 1.3443
 Frc consts  --      0.8948                 5.9234                 1.5434
 IR Inten    --     27.1869                51.1796                20.9949

                     10                     11                     12
                      A                      A                      A
 Frequencies --   1455.9565              1465.9936              1713.9112
 Red. masses --      1.0369                 1.0503                11.8547
 Frc consts  --      1.2951                 1.3300                20.5171
 IR Inten    --      6.9878                10.9729                49.4597

                     13                     14                     15
                      A                      A                      A
 Frequencies --   3031.6632              3097.7143              3112.0761
 Red. masses --      1.0338                 1.0992                 1.1033
 Frc consts  --      5.5980                 6.2144                 6.2959
 IR Inten    --      0.6603                 2.3357                 2.9651

 - Thermochemistry -
 -------------------
 Temperature   298.150 Kelvin.  Pressure   1.00000 Atm.
 Atom     1 has atomic number  6 and mass  12.00000

 Molecular mass:    51.02348 amu.
 Principal axes and moments of inertia in atomic units:
                           1         2         3
     Eigenvalues --    51.14979 255.94972 295.86923
           X            1.00000   0.00008  -0.00061
           Y           -0.00008   1.00000  -0.00000
           Z            0.00061   0.00000   1.00000
 This molecule is an asymmetric top.
 Rotational symmetry number  1.
 Rotational temperatures (Kelvin)      1.69334     0.33840     0.29274
 Rotational constants (GHZ):          35.28345     7.05116     6.09979
 Zero-point vibrational energy     124697.7 (Joules/Mol)
                                   29.80347 (Kcal/Mol)
 Warning -- explicit consideration of   3 degrees of freedom as
           vibrations may cause significant error
 Vibrational temperatures:     47.17   456.19   565.07   937.93  1132.85
          (Kelvin)           1465.51  1491.00  1924.85  2008.45  2094.79
                             2109.24  2465.93  4361.88  4456.91  4477.58

 Zero-point correction=                           0.047495 (Hartree/Particle)
 Thermal correction to Energy=                    0.052227
 Thermal correction to Enthalpy=                  0.053172
 Thermal correction to Gibbs Free Energy=         0.019550
 Sum of electronic and zero-point Energies=           -154.008194
 Sum of electronic and thermal Energies=              -154.003462
 Sum of electronic and thermal Enthalpies=            -154.002518
 Sum of electronic and thermal Free Energies=         -154.036139

                     E (Thermal)             CV                S
                      KCal/Mol        Cal/Mol-Kelvin    Cal/Mol-Kelvin
 Total                   32.773             13.808             70.762
 Electronic               0.000              0.000              1.377
 Translational            0.889              2.981             37.712
 Rotational               0.889              2.981             22.876
 Vibrational             30.996              7.847              8.796
 Vibration     1          0.594              1.983              5.653
 Vibration     2          0.704              1.641              1.325
 Vibration     3          0.760              1.486              0.990

 Normal termination of Gaussian 09 at Sun Mar  4 21:10:02 2018.
