 Gaussian 09, Revision D.01,
 Gaussian 09:  ES64L-G09RevD.01 24-Apr-2013

 ---------------------------
 #p b3lyp/6-311++g(d,p) freq
 ---------------------------

 ---
 min
 ---
 Symbolic Z-matrix:
 Charge =  1 Multiplicity = 3

                         Standard orientation:
 ---------------------------------------------------------------------
 Center     Atomic      Atomic             Coordinates (Angstroms)
 Number     Number       Type             X           Y           Z
 ---------------------------------------------------------------------
      1          6           0       -0.767284    1.350422    0.000000
      2          1           0       -1.850407    1.299257    0.000000
      3          1           0       -0.270973    2.315662    0.000000
      4          6           0       -0.000000    0.185586    0.000000
      5          6           0        0.036693   -1.243481    0.000000
      6          1           0       -0.547450   -2.155367    0.000000
      7          6           0        1.175396   -0.535785    0.000000
 ---------------------------------------------------------------------

 SCF Done:  E(UB3LYP) =  -153.749767000     A.U. after   15 cycles

 The electronic state is 3-A".
 Alpha  occ. eigenvalues --  -10.51864 -10.51552 -10.51045 -10.46648  -1.21759
 Alpha  occ. eigenvalues --   -1.01355  -0.85060  -0.78346  -0.73360  -0.68520
 Alpha  occ. eigenvalues --   -0.67468  -0.64323  -0.53889  -0.51361
 Alpha virt. eigenvalues --   -0.28984  -0.23876  -0.15799  -0.14460  -0.13237
 Alpha virt. eigenvalues --   -0.11415  -0.10150  -0.09958  -0.08391  -0.06427
 Alpha virt. eigenvalues --   -0.05756  -0.04744  -0.03859  -0.03438  -0.03079

  Beta  occ. eigenvalues --  -10.51252 -10.50596 -10.50202 -10.45561  -1.20139
  Beta  occ. eigenvalues --   -0.98002  -0.83715  -0.75938  -0.70981  -0.65607
  Beta  occ. eigenvalues --   -0.64662  -0.62199
  Beta virt. eigenvalues --   -0.39289  -0.39195  -0.25909  -0.19554  -0.15316
  Beta virt. eigenvalues --   -0.14073  -0.12475  -0.10973  -0.09543  -0.09443
  Beta virt. eigenvalues --   -0.07774  -0.05459  -0.05022  -0.04150  -0.03270

 Mulliken charges and spin densities:
               1          2
     1  C   -0.238807   0.815492
     2  H    0.241676  -0.032338
     3  H    0.236562  -0.020427
     4  C    0.321399   0.150665
     5  C   -0.031841   0.316797
     6  H    0.279155  -0.004772
     7  C    0.191857   0.774584
 Sum of Mulliken charges =   1.00000   2.00000

 Dipole moment (field-independent basis, Debye):
    X=             -1.3571    Y=             -0.3634    Z=              0.0000  Tot=              1.4049
 Quadrupole moment (field-independent basis, Debye-Ang):
   XX=            -16.9350   YY=             -8.9585   ZZ=            -21.4280
   XY=             -1.5763   XZ=              0.0000   YZ=              0.0000

  Exact polarizability:  38.480  -8.306  48.026  -0.000  -0.000  20.156
 Approx polarizability:  63.022 -11.027  70.811  -0.000  -0.000  28.740

                      1                      2                      3
                     A'                     A"                     A"
 Frequencies --    355.8812               401.0659               427.4031
 Red. masses --      2.6010                 1.1696                 3.6093
 Frc consts  --      0.1941                 0.1108                 0.3885
 IR Inten    --      7.2689                 1.7226                 6.5999

                      4                      5                      6
                     A'                     A"                     A"
 Frequencies --    836.2778               850.7331               886.4004
 Red. masses --      2.2904                 1.3022                 1.4337
 Frc consts  --      0.9437                 0.5553                 0.6637
 IR Inten    --      0.6011                 0.7666                57.7908

                      7                      8                      9
                     A'                     A'                     A'
 Frequencies --    938.2846              1007.3384              1142.0973
 Red. masses --      1.9348                 1.6263                 3.5433
 Frc consts  --      1.0036                 0.9723                 2.7231
 IR Inten    --     28.6080                29.2993                41.0520

                     10                     11                     12
                     A'                     A'                     A'
 Frequencies --   1431.9973              1468.3362              1703.7234
 Red. masses --      1.5084                 2.9276                 9.0452
 Frc consts  --      1.8225                 3.7189                15.4691
 IR Inten    --      3.8523                74.2806                22.6514

                     13                     14                     15
                     A'                     A'                     A'
 Frequencies --   3135.8134              3242.0314              3253.4118
 Red. masses --      1.0506                 1.1173                 1.1222
 Frc consts  --      6.0866                 6.9189                 6.9985
 IR Inten    --     43.8324                94.0801                17.6987

 - Thermochemistry -
 -------------------
 Temperature   298.150 Kelvin.  Pressure   1.00000 Atm.
 Atom     1 has atomic number  6 and mass  12.00000

 Molecular mass:    51.02348 amu.
 Principal axes and moments of inertia in atomic units:
                           1         2         3
     Eigenvalues --    54.11802 243.68033 297.79835
           X           -0.47929   0.87765   0.00000
           Y            0.87765   0.47929   0.00000
           Z           -0.00000   0.00000   1.00000
 This molecule is an asymmetric top.
 Rotational symmetry number  1.
 Rotational temperatures (Kelvin)      1.60046     0.35544     0.29085
 Rotational constants (GHZ):          33.34825     7.40618     6.06028
 Zero-point vibrational energy     126091.2 (Joules/Mol)
                                   30.13651 (Kcal/Mol)
 Warning -- explicit consideration of   3 degrees of freedom as
           vibrations may cause significant error
 Vibrational temperatures:    512.03   577.04   614.94  1203.22  1224.01
          (Kelvin)           1275.33  1349.98  1449.33  1643.22  2060.32
                             2112.61  2451.27  4511.73  4664.55  4680.93

 Zero-point correction=                           0.048026 (Hartree/Particle)
 Thermal correction to Energy=                    0.052113
 Thermal correction to Enthalpy=                  0.053057
 Thermal correction to Gibbs Free Energy=         0.021440
 Sum of electronic and zero-point Energies=           -153.701741
 Sum of electronic and thermal Energies=              -153.697654
 Sum of electronic and thermal Enthalpies=            -153.696710
 Sum of electronic and thermal Free Energies=         -153.728327

                     E (Thermal)             CV                S
                      KCal/Mol        Cal/Mol-Kelvin    Cal/Mol-Kelvin
 Total                   32.701             13.365             66.545
 Electronic               0.000              0.000              2.183
 Translational            0.889              2.981             37.712
 Rotational               0.889              2.981             22.889
 Vibrational             30.924              7.404              3.760
 Vibration     1          0.731              1.563              1.140
 Vibration     2          0.767              1.468              0.959
 Vibration     3          0.789              1.411              0.867

 Optimization completed.
    -- Stationary point found.
 Normal termination of Gaussian 09 at Thu Jan 24 15:53:51 2019.
