 Gaussian 09, Revision D.01,
 Gaussian 09:  ES64L-G09RevD.01 24-Apr-2013

 ---------------------------
 #p b3lyp/6-311++g(d,p) freq
 ---------------------------

 ---
 min
 ---
 Symbolic Z-matrix:
 Charge =  1 Multiplicity = 3

                         Standard orientation:
 ---------------------------------------------------------------------
 Center     Atomic      Atomic             Coordinates (Angstroms)
 Number     Number       Type             X           Y           Z
 ---------------------------------------------------------------------
      1          6           0        1.387449    0.782494    0.000000
      2          1           0        1.992196   -0.118940    0.000000
      3          1           0        1.892403    1.743618    0.000000
      4          6           0        0.000000    0.720742    0.000000
      5          1           0       -0.597989    1.629724    0.000000
      6          6           0       -0.658015   -0.489380    0.000000
      7          6           0       -1.277202   -1.556256    0.000000
 ---------------------------------------------------------------------

 SCF Done:  E(UB3LYP) =  -153.712969283     A.U. after   18 cycles

 The electronic state is 3-A".
 Alpha  occ. eigenvalues --  -10.52888 -10.48208 -10.48123 -10.47341  -1.09311
 Alpha  occ. eigenvalues --   -1.02899  -0.89775  -0.77203  -0.71751  -0.66419
 Alpha  occ. eigenvalues --   -0.64286  -0.62817  -0.56127  -0.54014
 Alpha virt. eigenvalues --   -0.32809  -0.23398  -0.16551  -0.15573  -0.13451
 Alpha virt. eigenvalues --   -0.12287  -0.09925  -0.08429  -0.07835  -0.07357
 Alpha virt. eigenvalues --   -0.05296  -0.05260  -0.04471  -0.03499  -0.01485

  Beta  occ. eigenvalues --  -10.49898 -10.47942 -10.47591 -10.47182  -1.07896
  Beta  occ. eigenvalues --   -0.99115  -0.88251  -0.76640  -0.71173  -0.64675
  Beta  occ. eigenvalues --   -0.58931  -0.53888
  Beta virt. eigenvalues --   -0.42858  -0.42542  -0.27559  -0.20753  -0.15287
  Beta virt. eigenvalues --   -0.13239  -0.12684  -0.11955  -0.09377  -0.08285
  Beta virt. eigenvalues --   -0.07178  -0.06765  -0.04935  -0.04385  -0.04157

 Mulliken charges and spin densities:
               1          2
     1  C   -0.277159   0.436997
     2  H    0.231230  -0.017802
     3  H    0.254919  -0.019594
     4  C   -0.086889   0.206855
     5  H    0.275962  -0.008442
     6  C    0.464507   0.121675
     7  C    0.137430   1.280311
 Sum of Mulliken charges =   1.00000   2.00000

 Dipole moment (field-independent basis, Debye):
    X=              0.9275    Y=              0.5422    Z=              0.0000  Tot=              1.0744
 Quadrupole moment (field-independent basis, Debye-Ang):
   XX=            -11.6057   YY=            -11.2811   ZZ=            -21.6625
   XY=              6.2851   XZ=              0.0000   YZ=              0.0000

  Exact polarizability:  56.102  19.527  52.250   0.000  -0.002  19.568
 Approx polarizability:  83.704  43.002  88.624  -0.000  -0.000  26.599

                      1                      2                      3
                     A'                     A"                     A'
 Frequencies --    152.8627               297.8318               471.8352
 Red. masses --      5.5317                 1.9646                 3.6393
 Frc consts  --      0.0762                 0.1027                 0.4774
 IR Inten    --      0.3211                 6.8395                 3.7116

                      4                      5                      6
                     A"                     A"                     A'
 Frequencies --    554.3296               886.8175               939.5475
 Red. masses --      2.0487                 1.2338                 2.1010
 Frc consts  --      0.3709                 0.5717                 1.0928
 IR Inten    --      0.3505                33.0993                 1.3704

                      7                      8                      9
                     A"                     A'                     A'
 Frequencies --   1072.6882              1114.7583              1276.8876
 Red. masses --      1.4212                 1.7946                 1.6256
 Frc consts  --      0.9635                 1.3140                 1.5616
 IR Inten    --     10.1565                 5.5390                29.2747

                     10                     11                     12
                     A'                     A'                     A'
 Frequencies --   1425.0421              1533.2694              2118.9349
 Red. masses --      1.6349                 1.7126                11.8557
 Frc consts  --      1.9562                 2.3722                31.3625
 IR Inten    --     78.5805                32.4317                44.1131

                     13                     14                     15
                     A'                     A'                     A'
 Frequencies --   3140.7300              3156.3847              3253.0730
 Red. masses --      1.0558                 1.0916                 1.1223
 Frc consts  --      6.1359                 6.4074                 6.9974
 IR Inten    --     19.2869                25.1999                17.2220

 - Thermochemistry -
 -------------------
 Temperature   298.150 Kelvin.  Pressure   1.00000 Atm.
 Atom     1 has atomic number  6 and mass  12.00000

 Molecular mass:    51.02348 amu.
 Principal axes and moments of inertia in atomic units:
                           1         2         3
     Eigenvalues --    38.02222 343.01403 381.03624
           X            0.72575  -0.68796   0.00000
           Y            0.68796   0.72575   0.00000
           Z            0.00000   0.00000   1.00000
 This molecule is an asymmetric top.
 Rotational symmetry number  1.
 Rotational temperatures (Kelvin)      2.27798     0.25251     0.22731
 Rotational constants (GHZ):          47.46544     5.26142     4.73640
 Zero-point vibrational energy     127970.5 (Joules/Mol)
                                   30.58568 (Kcal/Mol)
 Warning -- explicit consideration of   4 degrees of freedom as
           vibrations may cause significant error
 Vibrational temperatures:    219.94   428.51   678.86   797.56  1275.93
          (Kelvin)           1351.80  1543.36  1603.89  1837.15  2050.32
                             2206.03  3048.67  4518.80  4541.33  4680.44

 Zero-point correction=                           0.048741 (Hartree/Particle)
 Thermal correction to Energy=                    0.053246
 Thermal correction to Enthalpy=                  0.054190
 Thermal correction to Gibbs Free Energy=         0.021499
 Sum of electronic and zero-point Energies=           -153.664228
 Sum of electronic and thermal Energies=              -153.659723
 Sum of electronic and thermal Enthalpies=            -153.658779
 Sum of electronic and thermal Free Energies=         -153.691470

                     E (Thermal)             CV                S
                      KCal/Mol        Cal/Mol-Kelvin    Cal/Mol-Kelvin
 Total                   33.412             13.851             68.804
 Electronic               0.000              0.000              2.183
 Translational            0.889              2.981             37.712
 Rotational               0.889              2.981             23.123
 Vibrational             31.635              7.890              5.785
 Vibration     1          0.619              1.899              2.636
 Vibration     2          0.691              1.678              1.429
 Vibration     3          0.829              1.313              0.732
 Vibration     4          0.910              1.130              0.535

 Optimization completed.
    -- Stationary point found.
 Normal termination of Gaussian 09 at Thu Jan 24 15:52:50 2019.
