 Gaussian 09, Revision D.01,
 Gaussian 09:  ES64L-G09RevD.01 24-Apr-2013

 ---------------------------
 #p b3lyp/6-311++g(d,p) freq
 ---------------------------

 ---
 min
 ---
 Symbolic Z-matrix:
 Charge =  1 Multiplicity = 1

                         Standard orientation:
 ---------------------------------------------------------------------
 Center     Atomic      Atomic             Coordinates (Angstroms)
 Number     Number       Type             X           Y           Z
 ---------------------------------------------------------------------
      1          6           0        0.637930   -0.988865    0.000000
      2          1           0        1.656584   -1.346516    0.000000
      3          6           0       -0.633020   -0.991838    0.000000
      4          1           0       -1.650413   -1.353001    0.000000
      5          6           0        0.000000    0.374201    0.000000
      6          6           0       -0.004496    1.609380    0.000000
      7          1           0       -0.008656    2.682247    0.000000
 ---------------------------------------------------------------------

 SCF Done:  E(RB3LYP) =  -153.787963657     A.U. after   11 cycles

 The electronic state is 1-A'.
 Alpha  occ. eigenvalues --  -10.49365 -10.49227 -10.47545 -10.47117  -1.17591
 Alpha  occ. eigenvalues --   -1.00215  -0.84129  -0.80144  -0.77684  -0.68502
 Alpha  occ. eigenvalues --   -0.64413  -0.60231  -0.50101
 Alpha virt. eigenvalues --   -0.34800  -0.25758  -0.19200  -0.14878  -0.13641
 Alpha virt. eigenvalues --   -0.12867  -0.12528  -0.11001  -0.09437  -0.09306
 Alpha virt. eigenvalues --   -0.05295  -0.05047  -0.04900  -0.03434  -0.03239

 Mulliken charges:
               1
     1  C    0.028330
     2  H    0.290422
     3  C    0.028529
     4  H    0.290537
     5  C    0.209598
     6  C   -0.114457
     7  H    0.267042
 Sum of Mulliken charges =   1.00000

 Dipole moment (field-independent basis, Debye):
    X=             -0.0041    Y=              0.1959    Z=              0.0000  Tot=              0.1960
 Quadrupole moment (field-independent basis, Debye-Ang):
   XX=            -13.7763   YY=             -6.1275   ZZ=            -22.9022
   XY=             -0.0276   XZ=              0.0000   YZ=              0.0000

  Exact polarizability:  30.390  -0.066  54.277  -0.009   0.012  19.930
 Approx polarizability:  49.812  -0.139 100.624  -0.000  -0.000  27.083

                      1                      2                      3
                     A'                     A"                     A"
 Frequencies --    193.7440               378.2343               475.4876
 Red. masses --      2.7232                 7.1202                 1.1399
 Frc consts  --      0.0602                 0.6002                 0.1518
 IR Inten    --     27.7771                 0.0305               110.5941

                      4                      5                      6
                     A'                     A"                     A"
 Frequencies --    613.3929               739.5100               774.1433
 Red. masses --      8.1532                 1.1785                 1.5088
 Frc consts  --      1.8074                 0.3797                 0.5328
 IR Inten    --     28.6050                68.8383                 0.0000

                      7                      8                      9
                     A'                     A'                     A'
 Frequencies --    790.8005               917.3855               949.5343
 Red. masses --      6.9303                 1.0925                 1.2848
 Frc consts  --      2.5535                 0.5417                 0.6825
 IR Inten    --     23.8508                 2.7846                 0.5600

                     10                     11                     12
                     A'                     A'                     A'
 Frequencies --    999.9391              1671.2396              1970.1263
 Red. masses --      1.3902                 5.0825                 5.2190
 Frc consts  --      0.8190                 8.3638                11.9351
 IR Inten    --      7.0710                53.2747                54.6975

                     13                     14                     15
                     A'                     A'                     A'
 Frequencies --   3246.5099              3315.5559              3376.1231
 Red. masses --      1.0860                 1.1778                 1.1418
 Frc consts  --      6.7441                 7.6281                 7.6681
 IR Inten    --    194.9605                68.8769               170.9098

 - Thermochemistry -
 -------------------
 Temperature   298.150 Kelvin.  Pressure   1.00000 Atm.
 Atom     1 has atomic number  6 and mass  12.00000

 Molecular mass:    51.02348 amu.
 Principal axes and moments of inertia in atomic units:
                           1         2         3
     Eigenvalues --    54.29047 240.06155 294.35201
           X           -0.00276   1.00000   0.00000
           Y            1.00000   0.00276   0.00000
           Z           -0.00000   0.00000   1.00000
 This molecule is an asymmetric top.
 Rotational symmetry number  1.
 Rotational temperatures (Kelvin)      1.59538     0.36080     0.29425
 Rotational constants (GHZ):          33.24232     7.51783     6.13123
 Zero-point vibrational energy     122089.2 (Joules/Mol)
                                   29.18003 (Kcal/Mol)
 Warning -- explicit consideration of   4 degrees of freedom as
           vibrations may cause significant error
 Vibrational temperatures:    278.75   544.19   684.12   882.53  1063.99
          (Kelvin)           1113.82  1137.78  1319.91  1366.17  1438.69
                             2404.54  2834.57  4671.00  4770.34  4857.48

 Zero-point correction=                           0.046501 (Hartree/Particle)
 Thermal correction to Energy=                    0.051032
 Thermal correction to Enthalpy=                  0.051976
 Thermal correction to Gibbs Free Energy=         0.020608
 Sum of electronic and zero-point Energies=           -153.741462
 Sum of electronic and thermal Energies=              -153.736932
 Sum of electronic and thermal Enthalpies=            -153.735988
 Sum of electronic and thermal Free Energies=         -153.767355

                     E (Thermal)             CV                S
                      KCal/Mol        Cal/Mol-Kelvin    Cal/Mol-Kelvin
 Total                   32.023             15.095             66.018
 Electronic               0.000              0.000              0.000
 Translational            0.889              2.981             37.712
 Rotational               0.889              2.981             22.866
 Vibrational             30.245              9.133              5.440
 Vibration     1          0.635              1.849              2.192
 Vibration     2          0.749              1.517              1.046
 Vibration     3          0.832              1.304              0.722
 Vibration     4          0.973              1.004              0.427

 Normal termination of Gaussian 09 at Thu Jan 24 15:50:05 2019.
