 Gaussian 09, Revision D.01,
 Gaussian 09:  ES64L-G09RevD.01 24-Apr-2013

 ---------------------------
 #p b3lyp/6-311++g(d,p) freq
 ---------------------------

 ---
 min
 ---
 Symbolic Z-matrix:
 Charge =  0 Multiplicity = 2

                         Standard orientation:
 ---------------------------------------------------------------------
 Center     Atomic      Atomic             Coordinates (Angstroms)
 Number     Number       Type             X           Y           Z
 ---------------------------------------------------------------------
      1          6           0       -0.821574   -1.008316    0.000000
      2          6           0       -0.000000    1.100610    0.000000
      3          8           0       -1.126334    0.355761    0.000000
      4          6           0        1.133046    0.289651    0.000000
      5          6           0        0.646275   -1.005845    0.000000
      6          1           0       -0.117276    2.175288    0.000000
      7          1           0        2.154436    0.639038    0.000000
      8          1           0        1.227031   -1.917011    0.000000
 ---------------------------------------------------------------------

 SCF Done:  E(UB3LYP) =  -229.362694426     A.U. after   15 cycles

 The electronic state is 2-A".
 Alpha  occ. eigenvalues --  -19.20615 -10.28662 -10.23083 -10.21452 -10.21121
 Alpha  occ. eigenvalues --   -1.13089  -0.83774  -0.76702  -0.62064  -0.59161
 Alpha  occ. eigenvalues --   -0.55717  -0.47977  -0.45637  -0.43500  -0.39203
 Alpha  occ. eigenvalues --   -0.32407  -0.26823  -0.23650
 Alpha virt. eigenvalues --   -0.03954  -0.01331   0.00637   0.01578   0.02077
 Alpha virt. eigenvalues --    0.04616   0.04788   0.06093   0.07272   0.08550
 Alpha virt. eigenvalues --    0.09912   0.10022   0.10267   0.11175   0.11866

  Beta  occ. eigenvalues --  -19.20745 -10.27890 -10.22588 -10.21567 -10.20679
  Beta  occ. eigenvalues --   -1.12834  -0.83138  -0.74799  -0.61399  -0.58422
  Beta  occ. eigenvalues --   -0.55213  -0.46068  -0.45351  -0.43009  -0.39074
  Beta  occ. eigenvalues --   -0.31379  -0.22769
  Beta virt. eigenvalues --   -0.16634  -0.01302  -0.00934   0.00692   0.02109
  Beta virt. eigenvalues --    0.04241   0.04768   0.05241   0.06252   0.07331
  Beta virt. eigenvalues --    0.09153   0.10040   0.10269   0.10340   0.11279

 Mulliken charges and spin densities:
               1          2
     1  C   -0.377946   0.340833
     2  C   -0.105765   0.513333
     3  O   -0.013924  -0.064235
     4  C   -0.087363  -0.104183
     5  C    0.033353   0.358910
     6  H    0.186825  -0.031485
     7  H    0.181023   0.003426
     8  H    0.183797  -0.016599
 Sum of Mulliken charges =  -0.00000   1.00000

 Dipole moment (field-independent basis, Debye):
    X=              3.6315    Y=              2.6729    Z=              0.0000  Tot=              4.5091
 Quadrupole moment (field-independent basis, Debye-Ang):
   XX=            -31.5886   YY=            -27.5167   ZZ=            -30.2581
   XY=             -3.6182   XZ=              0.0000   YZ=              0.0000

  Exact polarizability:  51.590   3.635  61.060  -0.001   0.002  27.550
 Approx polarizability:  77.357   2.335  95.996  -0.000  -0.000  47.470

                      1                      2                      3
                     A"                     A"                     A'
 Frequencies --    499.7617               699.9561               718.6644
 Red. masses --      2.2998                 2.1350                10.8033
 Frc consts  --      0.3384                 0.6163                 3.2875
 IR Inten    --     15.0048                 7.2709                 2.0964

                      4                      5                      6
                     A"                     A'                     A"
 Frequencies --    813.8754               865.4288               901.9520
 Red. masses --      1.5773                 5.7643                 1.4052
 Frc consts  --      0.6156                 2.5437                 0.6735
 IR Inten    --     25.7130                 1.0914                88.3681

                      7                      8                      9
                     A'                     A"                     A'
 Frequencies --    913.4299               919.4898              1008.1870
 Red. masses --      7.5805                 1.7279                 2.3320
 Frc consts  --      3.7265                 0.8607                 1.3966
 IR Inten    --      6.3891                12.5107                11.8619

                     10                     11                     12
                     A'                     A'                     A'
 Frequencies --   1029.1876              1096.9608              1132.2426
 Red. masses --      1.9853                 1.7033                 2.2251
 Frc consts  --      1.2390                 1.2076                 1.6807
 IR Inten    --     38.6502                19.0814                 8.4159

                     13                     14                     15
                     A'                     A'                     A'
 Frequencies --   1332.1452              1400.1721              1475.4444
 Red. masses --      1.7290                 3.4651                 3.0841
 Frc consts  --      1.8078                 4.0024                 3.9557
 IR Inten    --     23.0994                70.2684                 4.8216

                     16                     17                     18
                     A'                     A'                     A'
 Frequencies --   3224.8985              3232.5442              3248.8607
 Red. masses --      1.0888                 1.0942                 1.1066
 Frc consts  --      6.6713                 6.7365                 6.8819
 IR Inten    --      0.1832                 2.3892                 0.6317

 - Thermochemistry -
 -------------------
 Temperature   298.150 Kelvin.  Pressure   1.00000 Atm.
 Atom     1 has atomic number  6 and mass  12.00000

 Molecular mass:    67.01839 amu.
 Principal axes and moments of inertia in atomic units:
                           1         2         3
     Eigenvalues --   179.33742 197.92019 377.25761
           X            0.94455   0.32837   0.00000
           Y           -0.32837   0.94455   0.00000
           Z           -0.00000   0.00000   1.00000
 This molecule is an asymmetric top.
 Rotational symmetry number  1.
 Rotational temperatures (Kelvin)      0.48297     0.43762     0.22959
 Rotational constants (GHZ):          10.06338     9.11853     4.78384
 Zero-point vibrational energy     146621.5 (Joules/Mol)
                                   35.04338 (Kcal/Mol)
 Warning -- explicit consideration of   1 degrees of freedom as
           vibrations may cause significant error
 Vibrational temperatures:    719.04  1007.08  1034.00  1170.98  1245.16
          (Kelvin)           1297.71  1314.22  1322.94  1450.55  1480.77
                             1578.28  1629.04  1916.66  2014.53  2122.83
                             4639.90  4650.90  4674.38

 Zero-point correction=                           0.055845 (Hartree/Particle)
 Thermal correction to Energy=                    0.059550
 Thermal correction to Enthalpy=                  0.060494
 Thermal correction to Gibbs Free Energy=         0.028963
 Sum of electronic and zero-point Energies=           -229.306849
 Sum of electronic and thermal Energies=              -229.303145
 Sum of electronic and thermal Enthalpies=            -229.302201
 Sum of electronic and thermal Free Energies=         -229.333732

                     E (Thermal)             CV                S
                      KCal/Mol        Cal/Mol-Kelvin    Cal/Mol-Kelvin
 Total                   37.368             13.037             66.363
 Electronic               0.000              0.000              1.377
 Translational            0.889              2.981             38.525
 Rotational               0.889              2.981             24.108
 Vibrational             35.590              7.076              2.353
 Vibration     1          0.855              1.251              0.659

 Optimization completed.
    -- Stationary point found.
 Normal termination of Gaussian 09 at Sun Mar  4 21:20:53 2018.
