 Gaussian 09, Revision D.01,
 Gaussian 09:  ES64L-G09RevD.01 24-Apr-2013

 ---------------------------
 #p b3lyp/6-311++g(d,p) freq
 ---------------------------

 ---
 min
 ---
 Symbolic Z-matrix:
 Charge =  0 Multiplicity = 4

                         Standard orientation:
 ---------------------------------------------------------------------
 Center     Atomic      Atomic             Coordinates (Angstroms)
 Number     Number       Type             X           Y           Z
 ---------------------------------------------------------------------
      1          6           0        0.941447   -0.282275    0.000000
      2          6           0       -0.381752   -1.045414    0.000000
      3          6           0       -1.109778    0.156170   -0.000000
      4          1           0        1.544317   -0.389770    0.904766
      5          1           0        1.544317   -0.389770   -0.904766
      6          6           0       -0.000000    0.964110   -0.000000
      7          1           0        0.211864    2.023997   -0.000000
 ---------------------------------------------------------------------

 SCF Done:  E(UB3LYP) =  -153.981909483     A.U. after   15 cycles

 The electronic state is 4-A".
 Alpha  occ. eigenvalues --  -10.23374 -10.22346 -10.21943 -10.21307  -0.91362
 Alpha  occ. eigenvalues --   -0.68125  -0.65716  -0.49168  -0.47409  -0.47070
 Alpha  occ. eigenvalues --   -0.42006  -0.32350  -0.29127  -0.26780  -0.21077
 Alpha virt. eigenvalues --   -0.00522   0.00615   0.01374   0.02308   0.03844
 Alpha virt. eigenvalues --    0.06011   0.07043   0.07851   0.08434   0.09643
 Alpha virt. eigenvalues --    0.09909   0.11239   0.12728   0.13380   0.14434

  Beta  occ. eigenvalues --  -10.21634 -10.21034 -10.20777 -10.20229  -0.87885
  Beta  occ. eigenvalues --   -0.66328  -0.61251  -0.45814  -0.44881  -0.43110
  Beta  occ. eigenvalues --   -0.38944  -0.28979
  Beta virt. eigenvalues --   -0.13347  -0.10166  -0.07752  -0.00397   0.01755
  Beta virt. eigenvalues --    0.02293   0.04758   0.04889   0.06620   0.07281
  Beta virt. eigenvalues --    0.08125   0.08570   0.10577   0.10654   0.11836

 Mulliken charges and spin densities:
               1          2
     1  C   -0.490120   0.033934
     2  C    0.134520   1.587608
     3  C   -0.115542   0.560714
     4  H    0.145758   0.016024
     5  H    0.145758   0.016024
     6  C   -0.000612   0.755785
     7  H    0.180237   0.029911
 Sum of Mulliken charges =  -0.00000   3.00000

 Dipole moment (field-independent basis, Debye):
    X=              1.7591    Y=              0.8171    Z=             -0.0000  Tot=              1.9396
 Quadrupole moment (field-independent basis, Debye-Ang):
   XX=            -24.2581   YY=            -23.6138   ZZ=            -24.9638
   XY=             -0.1689   XZ=             -0.0000   YZ=              0.0000

  Exact polarizability:  47.035   0.656  49.166  -0.000  -0.000  33.372
 Approx polarizability:  70.779   3.924  80.376   0.000  -0.000  45.433

                      1                      2                      3
                     A"                     A"                     A'
 Frequencies --    433.4955               548.5674               794.7448
 Red. masses --      3.3453                 1.1717                 4.6428
 Frc consts  --      0.3704                 0.2077                 1.7278
 IR Inten    --      5.0692                70.0764                 1.8762

                      4                      5                      6
                     A'                     A"                     A'
 Frequencies --    838.3008               910.1927               955.2018
 Red. masses --      7.8175                 1.5234                 2.1988
 Frc consts  --      3.2368                 0.7436                 1.1820
 IR Inten    --      8.3869                 1.8136                 5.2932

                      7                      8                      9
                     A"                     A'                     A'
 Frequencies --   1048.5818              1064.6872              1113.8239
 Red. masses --      1.0819                 1.9161                 2.7500
 Frc consts  --      0.7009                 1.2797                 2.0101
 IR Inten    --      0.2932                30.5379                 5.8279

                     10                     11                     12
                     A'                     A'                     A'
 Frequencies --   1182.9166              1375.8804              1467.9658
 Red. masses --      1.8792                 4.6750                 1.2008
 Frc consts  --      1.5493                 5.2143                 1.5245
 IR Inten    --      6.7257                 0.1889                 2.2018

                     13                     14                     15
                     A'                     A"                     A'
 Frequencies --   3041.0748              3105.1775              3218.0927
 Red. masses --      1.0521                 1.1105                 1.0953
 Frc consts  --      5.7326                 6.3086                 6.6830
 IR Inten    --     18.9587                 5.7506                 1.4588

 - Thermochemistry -
 -------------------
 Temperature   298.150 Kelvin.  Pressure   1.00000 Atm.
 Atom     1 has atomic number  6 and mass  12.00000

 Molecular mass:    51.02348 amu.
 Principal axes and moments of inertia in atomic units:
                           1         2         3
     Eigenvalues --   110.26198 121.95998 220.43736
           X            0.88742   0.46096   0.00000
           Y           -0.46096   0.88742   0.00000
           Z           -0.00000  -0.00000   1.00000
 This molecule is an asymmetric top.
 Rotational symmetry number  1.
 Rotational temperatures (Kelvin)      0.78553     0.71018     0.39292
 Rotational constants (GHZ):          16.36776    14.79781     8.18709
 Zero-point vibrational energy     126198.3 (Joules/Mol)
                                   30.16211 (Kcal/Mol)
 Warning -- explicit consideration of   2 degrees of freedom as
           vibrations may cause significant error
 Vibrational temperatures:    623.70   789.27  1143.46  1206.13  1309.56
          (Kelvin)           1374.32  1508.67  1531.85  1602.54  1701.95
                             1979.58  2112.07  4375.42  4467.65  4630.11

 Zero-point correction=                           0.048066 (Hartree/Particle)
 Thermal correction to Energy=                    0.051726
 Thermal correction to Enthalpy=                  0.052670
 Thermal correction to Gibbs Free Energy=         0.021600
 Sum of electronic and zero-point Energies=           -153.933843
 Sum of electronic and thermal Energies=              -153.930184
 Sum of electronic and thermal Enthalpies=            -153.929239
 Sum of electronic and thermal Free Energies=         -153.960310

                     E (Thermal)             CV                S
                      KCal/Mol        Cal/Mol-Kelvin    Cal/Mol-Kelvin
 Total                   32.459             11.988             65.393
 Electronic               0.000              0.000              2.755
 Translational            0.889              2.981             37.712
 Rotational               0.889              2.981             22.610
 Vibrational             30.681              6.027              2.316
 Vibration     1          0.794              1.397              0.847
 Vibration     2          0.904              1.143              0.547

 Optimization completed.
    -- Stationary point found.
 Normal termination of Gaussian 09 at Sun Mar  4 21:09:22 2018.
