 Gaussian 09, Revision D.01,
 Gaussian 09:  ES64L-G09RevD.01 24-Apr-2013

 ---------------------------
 #p b3lyp/6-311++g(d,p) freq
 ---------------------------

 ---
 min
 ---
 Symbolic Z-matrix:
 Charge =  1 Multiplicity = 3

                         Standard orientation:
 ---------------------------------------------------------------------
 Center     Atomic      Atomic             Coordinates (Angstroms)
 Number     Number       Type             X           Y           Z
 ---------------------------------------------------------------------
      1          6           0       -0.017860    0.000351   -0.007790
      2          6           0        1.203339   -0.678824    0.000967
      3          6           0        1.203799    0.678624    0.001240
      4          6           0       -1.470789    0.000476   -0.005091
      5          1           0       -1.853690   -0.889695   -0.511986
      6          1           0       -1.801659   -0.027717    1.043068
      7          1           0       -1.855579    0.913646   -0.467027
 ---------------------------------------------------------------------

 SCF Done:  E(UB3LYP) =  -153.701052654     A.U. after   14 cycles

 The electronic state is 3-A.
 Alpha  occ. eigenvalues --  -10.56049 -10.55974 -10.54721 -10.42571  -1.24868
 Alpha  occ. eigenvalues --   -1.01121  -0.81661  -0.79480  -0.70372  -0.70220
 Alpha  occ. eigenvalues --   -0.66110  -0.62950  -0.61889  -0.54648
 Alpha virt. eigenvalues --   -0.30611  -0.30441  -0.16576  -0.12975  -0.11551
 Alpha virt. eigenvalues --   -0.11297  -0.10546  -0.10394  -0.08990  -0.06988
 Alpha virt. eigenvalues --   -0.06856  -0.06068  -0.04539  -0.03558  -0.02780

  Beta  occ. eigenvalues --  -10.54364 -10.54189 -10.54134 -10.42550  -1.22572
  Beta  occ. eigenvalues --   -1.00539  -0.77083  -0.75351  -0.69736  -0.66628
  Beta  occ. eigenvalues --   -0.63946  -0.62083
  Beta virt. eigenvalues --   -0.44848  -0.39593  -0.29326  -0.26871  -0.16152
  Beta virt. eigenvalues --   -0.11718  -0.11460  -0.10740  -0.09945  -0.09487
  Beta virt. eigenvalues --   -0.08710  -0.06703  -0.05820  -0.04188  -0.04074

 Mulliken charges and spin densities:
               1          2
     1  C    0.434944   0.180027
     2  C    0.228962   0.922155
     3  C    0.227786   0.922375
     4  C   -0.602331  -0.054934
     5  H    0.234264   0.016380
     6  H    0.241815  -0.003511
     7  H    0.234561   0.017507
 Sum of Mulliken charges =   1.00000   2.00000

 Dipole moment (field-independent basis, Debye):
    X=             -0.5161    Y=             -0.0060    Z=              0.0860  Tot=              0.5233
 Quadrupole moment (field-independent basis, Debye-Ang):
   XX=            -12.3122   YY=            -18.6396   ZZ=            -19.8473
   XY=              0.0120   XZ=             -0.1588   YZ=             -0.0003

  Exact polarizability:  48.808   0.016  33.561  -0.159   0.002  24.715
 Approx polarizability:  72.676   0.044  60.761  -0.421   0.003  35.862

                      1                      2                      3
                      A                      A                      A
 Frequencies --     41.5267               361.6187               406.7669
 Red. masses --      1.2713                 3.7095                 3.0907
 Frc consts  --      0.0013                 0.2858                 0.3013
 IR Inten    --      0.9521                 2.2601                 1.7018

                      4                      5                      6
                      A                      A                      A
 Frequencies --    787.9721               986.5145               991.8717
 Red. masses --      4.9059                 1.6817                 1.5662
 Frc consts  --      1.7947                 0.9643                 0.9078
 IR Inten    --      0.7334                16.3416                 5.7926

                      7                      8                      9
                      A                      A                      A
 Frequencies --   1145.7851              1352.8843              1372.6279
 Red. masses --      4.5800                 5.3273                 1.2429
 Frc consts  --      3.5426                 5.7448                 1.3798
 IR Inten    --     41.5023                52.5073                10.5766

                     10                     11                     12
                      A                      A                      A
 Frequencies --   1413.6802              1439.0513              1669.0447
 Red. masses --      1.0422                 1.1162                11.2047
 Frc consts  --      1.2272                 1.3619                18.3903
 IR Inten    --     45.8095                22.9524                45.0158

                     13                     14                     15
                      A                      A                      A
 Frequencies --   3009.8463              3080.5101              3120.6359
 Red. masses --      1.0387                 1.0912                 1.1050
 Frc consts  --      5.5439                 6.1008                 6.3404
 IR Inten    --     66.1125                19.1342                12.6940

 - Thermochemistry -
 -------------------
 Temperature   298.150 Kelvin.  Pressure   1.00000 Atm.
 Atom     1 has atomic number  6 and mass  12.00000

 Molecular mass:    51.02348 amu.
 Principal axes and moments of inertia in atomic units:
                           1         2         3
     Eigenvalues --    50.98487 256.86114 296.55122
           X            1.00000   0.00007  -0.00096
           Y           -0.00007   1.00000  -0.00019
           Z            0.00096   0.00019   1.00000
 This molecule is an asymmetric top.
 Rotational symmetry number  1.
 Rotational temperatures (Kelvin)      1.69881     0.33720     0.29207
 Rotational constants (GHZ):          35.39759     7.02614     6.08577
 Zero-point vibrational energy     126686.5 (Joules/Mol)
                                   30.27881 (Kcal/Mol)
 Warning -- explicit consideration of   3 degrees of freedom as
           vibrations may cause significant error
 Vibrational temperatures:     59.75   520.29   585.25  1133.71  1419.37
          (Kelvin)           1427.08  1648.53  1946.50  1974.90  2033.97
                             2070.47  2401.38  4330.49  4432.16  4489.89

 Zero-point correction=                           0.048252 (Hartree/Particle)
 Thermal correction to Energy=                    0.052802
 Thermal correction to Enthalpy=                  0.053746
 Thermal correction to Gibbs Free Energy=         0.020222
 Sum of electronic and zero-point Energies=           -153.652800
 Sum of electronic and thermal Energies=              -153.648251
 Sum of electronic and thermal Enthalpies=            -153.647307
 Sum of electronic and thermal Free Energies=         -153.680830

                     E (Thermal)             CV                S
                      KCal/Mol        Cal/Mol-Kelvin    Cal/Mol-Kelvin
 Total                   33.134             13.117             70.556
 Electronic               0.000              0.000              2.183
 Translational            0.889              2.981             37.712
 Rotational               0.889              2.981             22.878
 Vibrational             31.356              7.155              7.783
 Vibration     1          0.594              1.981              5.185
 Vibration     2          0.736              1.551              1.115
 Vibration     3          0.772              1.456              0.938

 Normal termination of Gaussian 09 at Thu Jan 24 15:52:23 2019.
