 Gaussian 09, Revision D.01,
 Gaussian 09:  ES64L-G09RevD.01 24-Apr-2013

 ---------------------------
 #p b3lyp/6-311++g(d,p) freq
 ---------------------------

 ---
 min
 ---
 Symbolic Z-matrix:
 Charge =  1 Multiplicity = 1

                         Standard orientation:
 ---------------------------------------------------------------------
 Center     Atomic      Atomic             Coordinates (Angstroms)
 Number     Number       Type             X           Y           Z
 ---------------------------------------------------------------------
      1          6           0        0.072982   -0.620773    0.487966
      2          6           0       -0.768529    0.676214    0.080119
      3          8           0       -1.048127   -0.545348   -0.467413
      4          6           0        0.631968    0.910930   -0.069484
      5          6           0        1.352452   -0.182661   -0.144305
      6          1           0       -0.112290   -0.971475    1.497956
      7          1           0       -1.497828    1.248288    0.644259
      8          1           0        2.261890   -0.616288   -0.528692
 ---------------------------------------------------------------------

 SCF Done:  E(RB3LYP) =  -228.994105604     A.U. after   13 cycles

 The electronic state is 1-A.
 Alpha  occ. eigenvalues --  -19.43176 -10.56231 -10.55995 -10.51084 -10.49301
 Alpha  occ. eigenvalues --   -1.39610  -1.16168  -0.96237  -0.89723  -0.82893
 Alpha  occ. eigenvalues --   -0.75568  -0.74335  -0.72495  -0.69949  -0.63923
 Alpha  occ. eigenvalues --   -0.55254  -0.53608
 Alpha virt. eigenvalues --   -0.35944  -0.26465  -0.20956  -0.17356  -0.15296
 Alpha virt. eigenvalues --   -0.13609  -0.12977  -0.10838  -0.09407  -0.08200
 Alpha virt. eigenvalues --   -0.07628  -0.07023  -0.05867  -0.04764  -0.03030

 Mulliken charges:
               1
     1  C   -0.113778
     2  C   -0.129503
     3  O    0.061294
     4  C    0.363211
     5  C   -0.027784
     6  H    0.289014
     7  H    0.267982
     8  H    0.289563
 Sum of Mulliken charges =   1.00000

 Dipole moment (field-independent basis, Debye):
    X=              1.4814    Y=              0.6857    Z=              1.6922  Tot=              2.3512
 Quadrupole moment (field-independent basis, Debye-Ang):
   XX=            -17.9378   YY=            -22.3061   ZZ=            -23.8071
   XY=             -4.7335   XZ=             -3.3579   YZ=             -1.2954

  Exact polarizability:  44.160  -1.302  38.426  -2.424  -0.761  27.991
 Approx polarizability:  74.113  -0.944  78.699  -2.723  -2.235  42.357

                      1                      2                      3
                      A                      A                      A
 Frequencies --    443.6402               486.2759               639.7910
 Red. masses --      3.3266                 4.5472                 5.0830
 Frc consts  --      0.3858                 0.6335                 1.2259
 IR Inten    --     13.3823                21.6055                 7.7374

                      4                      5                      6
                      A                      A                      A
 Frequencies --    655.1465               725.3343               790.6633
 Red. masses --      5.7979                 5.6538                 1.6926
 Frc consts  --      1.4662                 1.7525                 0.6234
 IR Inten    --     27.6826                42.9535                28.5685

                      7                      8                      9
                      A                      A                      A
 Frequencies --    902.5218               924.4327               999.1636
 Red. masses --      1.4205                 2.4394                 1.3600
 Frc consts  --      0.6817                 1.2282                 0.8000
 IR Inten    --     13.7497                13.4981                19.8181

                     10                     11                     12
                      A                      A                      A
 Frequencies --   1082.2430              1126.8383              1203.2365
 Red. masses --      1.5867                 1.9203                 1.2148
 Frc consts  --      1.0950                 1.4366                 1.0362
 IR Inten    --     46.2130                43.3445                 7.5488

                     13                     14                     15
                      A                      A                      A
 Frequencies --   1247.8553              1295.9321              1646.8115
 Red. masses --      4.6125                 1.7785                 6.8963
 Frc consts  --      4.2317                 1.7599                11.0193
 IR Inten    --     21.8320                14.2065                31.8504

                     16                     17                     18
                      A                      A                      A
 Frequencies --   3195.7803              3208.9966              3286.4416
 Red. masses --      1.0936                 1.1006                 1.1172
 Frc consts  --      6.5803                 6.6775                 7.1092
 IR Inten    --     30.1409                34.3682                90.8363

 - Thermochemistry -
 -------------------
 Temperature   298.150 Kelvin.  Pressure   1.00000 Atm.
 Atom     1 has atomic number  6 and mass  12.00000

 Molecular mass:    67.01839 amu.
 Principal axes and moments of inertia in atomic units:
                           1         2         3
     Eigenvalues --   133.43555 245.91703 311.13398
           X            0.99387  -0.10062  -0.04579
           Y            0.10026   0.99491  -0.01000
           Z            0.04656   0.00535   0.99890
 This molecule is an asymmetric top.
 Rotational symmetry number  1.
 Rotational temperatures (Kelvin)      0.64911     0.35221     0.27838
 Rotational constants (GHZ):          13.52519     7.33882     5.80053
 Zero-point vibrational energy     142721.1 (Joules/Mol)
                                   34.11116 (Kcal/Mol)
 Warning -- explicit consideration of   2 degrees of freedom as
           vibrations may cause significant error
 Vibrational temperatures:    638.30   699.64   920.52   942.61  1043.59
          (Kelvin)           1137.59  1298.53  1330.05  1437.57  1557.10
                             1621.27  1731.19  1795.38  1864.55  2369.39
                             4598.01  4617.02  4728.45

 Zero-point correction=                           0.054360 (Hartree/Particle)
 Thermal correction to Energy=                    0.058385
 Thermal correction to Enthalpy=                  0.059329
 Thermal correction to Gibbs Free Energy=         0.028110
 Sum of electronic and zero-point Energies=           -228.939746
 Sum of electronic and thermal Energies=              -228.935721
 Sum of electronic and thermal Enthalpies=            -228.934777
 Sum of electronic and thermal Free Energies=         -228.965996

                     E (Thermal)             CV                S
                      KCal/Mol        Cal/Mol-Kelvin    Cal/Mol-Kelvin
 Total                   36.637             14.400             65.705
 Electronic               0.000              0.000              0.000
 Translational            0.889              2.981             38.525
 Rotational               0.889              2.981             23.839
 Vibrational             34.859              8.438              3.342
 Vibration     1          0.803              1.375              0.815
 Vibration     2          0.842              1.280              0.693

 Normal termination of Gaussian 09 at Thu Jan 24 15:58:50 2019.
