 Gaussian 09, Revision D.01,
 Gaussian 09:  ES64L-G09RevD.01 24-Apr-2013

 ---------------------------
 #p b3lyp/6-311++g(d,p) freq
 ---------------------------

 ---
 min
 ---
 Symbolic Z-matrix:
 Charge =  0 Multiplicity = 2

                         Standard orientation:
 ---------------------------------------------------------------------
 Center     Atomic      Atomic             Coordinates (Angstroms)
 Number     Number       Type             X           Y           Z
 ---------------------------------------------------------------------
      1          6           0        0.463094   -0.886796   -0.000000
      2          6           0       -0.157118   -0.117366    1.046627
      3          6           0       -0.157118    0.854781    0.000000
      4          1           0        0.335359    1.829680    0.000000
      5          6           0       -0.157118   -0.117366   -1.046627
      6          1           0       -0.142898   -0.114595   -2.124182
      7          1           0       -0.142898   -0.114595    2.124182
 ---------------------------------------------------------------------

 SCF Done:  E(UB3LYP) =  -154.050922243     A.U. after   16 cycles

 The electronic state is 2-A".
 Alpha  occ. eigenvalues --  -10.23804 -10.21740 -10.21740 -10.20914  -0.93790
 Alpha  occ. eigenvalues --   -0.68737  -0.62660  -0.55546  -0.47591  -0.42606
 Alpha  occ. eigenvalues --   -0.40280  -0.38098  -0.23008  -0.22100
 Alpha virt. eigenvalues --   -0.05314  -0.01127   0.00389   0.01071   0.01924
 Alpha virt. eigenvalues --    0.04388   0.06704   0.07417   0.08922   0.09391
 Alpha virt. eigenvalues --    0.09639   0.10401   0.11463   0.12594   0.12643

  Beta  occ. eigenvalues --  -10.23996 -10.21081 -10.20766 -10.20764  -0.92837
  Beta  occ. eigenvalues --   -0.66320  -0.62705  -0.54234  -0.46717  -0.41995
  Beta  occ. eigenvalues --   -0.39601  -0.35607  -0.23105
  Beta virt. eigenvalues --   -0.09638  -0.05406  -0.00596   0.01162   0.01869
  Beta virt. eigenvalues --    0.02105   0.04470   0.07085   0.07419   0.09473
  Beta virt. eigenvalues --    0.09683   0.09982   0.10593   0.11481   0.12895

 Mulliken charges and spin densities:
               1          2
     1  C   -0.190545  -0.141132
     2  C   -0.115132   0.648701
     3  C   -0.071337  -0.136854
     4  H    0.149447   0.005757
     5  C   -0.115132   0.648701
     6  H    0.171350  -0.012586
     7  H    0.171350  -0.012586
 Sum of Mulliken charges =  -0.00000   1.00000

 Dipole moment (field-independent basis, Debye):
    X=             -0.8478    Y=              2.0920    Z=              0.0000  Tot=              2.2573
 Quadrupole moment (field-independent basis, Debye-Ang):
   XX=            -27.3590   YY=            -25.1129   ZZ=            -19.5550
   XY=              2.6810   XZ=              0.0000   YZ=             -0.0000

  Exact polarizability:  34.350  -6.706  49.805  -0.000   0.000  51.678
 Approx polarizability:  51.133 -17.085  92.247   0.000  -0.000  80.113

                      1                      2                      3
                     A"                     A'                     A'
 Frequencies --    526.0970               553.0324               619.0134
 Red. masses --      1.5478                 2.8448                 1.3960
 Frc consts  --      0.2524                 0.5126                 0.3152
 IR Inten    --     18.9664                22.3684                51.7444

                      4                      5                      6
                     A'                     A"                     A'
 Frequencies --    726.3544               825.6628               934.5997
 Red. masses --      2.2255                 3.9125                 2.4473
 Frc consts  --      0.6918                 1.5715                 1.2595
 IR Inten    --     77.7125                16.5452                32.5936

                      7                      8                      9
                     A'                     A"                     A"
 Frequencies --   1007.8403              1027.1139              1092.2119
 Red. masses --      1.4028                 1.3726                 1.4768
 Frc consts  --      0.8395                 0.8532                 1.0380
 IR Inten    --      6.8957                 7.3950                 1.7521

                     10                     11                     12
                     A'                     A"                     A'
 Frequencies --   1255.3793              1302.5234              1314.3157
 Red. masses --      2.5374                 2.2882                 4.9807
 Frc consts  --      2.3561                 2.2873                 5.0692
 IR Inten    --      9.6433                 3.0559                 5.0477

                     13                     14                     15
                     A'                     A"                     A'
 Frequencies --   3078.5741              3258.6494              3263.4154
 Red. masses --      1.0908                 1.0949                 1.1037
 Frc consts  --      6.0909                 6.8500                 6.9253
 IR Inten    --     22.2497                 0.5829                 0.0031

 - Thermochemistry -
 -------------------
 Temperature   298.150 Kelvin.  Pressure   1.00000 Atm.
 Atom     1 has atomic number  6 and mass  12.00000

 Molecular mass:    51.02348 amu.
 Principal axes and moments of inertia in atomic units:
                           1         2         3
     Eigenvalues --    91.07248 133.91844 209.87961
           X            0.00000  -0.26562   0.96408
           Y            0.00000   0.96408   0.26562
           Z            1.00000  -0.00000  -0.00000
 This molecule is an asymmetric top.
 Rotational symmetry number  1.
 Rotational temperatures (Kelvin)      0.95104     0.64677     0.41268
 Rotational constants (GHZ):          19.81654    13.47642     8.59894
 Zero-point vibrational energy     124320.6 (Joules/Mol)
                                   29.71334 (Kcal/Mol)
 Warning -- explicit consideration of   3 degrees of freedom as
           vibrations may cause significant error
 Vibrational temperatures:    756.94   795.69   890.62  1045.06  1187.94
          (Kelvin)           1344.68  1450.06  1477.79  1571.45  1806.21
                             1874.04  1891.00  4429.38  4688.46  4695.32

 Zero-point correction=                           0.047351 (Hartree/Particle)
 Thermal correction to Energy=                    0.051078
 Thermal correction to Enthalpy=                  0.052022
 Thermal correction to Gibbs Free Energy=         0.021606
 Sum of electronic and zero-point Energies=           -154.003571
 Sum of electronic and thermal Energies=              -153.999845
 Sum of electronic and thermal Enthalpies=            -153.998900
 Sum of electronic and thermal Free Energies=         -154.029316

                     E (Thermal)             CV                S
                      KCal/Mol        Cal/Mol-Kelvin    Cal/Mol-Kelvin
 Total                   32.052             12.586             64.016
 Electronic               0.000              0.000              1.377
 Translational            0.889              2.981             37.712
 Rotational               0.889              2.981             22.464
 Vibrational             30.274              6.624              2.462
 Vibration     1          0.881              1.192              0.596
 Vibration     2          0.908              1.133              0.538
 Vibration     3          0.979              0.992              0.418

 Normal termination of Gaussian 09 at Sun Mar  4 21:08:32 2018.
