 Gaussian 09, Revision D.01,
 Gaussian 09:  ES64L-G09RevD.01 24-Apr-2013

 ---------------------------
 #p b3lyp/6-311++g(d,p) freq
 ---------------------------

 ---
 min
 ---
 Symbolic Z-matrix:
 Charge =  1 Multiplicity = 1

                         Standard orientation:
 ---------------------------------------------------------------------
 Center     Atomic      Atomic             Coordinates (Angstroms)
 Number     Number       Type             X           Y           Z
 ---------------------------------------------------------------------
      1          6           0        0.651513    0.818731    0.000053
      2          1           0        0.710303    1.366176   -0.937626
      3          1           0        0.710099    1.366216    0.937720
      4          6           0        0.875224   -0.620304    0.000108
      5          1           0        1.664938   -1.365946    0.000210
      6          6           0       -0.444948   -0.534346   -0.000037
      7          6           0       -1.596012    0.108178   -0.000175
 ---------------------------------------------------------------------

 SCF Done:  E(RB3LYP) =  -153.709408905     A.U. after   13 cycles

 The electronic state is 1-A.
 Alpha  occ. eigenvalues --  -10.54662 -10.52739 -10.51453 -10.48152  -1.18774
 Alpha  occ. eigenvalues --   -0.99699  -0.90515  -0.81331  -0.74246  -0.70851
 Alpha  occ. eigenvalues --   -0.59163  -0.58602  -0.55663
 Alpha virt. eigenvalues --   -0.40775  -0.33010  -0.22181  -0.18831  -0.16792
 Alpha virt. eigenvalues --   -0.15612  -0.12855  -0.11749  -0.09394  -0.07640
 Alpha virt. eigenvalues --   -0.06935  -0.06804  -0.05596  -0.05287  -0.03164

 Mulliken charges:
               1
     1  C   -0.342460
     2  H    0.254719
     3  H    0.254719
     4  C    0.112346
     5  H    0.325508
     6  C    0.138269
     7  C    0.256898
 Sum of Mulliken charges =   1.00000

 Dipole moment (field-independent basis, Debye):
    X=              3.2772    Y=             -0.2735    Z=              0.0004  Tot=              3.2886
 Quadrupole moment (field-independent basis, Debye-Ang):
   XX=            -17.3312   YY=            -16.0143   ZZ=            -19.5794
   XY=             -0.1529   XZ=              0.0002   YZ=             -0.0001

  Exact polarizability:  52.366   0.698  35.518   0.005   0.001  25.163
 Approx polarizability: 124.410   2.989  57.298   0.009  -0.000  36.578

                      1                      2                      3
                      A                      A                      A
 Frequencies --    138.0259               160.0126               565.9697
 Red. masses --      7.1113                 4.2692                 8.6592
 Frc consts  --      0.0798                 0.0644                 1.6342
 IR Inten    --      1.8498                 0.0207                60.1876

                      4                      5                      6
                      A                      A                      A
 Frequencies --    650.7580               933.3778               936.0853
 Red. masses --      1.0555                 1.2044                 1.5119
 Frc consts  --      0.2634                 0.6182                 0.7805
 IR Inten    --      4.0606                 6.5578                21.3319

                      7                      8                      9
                      A                      A                      A
 Frequencies --   1037.6393              1064.7690              1150.5133
 Red. masses --      1.4180                 1.2759                 2.5524
 Frc consts  --      0.8995                 0.8523                 1.9906
 IR Inten    --      0.0041                24.9954                 5.4636

                     10                     11                     12
                      A                      A                      A
 Frequencies --   1245.0335              1445.6578              1892.4833
 Red. masses --      5.4185                 1.1007                 9.1957
 Frc consts  --      4.9487                 1.3553                19.4044
 IR Inten    --     25.6808                 8.4274               588.5136

                     13                     14                     15
                      A                      A                      A
 Frequencies --   3096.9352              3205.4208              3217.4617
 Red. masses --      1.0473                 1.1156                 1.1239
 Frc consts  --      5.9179                 6.7533                 6.8552
 IR Inten    --     32.6286                62.6656                36.4798

 - Thermochemistry -
 -------------------
 Temperature   298.150 Kelvin.  Pressure   1.00000 Atm.
 Atom     1 has atomic number  6 and mass  12.00000

 Molecular mass:    51.02348 amu.
 Principal axes and moments of inertia in atomic units:
                           1         2         3
     Eigenvalues --    84.29343 187.94410 259.58009
           X            0.99996  -0.00860  -0.00011
           Y            0.00860   0.99996   0.00002
           Z            0.00011  -0.00002   1.00000
 This molecule is an asymmetric top.
 Rotational symmetry number  1.
 Rotational temperatures (Kelvin)      1.02753     0.46085     0.33367
 Rotational constants (GHZ):          21.41023     9.60254     6.95254
 Zero-point vibrational energy     124053.6 (Joules/Mol)
                                   29.64952 (Kcal/Mol)
 Warning -- explicit consideration of   3 degrees of freedom as
           vibrations may cause significant error
 Vibrational temperatures:    198.59   230.22   814.30   936.29  1342.92
          (Kelvin)           1346.82  1492.93  1531.96  1655.33  1791.32
                             2079.98  2722.86  4455.79  4611.88  4629.20

 Zero-point correction=                           0.047250 (Hartree/Particle)
 Thermal correction to Energy=                    0.051883
 Thermal correction to Enthalpy=                  0.052827
 Thermal correction to Gibbs Free Energy=         0.020800
 Sum of electronic and zero-point Energies=           -153.662159
 Sum of electronic and thermal Energies=              -153.657526
 Sum of electronic and thermal Enthalpies=            -153.656582
 Sum of electronic and thermal Free Energies=         -153.688609

                     E (Thermal)             CV                S
                      KCal/Mol        Cal/Mol-Kelvin    Cal/Mol-Kelvin
 Total                   32.557             13.883             67.408
 Electronic               0.000              0.000              0.000
 Translational            0.889              2.981             37.712
 Rotational               0.889              2.981             22.935
 Vibrational             30.780              7.921              6.760
 Vibration     1          0.614              1.915              2.831
 Vibration     2          0.622              1.891              2.550
 Vibration     3          0.922              1.105              0.512

 Optimization completed.
    -- Stationary point found.
 Normal termination of Gaussian 09 at Thu Jan 24 15:50:38 2019.
