 Gaussian 09, Revision D.01,
 Gaussian 09:  ES64L-G09RevD.01 24-Apr-2013

 ---------------------------
 #p b3lyp/6-311++g(d,p) freq
 ---------------------------

 ---
 min
 ---
 Symbolic Z-matrix:
 Charge =  0 Multiplicity = 4

                         Standard orientation:
 ---------------------------------------------------------------------
 Center     Atomic      Atomic             Coordinates (Angstroms)
 Number     Number       Type             X           Y           Z
 ---------------------------------------------------------------------
      1          6           0        1.819288   -0.232366    0.008008
      2          1           0        2.832992   -0.550643   -0.016678
      3          6           0        0.646544    0.144368    0.009851
      4          6           0       -0.653514    0.536614   -0.013454
      5          1           0       -0.896183    1.576891    0.197990
      6          6           0       -1.758444   -0.448256   -0.140206
      7          1           0       -2.260057   -1.028406    0.633489
 ---------------------------------------------------------------------

 SCF Done:  E(UB3LYP) =  -153.998002042     A.U. after   16 cycles

 The electronic state is 4-A.
 Alpha  occ. eigenvalues --  -10.22485 -10.22095 -10.20346 -10.20159  -0.82685
 Alpha  occ. eigenvalues --   -0.75304  -0.64372  -0.55292  -0.49896  -0.46409
 Alpha  occ. eigenvalues --   -0.37998  -0.31175  -0.29627  -0.23879  -0.19575
 Alpha virt. eigenvalues --   -0.00683   0.00282   0.01536   0.01882   0.03958
 Alpha virt. eigenvalues --    0.05541   0.05994   0.07624   0.09228   0.09383
 Alpha virt. eigenvalues --    0.10243   0.10438   0.11391   0.12238   0.13064

  Beta  occ. eigenvalues --  -10.21148 -10.20433 -10.19627 -10.19344  -0.80346
  Beta  occ. eigenvalues --   -0.71696  -0.59275  -0.53878  -0.48288  -0.44116
  Beta  occ. eigenvalues --   -0.32824  -0.29363
  Beta virt. eigenvalues --   -0.15621  -0.06649  -0.05238  -0.00336   0.00547
  Beta virt. eigenvalues --    0.01805   0.02281   0.04992   0.06075   0.07297
  Beta virt. eigenvalues --    0.08244   0.10444   0.10621   0.10764   0.11694

 Mulliken charges and spin densities:
               1          2
     1  C   -1.882475   0.663150
     2  H    0.133903  -0.028257
     3  C    1.545490  -0.150090
     4  C    0.125497   0.579670
     5  H    0.171154   0.007542
     6  C   -0.220191   1.935260
     7  H    0.126622  -0.007276
 Sum of Mulliken charges =  -0.00000   3.00000

 Dipole moment (field-independent basis, Debye):
    X=              0.6828    Y=              0.1621    Z=              0.7340  Tot=              1.0155
 Quadrupole moment (field-independent basis, Debye-Ang):
   XX=            -20.1371   YY=            -23.7969   ZZ=            -25.7559
   XY=             -1.5596   XZ=             -1.7673   YZ=             -0.5230

  Exact polarizability:  80.247  -4.491  36.003   0.328  -0.191  28.536
 Approx polarizability: 124.748 -15.284  48.192   1.505  -0.643  36.206

                      1                      2                      3
                      A                      A                      A
 Frequencies --    197.3448               322.2585               358.6089
 Red. masses --      2.8048                 1.7876                 1.2424
 Frc consts  --      0.0644                 0.1094                 0.0941
 IR Inten    --      3.2598                18.1195                56.9012

                      4                      5                      6
                      A                      A                      A
 Frequencies --    448.4138               561.6701               573.7230
 Red. masses --      2.4040                 1.4016                 6.1200
 Frc consts  --      0.2848                 0.2605                 1.1869
 IR Inten    --      9.1207                22.4079                 8.3376

                      7                      8                      9
                      A                      A                      A
 Frequencies --    638.2623               936.4629               984.5382
 Red. masses --      1.2267                 1.5675                 3.4889
 Frc consts  --      0.2944                 0.8099                 1.9925
 IR Inten    --     60.4667                 3.1256                 4.6908

                     10                     11                     12
                      A                      A                      A
 Frequencies --   1168.9098              1344.8132              1950.1296
 Red. masses --      1.5651                 2.6250                 7.2355
 Frc consts  --      1.2600                 2.7971                16.2123
 IR Inten    --      0.9016                 1.1576                 4.7572

                     13                     14                     15
                      A                      A                      A
 Frequencies --   3107.6301              3112.4464              3461.0679
 Red. masses --      1.0840                 1.0873                 1.1315
 Frc consts  --      6.1679                 6.2060                 7.9862
 IR Inten    --      2.1989                40.2034                68.5579

 - Thermochemistry -
 -------------------
 Temperature   298.150 Kelvin.  Pressure   1.00000 Atm.
 Atom     1 has atomic number  6 and mass  12.00000

 Molecular mass:    51.02348 amu.
 Principal axes and moments of inertia in atomic units:
                           1         2         3
     Eigenvalues --    40.28807 363.08517 398.84446
           X            0.99984  -0.00770  -0.01623
           Y            0.00718   0.99947  -0.03187
           Z            0.01647   0.03175   0.99936
 This molecule is an asymmetric top.
 Rotational symmetry number  1.
 Rotational temperatures (Kelvin)      2.14986     0.23855     0.21716
 Rotational constants (GHZ):          44.79592     4.97057     4.52492
 Zero-point vibrational energy     114639.8 (Joules/Mol)
                                   27.39957 (Kcal/Mol)
 Warning -- explicit consideration of   6 degrees of freedom as
           vibrations may cause significant error
 Vibrational temperatures:    283.93   463.66   515.96   645.17   808.12
          (Kelvin)            825.46   918.32  1347.36  1416.53  1681.80
                             1934.88  2805.80  4471.18  4478.11  4979.70

 Zero-point correction=                           0.043664 (Hartree/Particle)
 Thermal correction to Energy=                    0.048684
 Thermal correction to Enthalpy=                  0.049628
 Thermal correction to Gibbs Free Energy=         0.015974
 Sum of electronic and zero-point Energies=           -153.954338
 Sum of electronic and thermal Energies=              -153.949318
 Sum of electronic and thermal Enthalpies=            -153.948374
 Sum of electronic and thermal Free Energies=         -153.982028

                     E (Thermal)             CV                S
                      KCal/Mol        Cal/Mol-Kelvin    Cal/Mol-Kelvin
 Total                   30.550             16.727             70.832
 Electronic               0.000              0.000              2.755
 Translational            0.889              2.981             37.712
 Rotational               0.889              2.981             23.283
 Vibrational             28.772             10.765              7.083
 Vibration     1          0.637              1.844              2.158
 Vibration     2          0.707              1.631              1.299
 Vibration     3          0.733              1.558              1.128
 Vibration     4          0.807              1.364              0.801
 Vibration     5          0.917              1.114              0.521
 Vibration     6          0.930              1.088              0.497

 Optimization completed.
    -- Stationary point found.
 Normal termination of Gaussian 09 at Sun Mar  4 21:10:25 2018.
