 Gaussian 09, Revision D.01,
 Gaussian 09:  ES64L-G09RevD.01 24-Apr-2013

 ---------------------------
 #p b3lyp/6-311++g(d,p) freq
 ---------------------------

 ---
 min
 ---
 Symbolic Z-matrix:
 Charge =  0 Multiplicity = 4

                         Standard orientation:
 ---------------------------------------------------------------------
 Center     Atomic      Atomic             Coordinates (Angstroms)
 Number     Number       Type             X           Y           Z
 ---------------------------------------------------------------------
      1          6           0        0.000000    0.000000   -1.768009
      2          1           0        0.000000    1.021380   -2.165960
      3          1           0        0.884541   -0.510690   -2.165960
      4          1           0       -0.884541   -0.510690   -2.165960
      5          6           0        0.000000    0.000000   -0.318287
      6          6           0        0.000000    0.000000    0.939227
      7          6           0        0.000000    0.000000    2.230049
 ---------------------------------------------------------------------

 SCF Done:  E(UB3LYP) =  -153.997822805     A.U. after   14 cycles

 The electronic state is 4-A1.
 Alpha  occ. eigenvalues --  -10.24926 -10.20830 -10.20676 -10.19756  -0.82153
 Alpha  occ. eigenvalues --   -0.76643  -0.67885  -0.49171  -0.45318  -0.45318
 Alpha  occ. eigenvalues --   -0.41247  -0.35281  -0.35281  -0.21956  -0.21956
 Alpha virt. eigenvalues --   -0.01226   0.02868   0.02868   0.03481   0.05333
 Alpha virt. eigenvalues --    0.05877   0.05877   0.09034   0.09034   0.09304
 Alpha virt. eigenvalues --    0.09805   0.09805   0.11154   0.13135   0.13135

  Beta  occ. eigenvalues --  -10.21100 -10.20785 -10.20095 -10.19158  -0.79595
  Beta  occ. eigenvalues --   -0.74562  -0.62996  -0.47622  -0.44170  -0.44170
  Beta  occ. eigenvalues --   -0.31289  -0.31289
  Beta virt. eigenvalues --   -0.17910  -0.07738  -0.07738  -0.01121   0.03078
  Beta virt. eigenvalues --    0.03078   0.04175   0.06382   0.06446   0.06446
  Beta virt. eigenvalues --    0.09261   0.09261   0.09520   0.11419   0.12914

 Mulliken charges and spin densities:
               1          2
     1  C   -0.453584  -0.071867
     2  H    0.162233   0.036550
     3  H    0.162233   0.036550
     4  H    0.162233   0.036550
     5  C    0.011201   1.152328
     6  C    0.320491  -0.285603
     7  C   -0.364807   2.095491
 Sum of Mulliken charges =  -0.00000   3.00000

 Dipole moment (field-independent basis, Debye):
    X=             -0.0000    Y=             -0.0000    Z=             -1.9021  Tot=              1.9021
 Quadrupole moment (field-independent basis, Debye-Ang):
   XX=            -24.6387   YY=            -24.6387   ZZ=            -20.3448
   XY=              0.0000   XZ=              0.0000   YZ=             -0.0000

  Exact polarizability:  27.921  -0.000  27.921  -0.000  -0.000  80.385
 Approx polarizability:  35.142  -0.000  35.142   0.000   0.000 127.118

                      1                      2                      3
                      E                      E                      E
 Frequencies --    138.5813               138.5847               403.1577
 Red. masses --      4.0159                 4.0159                11.5004
 Frc consts  --      0.0454                 0.0454                 1.1013
 IR Inten    --      7.1256                 7.1250                 0.0003

                      4                      5                      6
                      E                     A1                      E
 Frequencies --    403.1588               798.4654              1021.8142
 Red. masses --     11.5004                 4.9699                 1.3250
 Frc consts  --      1.1013                 1.8669                 0.8151
 IR Inten    --      0.0003                 0.5962                 1.2504

                      7                      8                      9
                      E                     A1                     A1
 Frequencies --   1021.8154              1397.8482              1444.3236
 Red. masses --      1.3250                 1.3611                 5.3096
 Frc consts  --      0.8151                 1.5670                 6.5259
 IR Inten    --      1.2505                 4.1513                 0.9839

                     10                     11                     12
                      E                      E                     A1
 Frequencies --   1463.6919              1463.6922              1861.4210
 Red. masses --      1.0397                 1.0397                11.3447
 Frc consts  --      1.3124                 1.3124                23.1597
 IR Inten    --      8.7037                 8.7049                 4.1129

                     13                     14                     15
                     A1                      E                      E
 Frequencies --   2995.2584              3048.4999              3048.5002
 Red. masses --      1.0328                 1.1001                 1.1001
 Frc consts  --      5.4593                 6.0236                 6.0236
 IR Inten    --     28.4155                 8.9490                 8.9462

 - Thermochemistry -
 -------------------
 Temperature   298.150 Kelvin.  Pressure   1.00000 Atm.
 Atom     1 has atomic number  6 and mass  12.00000

 Molecular mass:    51.02348 amu.
 Principal axes and moments of inertia in atomic units:
                           1         2         3
     Eigenvalues --    11.26364 442.58306 442.58306
           X            0.00000   0.97648   0.21560
           Y            0.00000  -0.21560   0.97648
           Z            1.00000   0.00000  -0.00000
 This molecule is a prolate symmetric top.
 Rotational symmetry number  3.
 Rotational temperatures (Kelvin)      7.68968     0.19570     0.19570
 Rotational constants (GHZ):         160.22715     4.07775     4.07775
 Zero-point vibrational energy     123507.3 (Joules/Mol)
                                   29.51896 (Kcal/Mol)
 Warning -- explicit consideration of   4 degrees of freedom as
           vibrations may cause significant error
 Vibrational temperatures:    199.39   199.39   580.05   580.05  1148.81
          (Kelvin)           1470.16  1470.16  2011.19  2078.06  2105.92
                             2105.92  2678.17  4309.50  4386.11  4386.11

 Zero-point correction=                           0.047041 (Hartree/Particle)
 Thermal correction to Energy=                    0.051986
 Thermal correction to Enthalpy=                  0.052930
 Thermal correction to Gibbs Free Energy=         0.020340
 Sum of electronic and zero-point Energies=           -153.950781
 Sum of electronic and thermal Energies=              -153.945837
 Sum of electronic and thermal Enthalpies=            -153.944892
 Sum of electronic and thermal Free Energies=         -153.977483

                     E (Thermal)             CV                S
                      KCal/Mol        Cal/Mol-Kelvin    Cal/Mol-Kelvin
 Total                   32.622             14.467             68.592
 Electronic               0.000              0.000              2.755
 Translational            0.889              2.981             37.712
 Rotational               0.889              2.981             20.133
 Vibrational             30.844              8.506              7.992
 Vibration     1          0.614              1.915              2.823
 Vibration     2          0.614              1.915              2.823
 Vibration     3          0.769              1.463              0.951
 Vibration     4          0.769              1.463              0.951

 Optimization completed.
    -- Stationary point found.
 Normal termination of Gaussian 09 at Sun Mar  4 21:08:50 2018.
