 Gaussian 09, Revision D.01,
 Gaussian 09:  ES64L-G09RevD.01 24-Apr-2013

 ---------------------------
 #p b3lyp/6-311++g(d,p) freq
 ---------------------------

 ---
 min
 ---
 Symbolic Z-matrix:
 Charge =  1 Multiplicity = 1

                         Standard orientation:
 ---------------------------------------------------------------------
 Center     Atomic      Atomic             Coordinates (Angstroms)
 Number     Number       Type             X           Y           Z
 ---------------------------------------------------------------------
      1          6           0       -0.000016   -1.035754   -0.408331
      2          6           0       -0.896774   -0.081013    0.200269
      3          1           0       -1.801016   -0.170842    0.795496
      4          6           0       -0.000006    0.937833   -0.149676
      5          1           0       -0.000026    1.901365   -0.645608
      6          6           0        0.896790   -0.081013    0.200197
      7          1           0        1.801080   -0.170842    0.795352
 ---------------------------------------------------------------------

 SCF Done:  E(RB3LYP) =  -153.769211629     A.U. after   12 cycles

 The electronic state is 1-A.
 Alpha  occ. eigenvalues --  -10.52456 -10.52450 -10.51198 -10.49157  -1.24607
 Alpha  occ. eigenvalues --   -0.92164  -0.92096  -0.81832  -0.76995  -0.68457
 Alpha  occ. eigenvalues --   -0.65403  -0.64104  -0.51334
 Alpha virt. eigenvalues --   -0.32215  -0.31009  -0.28692  -0.15323  -0.14664
 Alpha virt. eigenvalues --   -0.14206  -0.11259  -0.11154  -0.08913  -0.08306
 Alpha virt. eigenvalues --   -0.07164  -0.05211  -0.05208  -0.04165  -0.03451

 Mulliken charges:
               1
     1  C   -0.083897
     2  C    0.207483
     3  H    0.294876
     4  C   -0.209641
     5  H    0.288819
     6  C    0.207483
     7  H    0.294876
 Sum of Mulliken charges =   1.00000

 Dipole moment (field-independent basis, Debye):
    X=              0.0001    Y=              2.2462    Z=              1.5416  Tot=              2.7243
 Quadrupole moment (field-independent basis, Debye-Ang):
   XX=            -13.1018   YY=            -18.6959   ZZ=            -19.9036
   XY=             -0.0001   XZ=             -0.0003   YZ=             -3.2362

  Exact polarizability:  35.955   0.000  42.671  -0.000   1.822  24.711
 Approx polarizability:  60.199   0.000  88.081  -0.001   6.134  38.180

                      1                      2                      3
                      A                      A                      A
 Frequencies --    521.2589               571.6595               751.7418
 Red. masses --      2.5274                 2.2828                 5.3374
 Frc consts  --      0.4046                 0.4395                 1.7771
 IR Inten    --      4.6872                25.0750                 0.1959

                      4                      5                      6
                      A                      A                      A
 Frequencies --    850.0095               939.3738               997.2744
 Red. masses --      1.7233                 1.4862                 1.6403
 Frc consts  --      0.7336                 0.7727                 0.9612
 IR Inten    --     42.5007                 0.0328                44.7317

                      7                      8                      9
                      A                      A                      A
 Frequencies --   1036.6462              1049.3376              1100.0551
 Red. masses --      1.1050                 1.3235                 1.3251
 Frc consts  --      0.6996                 0.8586                 0.9448
 IR Inten    --      9.7315                12.8591                 4.7280

                     10                     11                     12
                      A                      A                      A
 Frequencies --   1282.7138              1344.0200              1439.0983
 Red. masses --      4.0673                 4.3410                 5.0027
 Frc consts  --      3.9429                 4.6201                 6.1043
 IR Inten    --     30.6635                37.7289                 9.9288

                     13                     14                     15
                      A                      A                      A
 Frequencies --   3198.7379              3200.7943              3231.0364
 Red. masses --      1.0942                 1.1023                 1.1216
 Frc consts  --      6.5963                 6.6540                 6.8990
 IR Inten    --     55.2671                97.4558                46.6739

 - Thermochemistry -
 -------------------
 Temperature   298.150 Kelvin.  Pressure   1.00000 Atm.
 Atom     1 has atomic number  6 and mass  12.00000

 Molecular mass:    51.02348 amu.
 Principal axes and moments of inertia in atomic units:
                           1         2         3
     Eigenvalues --   109.46834 114.81227 189.89326
           X            0.00000   1.00000   0.00004
           Y            0.99788   0.00000  -0.06505
           Z            0.06505  -0.00004   0.99788
 This molecule is an asymmetric top.
 Rotational symmetry number  1.
 Rotational temperatures (Kelvin)      0.79122     0.75440     0.45612
 Rotational constants (GHZ):          16.48642    15.71906     9.50398
 Zero-point vibrational energy     128680.8 (Joules/Mol)
                                   30.75546 (Kcal/Mol)
 Warning -- explicit consideration of   2 degrees of freedom as
           vibrations may cause significant error
 Vibrational temperatures:    749.97   822.49  1081.59  1222.97  1351.55
          (Kelvin)           1434.85  1491.50  1509.76  1582.73  1845.54
                             1933.74  2070.54  4602.26  4605.22  4648.73

 Zero-point correction=                           0.049012 (Hartree/Particle)
 Thermal correction to Energy=                    0.052587
 Thermal correction to Enthalpy=                  0.053531
 Thermal correction to Gibbs Free Energy=         0.024008
 Sum of electronic and zero-point Energies=           -153.720200
 Sum of electronic and thermal Energies=              -153.716625
 Sum of electronic and thermal Enthalpies=            -153.715680
 Sum of electronic and thermal Free Energies=         -153.745203

                     E (Thermal)             CV                S
                      KCal/Mol        Cal/Mol-Kelvin    Cal/Mol-Kelvin
 Total                   32.999             11.713             62.136
 Electronic               0.000              0.000              0.000
 Translational            0.889              2.981             37.712
 Rotational               0.889              2.981             22.394
 Vibrational             31.221              5.752              2.030
 Vibration     1          0.876              1.203              0.607
 Vibration     2          0.928              1.093              0.501

 Optimization completed.
    -- Stationary point found.
 Normal termination of Gaussian 09 at Thu Jan 24 15:49:36 2019.
