 Gaussian 09, Revision D.01,
 Gaussian 09:  ES64L-G09RevD.01 24-Apr-2013

 ---------------------------
 #p b3lyp/6-311++g(d,p) freq
 ---------------------------

 ---
 min
 ---
 Symbolic Z-matrix:
 Charge =  1 Multiplicity = 3

                         Standard orientation:
 ---------------------------------------------------------------------
 Center     Atomic      Atomic             Coordinates (Angstroms)
 Number     Number       Type             X           Y           Z
 ---------------------------------------------------------------------
      1          6           0       -0.596957   -0.977065    0.000000
      2          1           0       -1.496674   -1.578027    0.000000
      3          6           0        0.747789   -0.885403    0.000000
      4          1           0        1.718198   -1.364374    0.000000
      5          6           0       -0.000000    0.287044   -0.000000
      6          6           0       -0.053055    1.660008   -0.000000
      7          1           0       -0.808181    2.434899   -0.000000
 ---------------------------------------------------------------------

 SCF Done:  E(UB3LYP) =  -153.762169462     A.U. after   13 cycles

 The electronic state is 3-A".
 Alpha  occ. eigenvalues --  -10.49994 -10.49507 -10.49289 -10.47852  -1.20715
 Alpha  occ. eigenvalues --   -1.00051  -0.84770  -0.81405  -0.75643  -0.66902
 Alpha  occ. eigenvalues --   -0.65374  -0.63731  -0.50901  -0.49542
 Alpha virt. eigenvalues --   -0.28661  -0.22773  -0.15127  -0.13858  -0.13609
 Alpha virt. eigenvalues --   -0.11983  -0.10132  -0.10018  -0.09112  -0.05411
 Alpha virt. eigenvalues --   -0.05006  -0.04760  -0.03851  -0.02654  -0.01812

  Beta  occ. eigenvalues --  -10.49989 -10.49136 -10.49024 -10.45223  -1.19818
  Beta  occ. eigenvalues --   -0.94678  -0.84008  -0.80499  -0.73354  -0.64528
  Beta  occ. eigenvalues --   -0.63794  -0.62247
  Beta virt. eigenvalues --   -0.37812  -0.32151  -0.27090  -0.18252  -0.14829
  Beta virt. eigenvalues --   -0.13634  -0.13240  -0.11232  -0.09861  -0.09234
  Beta virt. eigenvalues --   -0.08776  -0.04517  -0.04306  -0.03896  -0.03661

 Mulliken charges and spin densities:
               1          2
     1  C    0.032361   0.182732
     2  H    0.269731  -0.002686
     3  C    0.065278   0.141480
     4  H    0.268495   0.004236
     5  C    0.160720   0.030505
     6  C   -0.039668   1.665765
     7  H    0.243083  -0.022033
 Sum of Mulliken charges =   1.00000   2.00000

 Dipole moment (field-independent basis, Debye):
    X=             -0.5513    Y=             -0.8817    Z=              0.0000  Tot=              1.0399
 Quadrupole moment (field-independent basis, Debye-Ang):
   XX=            -14.7604   YY=             -9.6593   ZZ=            -21.2800
   XY=             -2.3359   XZ=              0.0000   YZ=             -0.0000

  Exact polarizability:  32.473  -1.811  51.478   0.006   0.026  19.219
 Approx polarizability:  49.409  -1.161  76.174   0.000  -0.000  27.298

                      1                      2                      3
                     A'                     A"                     A"
 Frequencies --    358.6170               407.7965               598.1765
 Red. masses --      2.4686                 2.5673                 1.3473
 Frc consts  --      0.1871                 0.2515                 0.2840
 IR Inten    --     10.3831                23.1022                 6.2725

                      4                      5                      6
                     A'                     A"                     A'
 Frequencies --    794.2010               820.0109               861.8042
 Red. masses --      1.3309                 1.3872                 1.8419
 Frc consts  --      0.4946                 0.5496                 0.8060
 IR Inten    --     22.4909                45.7042                 4.5387

                      7                      8                      9
                     A"                     A'                     A'
 Frequencies --    968.5575               999.3783              1018.4585
 Red. masses --      1.4329                 1.5388                 1.8499
 Frc consts  --      0.7920                 0.9055                 1.1305
 IR Inten    --      0.0000                 7.9953                25.7207

                     10                     11                     12
                     A'                     A'                     A'
 Frequencies --   1162.6904              1419.4459              1711.5732
 Red. masses --      5.0140                 7.2340                 6.4494
 Frc consts  --      3.9936                 8.5875                11.1316
 IR Inten    --     29.7976                32.5425                 0.7344

                     13                     14                     15
                     A'                     A'                     A'
 Frequencies --   3229.1865              3241.1170              3266.2605
 Red. masses --      1.0947                 1.0968                 1.1435
 Frc consts  --      6.7255                 6.7882                 7.1875
 IR Inten    --     88.4355                61.0039                44.8959

 - Thermochemistry -
 -------------------
 Temperature   298.150 Kelvin.  Pressure   1.00000 Atm.
 Atom     1 has atomic number  6 and mass  12.00000

 Molecular mass:    51.02348 amu.
 Principal axes and moments of inertia in atomic units:
                           1         2         3
     Eigenvalues --    59.20998 234.26045 293.47043
           X           -0.08134   0.99669   0.00000
           Y            0.99669   0.08134   0.00000
           Z            0.00000   0.00000   1.00000
 This molecule is an asymmetric top.
 Rotational symmetry number  1.
 Rotational temperatures (Kelvin)      1.46282     0.36973     0.29514
 Rotational constants (GHZ):          30.48035     7.70399     6.14965
 Zero-point vibrational energy     124754.2 (Joules/Mol)
                                   29.81697 (Kcal/Mol)
 Warning -- explicit consideration of   3 degrees of freedom as
           vibrations may cause significant error
 Vibrational temperatures:    515.97   586.73   860.64  1142.68  1179.81
          (Kelvin)           1239.94  1393.54  1437.88  1465.33  1672.85
                             2042.26  2462.57  4646.07  4663.24  4699.41

 Zero-point correction=                           0.047516 (Hartree/Particle)
 Thermal correction to Energy=                    0.051520
 Thermal correction to Enthalpy=                  0.052464
 Thermal correction to Gibbs Free Energy=         0.020983
 Sum of electronic and zero-point Energies=           -153.714653
 Sum of electronic and thermal Energies=              -153.710649
 Sum of electronic and thermal Enthalpies=            -153.709705
 Sum of electronic and thermal Free Energies=         -153.741187

                     E (Thermal)             CV                S
                      KCal/Mol        Cal/Mol-Kelvin    Cal/Mol-Kelvin
 Total                   32.329             13.354             66.258
 Electronic               0.000              0.000              2.183
 Translational            0.889              2.981             37.712
 Rotational               0.889              2.981             22.925
 Vibrational             30.552              7.393              3.438
 Vibration     1          0.733              1.558              1.128
 Vibration     2          0.772              1.453              0.934
 Vibration     3          0.956              1.036              0.453

 Optimization completed.
    -- Stationary point found.
 Normal termination of Gaussian 09 at Thu Jan 24 15:53:18 2019.
