 Gaussian 09, Revision D.01,
 Gaussian 09:  ES64L-G09RevD.01 24-Apr-2013

 ---------------------------
 #p b3lyp/6-311++g(d,p) freq
 ---------------------------

 ---
 min
 ---
 Symbolic Z-matrix:
 Charge =  1 Multiplicity = 1

                         Standard orientation:
 ---------------------------------------------------------------------
 Center     Atomic      Atomic             Coordinates (Angstroms)
 Number     Number       Type             X           Y           Z
 ---------------------------------------------------------------------
      1          6           0       -1.514582    0.031365    0.000238
      2          1           0       -2.062314    0.103883   -0.939194
      3          6           0       -0.188022   -0.125265    0.000022
      4          1           0       -2.062021    0.103776    0.939848
      5          6           0        1.050670    0.562021   -0.000132
      6          1           0        1.355345    1.601794   -0.000121
      7          6           0        1.113433   -0.769696   -0.000217
 ---------------------------------------------------------------------

 SCF Done:  E(RB3LYP) =  -153.767723097     A.U. after   12 cycles

 The electronic state is 1-A.
 Alpha  occ. eigenvalues --  -10.52975 -10.51024 -10.49124 -10.49084  -1.20831
 Alpha  occ. eigenvalues --   -1.03337  -0.84540  -0.79586  -0.73174  -0.70650
 Alpha  occ. eigenvalues --   -0.64613  -0.62531  -0.51439
 Alpha virt. eigenvalues --   -0.36632  -0.30903  -0.25642  -0.16814  -0.14632
 Alpha virt. eigenvalues --   -0.11941  -0.11804  -0.10603  -0.09113  -0.08039
 Alpha virt. eigenvalues --   -0.07302  -0.05090  -0.04059  -0.03028  -0.02725

 Mulliken charges:
               1
     1  C   -0.313940
     2  H    0.251569
     3  C    0.339809
     4  H    0.251569
     5  C    0.171368
     6  H    0.309595
     7  C   -0.009971
 Sum of Mulliken charges =   1.00000

 Dipole moment (field-independent basis, Debye):
    X=             -1.9674    Y=              2.5967    Z=              0.0005  Tot=              3.2578
 Quadrupole moment (field-independent basis, Debye-Ang):
   XX=             -9.4275   YY=            -19.6675   ZZ=            -19.2597
   XY=              3.2802   XZ=             -0.0013   YZ=             -0.0005

  Exact polarizability:  66.582  -5.723  31.878  -0.007   0.001  23.173
 Approx polarizability: 167.281 -27.499  56.642  -0.022   0.006  33.889

                      1                      2                      3
                      A                      A                      A
 Frequencies --    285.2853               385.0668               463.7912
 Red. masses --      3.6142                 2.4687                 1.1561
 Frc consts  --      0.1733                 0.2157                 0.1465
 IR Inten    --      6.5548                 4.1339                 1.6746

                      4                      5                      6
                      A                      A                      A
 Frequencies --    785.1697               843.7688               878.1780
 Red. masses --      7.4608                 1.2603                 2.6037
 Frc consts  --      2.7100                 0.5287                 1.1831
 IR Inten    --     66.3645                21.5607                27.6767

                      7                      8                      9
                      A                      A                      A
 Frequencies --    981.8334               983.7971               997.2230
 Red. masses --      1.6626                 1.6751                 1.3633
 Frc consts  --      0.9443                 0.9552                 0.7988
 IR Inten    --      8.4367                 5.6294                41.4595

                     10                     11                     12
                      A                      A                      A
 Frequencies --   1332.7066              1440.3169              1726.7896
 Red. masses --      1.7527                 2.2249                 7.5423
 Frc consts  --      1.8341                 2.7195                13.2505
 IR Inten    --     57.0151                 4.0772                 7.7959

                     13                     14                     15
                      A                      A                      A
 Frequencies --   3099.2342              3197.9114              3242.5750
 Red. masses --      1.0551                 1.1176                 1.1218
 Frc consts  --      5.9713                 6.7342                 6.9492
 IR Inten    --    115.4470                64.0067               112.6144

 - Thermochemistry -
 -------------------
 Temperature   298.150 Kelvin.  Pressure   1.00000 Atm.
 Atom     1 has atomic number  6 and mass  12.00000

 Molecular mass:    51.02348 amu.
 Principal axes and moments of inertia in atomic units:
                           1         2         3
     Eigenvalues --    54.89717 243.47573 285.66553
           X            0.99952   0.03093   0.00016
           Y           -0.03093   0.99952  -0.00006
           Z           -0.00016   0.00005   1.00000
 This molecule is an asymmetric top.
 Rotational symmetry number  1.
 Rotational temperatures (Kelvin)      1.57775     0.35574     0.30320
 Rotational constants (GHZ):          32.87494     7.41241     6.31767
 Zero-point vibrational energy     123476.4 (Joules/Mol)
                                   29.51157 (Kcal/Mol)
 Warning -- explicit consideration of   3 degrees of freedom as
           vibrations may cause significant error
 Vibrational temperatures:    410.46   554.02   667.29  1129.68  1213.99
          (Kelvin)           1263.50  1412.64  1415.46  1434.78  1917.47
                             2072.29  2484.46  4459.10  4601.08  4665.34

 Zero-point correction=                           0.047030 (Hartree/Particle)
 Thermal correction to Energy=                    0.051220
 Thermal correction to Enthalpy=                  0.052164
 Thermal correction to Gibbs Free Energy=         0.021406
 Sum of electronic and zero-point Energies=           -153.720693
 Sum of electronic and thermal Energies=              -153.716503
 Sum of electronic and thermal Enthalpies=            -153.715559
 Sum of electronic and thermal Free Energies=         -153.746317

                     E (Thermal)             CV                S
                      KCal/Mol        Cal/Mol-Kelvin    Cal/Mol-Kelvin
 Total                   32.141             13.714             64.735
 Electronic               0.000              0.000              0.000
 Translational            0.889              2.981             37.712
 Rotational               0.889              2.981             22.861
 Vibrational             30.363              7.752              4.161
 Vibration     1          0.683              1.701              1.502
 Vibration     2          0.754              1.502              1.019
 Vibration     3          0.821              1.330              0.755

 Optimization completed.
    -- Stationary point found.
 Normal termination of Gaussian 09 at Thu Jan 24 15:50:34 2019.
