 Gaussian 09, Revision D.01,
 Gaussian 09:  ES64L-G09RevD.01 24-Apr-2013

 ---------------------------
 #p b3lyp/6-311++g(d,p) freq
 ---------------------------

 ---
 min
 ---
 Symbolic Z-matrix:
 Charge =  1 Multiplicity = 3

                         Standard orientation:
 ---------------------------------------------------------------------
 Center     Atomic      Atomic             Coordinates (Angstroms)
 Number     Number       Type             X           Y           Z
 ---------------------------------------------------------------------
      1          6           0       -0.445182   -0.333011   -0.000672
      2          6           0        0.790288    0.277274   -0.000334
      3          1           0        0.908154    1.384976   -0.000576
      4          6           0        2.040451   -0.243396    0.000554
      5          6           0       -1.765943    0.016101    0.000303
      6          1           0       -2.084906    1.061896    0.001046
      7          1           0       -2.540933   -0.748680    0.000426
 ---------------------------------------------------------------------

 SCF Done:  E(UB3LYP) =  -153.671094788     A.U. after   18 cycles

 The electronic state is 3-A.
 Alpha  occ. eigenvalues --  -10.53909 -10.50626 -10.49224 -10.46966  -1.10899
 Alpha  occ. eigenvalues --   -1.03480  -0.88969  -0.77459  -0.74565  -0.70637
 Alpha  occ. eigenvalues --   -0.63052  -0.56362  -0.53566  -0.50643
 Alpha virt. eigenvalues --   -0.36210  -0.33282  -0.19398  -0.16084  -0.14082
 Alpha virt. eigenvalues --   -0.12238  -0.10230  -0.10076  -0.08362  -0.06944
 Alpha virt. eigenvalues --   -0.05675  -0.04721  -0.03771  -0.03370  -0.02992

  Beta  occ. eigenvalues --  -10.53306 -10.48904 -10.48486 -10.46863  -1.08398
  Beta  occ. eigenvalues --   -1.00308  -0.86722  -0.75167  -0.73007  -0.68883
  Beta  occ. eigenvalues --   -0.58992  -0.54970
  Beta virt. eigenvalues --   -0.43401  -0.35211  -0.34416  -0.28376  -0.16175
  Beta virt. eigenvalues --   -0.15722  -0.13678  -0.11769  -0.09769  -0.09699
  Beta virt. eigenvalues --   -0.08172  -0.06546  -0.05157  -0.04309  -0.03068

 Mulliken charges and spin densities:
               1          2
     1  C    0.393582   0.983527
     2  C   -0.208594   0.046384
     3  H    0.294695   0.044843
     4  C    0.334506   0.365898
     5  C   -0.305284   0.509771
     6  H    0.230755   0.045875
     7  H    0.260340   0.003700
 Sum of Mulliken charges =   1.00000   2.00000

 Dipole moment (field-independent basis, Debye):
    X=             -2.4692    Y=              1.4573    Z=              0.0000  Tot=              2.8672
 Quadrupole moment (field-independent basis, Debye-Ang):
   XX=             -9.3642   YY=            -17.6890   ZZ=            -22.3609
   XY=              1.6800   XZ=             -0.0049   YZ=             -0.0005

  Exact polarizability:  82.360  -0.652  31.884  -0.002   0.002  23.967
 Approx polarizability: 141.875  -3.387  47.646   0.003   0.002  32.588

                      1                      2                      3
                      A                      A                      A
 Frequencies --    138.7485               147.6365               319.4018
 Red. masses --      6.3752                 4.4997                 2.7454
 Frc consts  --      0.0723                 0.0578                 0.1650
 IR Inten    --      5.7554                 0.1532                 6.5063

                      4                      5                      6
                      A                      A                      A
 Frequencies --    499.8576               679.0889               900.0718
 Red. masses --      1.2891                 1.5346                 2.5582
 Frc consts  --      0.1898                 0.4170                 1.2211
 IR Inten    --      6.9877                 7.1686                 0.5605

                      7                      8                      9
                      A                      A                      A
 Frequencies --    927.4327              1006.9373              1112.6040
 Red. masses --      1.2277                 1.3678                 1.9767
 Frc consts  --      0.6222                 0.8171                 1.4417
 IR Inten    --      0.5346                30.4391                13.0434

                     10                     11                     12
                      A                      A                      A
 Frequencies --   1380.5497              1455.2233              1679.9228
 Red. masses --      2.6357                 1.5255                10.4318
 Frc consts  --      2.9598                 1.9033                17.3456
 IR Inten    --    235.6949                33.8528               108.5103

                     13                     14                     15
                      A                      A                      A
 Frequencies --   2898.3011              3067.4300              3183.8297
 Red. masses --      1.0781                 1.0559                 1.1134
 Frc consts  --      5.3357                 5.8537                 6.6497
 IR Inten    --     86.1616                35.5577                31.8546

 - Thermochemistry -
 -------------------
 Temperature   298.150 Kelvin.  Pressure   1.00000 Atm.
 Atom     1 has atomic number  6 and mass  12.00000

 Molecular mass:    51.02348 amu.
 Principal axes and moments of inertia in atomic units:
                           1         2         3
     Eigenvalues --    23.35368 388.23057 411.58416
           X            0.99997   0.00800  -0.00004
           Y           -0.00800   0.99997  -0.00000
           Z            0.00004   0.00000   1.00000
 This molecule is an asymmetric top.
 Rotational symmetry number  1.
 Rotational temperatures (Kelvin)      3.70879     0.22310     0.21044
 Rotational constants (GHZ):          77.27866     4.64863     4.38487
 Zero-point vibrational energy     116020.0 (Joules/Mol)
                                   27.72945 (Kcal/Mol)
 Warning -- explicit consideration of   4 degrees of freedom as
           vibrations may cause significant error
 Vibrational temperatures:    199.63   212.42   459.55   719.18   977.06
          (Kelvin)           1295.00  1334.37  1448.76  1600.79  1986.30
                             2093.74  2417.03  4170.00  4413.34  4580.82

 Zero-point correction=                           0.044190 (Hartree/Particle)
 Thermal correction to Energy=                    0.049253
 Thermal correction to Enthalpy=                  0.050198
 Thermal correction to Gibbs Free Energy=         0.016456
 Sum of electronic and zero-point Energies=           -153.626905
 Sum of electronic and thermal Energies=              -153.621841
 Sum of electronic and thermal Enthalpies=            -153.620897
 Sum of electronic and thermal Free Energies=         -153.654639

                     E (Thermal)             CV                S
                      KCal/Mol        Cal/Mol-Kelvin    Cal/Mol-Kelvin
 Total                   30.907             15.381             71.015
 Electronic               0.000              0.000              2.183
 Translational            0.889              2.981             37.712
 Rotational               0.889              2.981             22.838
 Vibrational             29.129              9.420              8.281
 Vibration     1          0.614              1.915              2.821
 Vibration     2          0.617              1.905              2.702
 Vibration     3          0.705              1.636              1.313
 Vibration     4          0.855              1.250              0.658

 Optimization completed.
    -- Stationary point found.
 Normal termination of Gaussian 09 at Thu Jan 24 15:52:25 2019.
