 Gaussian 09, Revision D.01,
 Gaussian 09:  ES64L-G09RevD.01 24-Apr-2013

 ---------------------------
 #p b3lyp/6-311++g(d,p) freq
 ---------------------------

 ---
 min
 ---
 Symbolic Z-matrix:
 Charge =  0 Multiplicity = 2

                         Standard orientation:
 ---------------------------------------------------------------------
 Center     Atomic      Atomic             Coordinates (Angstroms)
 Number     Number       Type             X           Y           Z
 ---------------------------------------------------------------------
      1          6           0        1.087377   -0.085479    0.095521
      2          6           0       -0.181094   -0.776145   -0.292679
      3          6           0       -1.273445   -0.155333    0.184133
      4          1           0        1.455314   -0.312557    1.091055
      5          1           0        1.871039    0.035986   -0.650585
      6          6           0       -0.149501    0.778194    0.028408
      7          1           0       -0.226376    1.709149   -0.532768
 ---------------------------------------------------------------------

 SCF Done:  E(UB3LYP) =  -154.028117014     A.U. after   17 cycles

 The electronic state is 2-A.
 Alpha  occ. eigenvalues --  -10.26228 -10.24504 -10.24135 -10.20274  -0.97120
 Alpha  occ. eigenvalues --   -0.72839  -0.62672  -0.53116  -0.50901  -0.43996
 Alpha  occ. eigenvalues --   -0.39822  -0.35048  -0.27350  -0.24282
 Alpha virt. eigenvalues --   -0.04134  -0.01917  -0.00449   0.00865   0.02099
 Alpha virt. eigenvalues --    0.03833   0.06862   0.06964   0.07874   0.08343
 Alpha virt. eigenvalues --    0.09249   0.11597   0.11868   0.12753   0.13430

  Beta  occ. eigenvalues --  -10.25593 -10.24073 -10.23510 -10.20079  -0.96287
  Beta  occ. eigenvalues --   -0.72578  -0.60984  -0.52508  -0.49316  -0.41969
  Beta  occ. eigenvalues --   -0.39050  -0.33329  -0.25777
  Beta virt. eigenvalues --   -0.12842  -0.02842  -0.00966   0.00081   0.01141
  Beta virt. eigenvalues --    0.02303   0.04079   0.06931   0.07062   0.08112
  Beta virt. eigenvalues --    0.08408   0.09805   0.11803   0.12056   0.12829

 Mulliken charges and spin densities:
               1          2
     1  C   -0.459833   0.006973
     2  C    0.275773   0.558180
     3  C   -0.330458   0.024406
     4  H    0.175210  -0.003679
     5  H    0.143211   0.005104
     6  C    0.016836   0.384675
     7  H    0.179260   0.024341
 Sum of Mulliken charges =  -0.00000   1.00000

 Dipole moment (field-independent basis, Debye):
    X=              3.5376    Y=              1.0868    Z=             -0.2754  Tot=              3.7110
 Quadrupole moment (field-independent basis, Debye-Ang):
   XX=            -28.1039   YY=            -23.4641   ZZ=            -23.9050
   XY=             -0.7284   XZ=              0.8244   YZ=             -1.5242

  Exact polarizability:  53.200   0.649  42.165  -2.628   1.137  33.609
 Approx polarizability:  79.830   0.592  73.964  -6.352   5.460  49.241

                      1                      2                      3
                      A                      A                      A
 Frequencies --    418.1951               658.8273               735.1594
 Red. masses --      3.9831                 4.4869                 2.5763
 Frc consts  --      0.4104                 1.1475                 0.8204
 IR Inten    --     21.2455                20.1478                 2.9724

                      4                      5                      6
                      A                      A                      A
 Frequencies --    803.4601               909.4192              1016.8414
 Red. masses --      4.6215                 1.7190                 1.3734
 Frc consts  --      1.7578                 0.8376                 0.8367
 IR Inten    --     12.2363                 5.3483                 3.8683

                      7                      8                      9
                      A                      A                      A
 Frequencies --   1039.7829              1082.6480              1164.7151
 Red. masses --      1.2463                 1.2655                 1.3617
 Frc consts  --      0.7939                 0.8739                 1.0884
 IR Inten    --      6.4743                18.8906                10.0785

                     10                     11                     12
                      A                      A                      A
 Frequencies --   1184.5859              1447.2722              1511.0022
 Red. masses --      3.5695                 5.0874                 1.2770
 Frc consts  --      2.9511                 6.2784                 1.7178
 IR Inten    --      3.3810                 7.9090                 2.6739

                     13                     14                     15
                      A                      A                      A
 Frequencies --   3088.7687              3100.8762              3171.9861
 Red. masses --      1.0559                 1.0897                 1.1137
 Frc consts  --      5.9356                 6.1736                 6.6023
 IR Inten    --     19.0427                 4.6509                 5.7169

 - Thermochemistry -
 -------------------
 Temperature   298.150 Kelvin.  Pressure   1.00000 Atm.
 Atom     1 has atomic number  6 and mass  12.00000

 Molecular mass:    51.02348 amu.
 Principal axes and moments of inertia in atomic units:
                           1         2         3
     Eigenvalues --    76.12379 154.31790 206.53319
           X            0.99947  -0.02914   0.01479
           Y            0.03033   0.99569  -0.08759
           Z           -0.01217   0.08799   0.99605
 This molecule is an asymmetric top.
 Rotational symmetry number  1.
 Rotational temperatures (Kelvin)      1.13780     0.56127     0.41937
 Rotational constants (GHZ):          23.70798    11.69496     8.73826
 Zero-point vibrational energy     127602.9 (Joules/Mol)
                                   30.49783 (Kcal/Mol)
 Warning -- explicit consideration of   1 degrees of freedom as
           vibrations may cause significant error
 Vibrational temperatures:    601.69   947.90  1057.73  1156.00  1308.45
          (Kelvin)           1463.01  1496.01  1557.69  1675.76  1704.35
                             2082.30  2173.99  4444.04  4461.46  4563.77

 Zero-point correction=                           0.048601 (Hartree/Particle)
 Thermal correction to Energy=                    0.052226
 Thermal correction to Enthalpy=                  0.053170
 Thermal correction to Gibbs Free Energy=         0.022897
 Sum of electronic and zero-point Energies=           -153.979516
 Sum of electronic and thermal Energies=              -153.975891
 Sum of electronic and thermal Enthalpies=            -153.974947
 Sum of electronic and thermal Free Energies=         -154.005220

                     E (Thermal)             CV                S
                      KCal/Mol        Cal/Mol-Kelvin    Cal/Mol-Kelvin
 Total                   32.772             11.795             63.715
 Electronic               0.000              0.000              1.377
 Translational            0.889              2.981             37.712
 Rotational               0.889              2.981             22.411
 Vibrational             30.995              5.833              2.215
 Vibration     1          0.781              1.431              0.898

 Optimization completed.
    -- Stationary point found.
 Normal termination of Gaussian 09 at Sun Mar  4 21:10:15 2018.
