 Gaussian 09, Revision D.01,
 Gaussian 09:  ES64L-G09RevD.01 24-Apr-2013

 ---------------------------
 #p b3lyp/6-311++g(d,p) freq
 ---------------------------

 ---
 min
 ---
 Symbolic Z-matrix:
 Charge =  0 Multiplicity = 4

                         Standard orientation:
 ---------------------------------------------------------------------
 Center     Atomic      Atomic             Coordinates (Angstroms)
 Number     Number       Type             X           Y           Z
 ---------------------------------------------------------------------
      1          6           0       -0.599926    1.623382   -0.000000
      2          1           0       -0.863017    2.131865    0.926164
      3          1           0       -0.863017    2.131865   -0.926164
      4          6           0       -0.000000    0.467677   -0.000000
      5          6           0        0.622987   -0.714901   -0.000000
      6          1           0        1.716650   -0.734199   -0.000000
      7          6           0       -0.021497   -1.964413    0.000000
 ---------------------------------------------------------------------

 SCF Done:  E(UB3LYP) =  -153.976098768     A.U. after   18 cycles

 The electronic state is 4-A".
 Alpha  occ. eigenvalues --  -10.24427 -10.22495 -10.21184 -10.19904  -0.83595
 Alpha  occ. eigenvalues --   -0.76182  -0.63507  -0.52834  -0.48788  -0.46756
 Alpha  occ. eigenvalues --   -0.39596  -0.34358  -0.29524  -0.23827  -0.21094
 Alpha virt. eigenvalues --   -0.01901  -0.00321   0.00733   0.01870   0.03236
 Alpha virt. eigenvalues --    0.04491   0.06068   0.07664   0.07671   0.08918
 Alpha virt. eigenvalues --    0.11027   0.11350   0.11708   0.12663   0.13495

  Beta  occ. eigenvalues --  -10.22544 -10.20382 -10.20356 -10.19905  -0.81456
  Beta  occ. eigenvalues --   -0.74214  -0.58066  -0.50435  -0.47561  -0.45577
  Beta  occ. eigenvalues --   -0.31043  -0.29371
  Beta virt. eigenvalues --   -0.17743  -0.07431  -0.05223  -0.00813  -0.00038
  Beta virt. eigenvalues --    0.02211   0.02695   0.04332   0.05561   0.06484
  Beta virt. eigenvalues --    0.08082   0.08414   0.09895   0.11598   0.12116

 Mulliken charges and spin densities:
               1          2
     1  C   -0.648187  -0.019119
     2  H    0.133991   0.036952
     3  H    0.133991   0.036952
     4  C    0.555577   0.494467
     5  C   -0.239910  -0.125996
     6  H    0.171654   0.079623
     7  C   -0.107117   2.497123
 Sum of Mulliken charges =   0.00000   3.00000

 Dipole moment (field-independent basis, Debye):
    X=              0.2714    Y=              1.3043    Z=             -0.0000  Tot=              1.3322
 Quadrupole moment (field-independent basis, Debye-Ang):
   XX=            -23.3874   YY=            -23.5300   ZZ=            -24.6909
   XY=             -1.9218   XZ=              0.0000   YZ=             -0.0000

  Exact polarizability:  38.976 -11.345  89.574  -0.000   0.000  30.719
 Approx polarizability:  54.312 -19.768 143.500   0.000   0.000  39.071

                      1                      2                      3
                     A'                     A"                     A"
 Frequencies --    225.5851               233.9555               556.9540
 Red. masses --      5.0385                 2.6003                 1.3868
 Frc consts  --      0.1511                 0.0839                 0.2535
 IR Inten    --      1.9559                 8.4592                 1.4534

                      4                      5                      6
                     A'                     A"                     A'
 Frequencies --    598.7489               781.0944               902.4808
 Red. masses --      7.1308                 1.2912                 1.3214
 Frc consts  --      1.5062                 0.4641                 0.6341
 IR Inten    --      4.3285                11.3504                52.4152

                      7                      8                      9
                     A"                     A'                     A'
 Frequencies --    989.7866              1004.4075              1113.8501
 Red. masses --      1.4064                 3.9973                 4.2285
 Frc consts  --      0.8118                 2.3759                 3.0909
 IR Inten    --      0.2203                 2.5924                93.6649

                     10                     11                     12
                     A'                     A'                     A'
 Frequencies --   1274.0640              1443.6746              1896.5542
 Red. masses --      1.3252                 1.1887                10.0243
 Frc consts  --      1.2674                 1.4596                21.2438
 IR Inten    --     27.8141                 7.8222                12.9272

                     13                     14                     15
                     A'                     A'                     A"
 Frequencies --   3047.2135              3080.0293              3144.8484
 Red. masses --      1.0832                 1.0555                 1.1139
 Frc consts  --      5.9258                 5.8997                 6.4910
 IR Inten    --      0.7635                 8.5536                 3.0239

 - Thermochemistry -
 -------------------
 Temperature   298.150 Kelvin.  Pressure   1.00000 Atm.
 Atom     1 has atomic number  6 and mass  12.00000

 Molecular mass:    51.02348 amu.
 Principal axes and moments of inertia in atomic units:
                           1         2         3
     Eigenvalues --    35.44376 368.31444 391.40957
           X           -0.23748   0.97139   0.00000
           Y            0.97139   0.23748   0.00000
           Z            0.00000   0.00000   1.00000
 This molecule is an asymmetric top.
 Rotational symmetry number  1.
 Rotational temperatures (Kelvin)      2.44370     0.23516     0.22129
 Rotational constants (GHZ):          50.91845     4.90000     4.61088
 Zero-point vibrational energy     121380.6 (Joules/Mol)
                                   29.01065 (Kcal/Mol)
 Warning -- explicit consideration of   4 degrees of freedom as
           vibrations may cause significant error
 Vibrational temperatures:    324.57   336.61   801.33   861.47  1123.82
          (Kelvin)           1298.47  1424.08  1445.12  1602.58  1833.09
                             2077.12  2728.72  4384.26  4431.47  4524.73

 Zero-point correction=                           0.046231 (Hartree/Particle)
 Thermal correction to Energy=                    0.050696
 Thermal correction to Enthalpy=                  0.051640
 Thermal correction to Gibbs Free Energy=         0.018847
 Sum of electronic and zero-point Energies=           -153.929867
 Sum of electronic and thermal Energies=              -153.925402
 Sum of electronic and thermal Enthalpies=            -153.924458
 Sum of electronic and thermal Free Energies=         -153.957252

                     E (Thermal)             CV                S
                      KCal/Mol        Cal/Mol-Kelvin    Cal/Mol-Kelvin
 Total                   31.812             14.190             69.019
 Electronic               0.000              0.000              2.755
 Translational            0.889              2.981             37.712
 Rotational               0.889              2.981             23.151
 Vibrational             30.035              8.229              5.401
 Vibration     1          0.650              1.802              1.914
 Vibration     2          0.654              1.789              1.848
 Vibration     3          0.912              1.124              0.530
 Vibration     4          0.957              1.034              0.452

 Optimization completed.
    -- Stationary point found.
 Normal termination of Gaussian 09 at Sun Mar  4 21:09:28 2018.
