 Gaussian 09, Revision D.01,
 Gaussian 09:  ES64L-G09RevD.01 24-Apr-2013

 ---------------------------
 #p b3lyp/6-311++g(d,p) freq
 ---------------------------

 ---
 min
 ---
 Symbolic Z-matrix:
 Charge =  0 Multiplicity = 4

                         Standard orientation:
 ---------------------------------------------------------------------
 Center     Atomic      Atomic             Coordinates (Angstroms)
 Number     Number       Type             X           Y           Z
 ---------------------------------------------------------------------
      1          6           0       -0.145157   -0.000149    0.482643
      2          1           0       -0.140301   -0.000821    1.576666
      3          6           0        1.130112   -0.646818   -0.203427
      4          6           0        1.130137    0.646897   -0.202399
      5          6           0       -1.447287    0.000156   -0.187178
      6          1           0       -1.933832   -0.931386   -0.456254
      7          1           0       -1.932698    0.931685   -0.458243
 ---------------------------------------------------------------------

 SCF Done:  E(UB3LYP) =  -153.931492723     A.U. after   17 cycles

 The electronic state is 4-A.
 Alpha  occ. eigenvalues --  -10.25130 -10.24450 -10.24329 -10.20080  -0.90865
 Alpha  occ. eigenvalues --   -0.74494  -0.59652  -0.50218  -0.47246  -0.43660
 Alpha  occ. eigenvalues --   -0.43273  -0.34540  -0.29738  -0.25523  -0.23740
 Alpha virt. eigenvalues --   -0.01821  -0.00137   0.01301   0.02466   0.04144
 Alpha virt. eigenvalues --    0.05325   0.05965   0.07960   0.08214   0.08933
 Alpha virt. eigenvalues --    0.10264   0.11689   0.11986   0.12478   0.13556

  Beta  occ. eigenvalues --  -10.24455 -10.22938 -10.22833 -10.18720  -0.87970
  Beta  occ. eigenvalues --   -0.70696  -0.56737  -0.45618  -0.45497  -0.40043
  Beta  occ. eigenvalues --   -0.38451  -0.27893
  Beta virt. eigenvalues --   -0.18512  -0.12521  -0.08622   0.00166   0.00706
  Beta virt. eigenvalues --    0.01522   0.02628   0.04951   0.06138   0.06388
  Beta virt. eigenvalues --    0.08504   0.08953   0.10363   0.11807   0.11913

 Mulliken charges and spin densities:
               1          2
     1  C    0.000082   0.418227
     2  H    0.165224   0.008564
     3  C   -0.033428   0.760880
     4  C   -0.033698   0.760745
     5  C   -0.380715   1.099187
     6  H    0.141239  -0.023803
     7  H    0.141295  -0.023801
 Sum of Mulliken charges =  -0.00000   3.00000

 Dipole moment (field-independent basis, Debye):
    X=             -1.3089    Y=             -0.0008    Z=              0.8744  Tot=              1.5741
 Quadrupole moment (field-independent basis, Debye-Ang):
   XX=            -24.9189   YY=            -24.4031   ZZ=            -24.7311
   XY=              0.0002   XZ=              1.1380   YZ=             -0.0026

  Exact polarizability:  55.931   0.000  44.640   2.883   0.001  53.395
 Approx polarizability:  72.691  -0.000  82.994  -4.896   0.026  54.495

                      1                      2                      3
                      A                      A                      A
 Frequencies --    291.2480               301.5299               345.1730
 Red. masses --      2.5147                 1.3043                 1.6269
 Frc consts  --      0.1257                 0.0699                 0.1142
 IR Inten    --      0.0494                 0.5998                23.6593

                      4                      5                      6
                      A                      A                      A
 Frequencies --    515.5628               586.2712               778.7910
 Red. masses --      2.7426                 6.6283                 1.1530
 Frc consts  --      0.4295                 1.3423                 0.4120
 IR Inten    --     22.4672                 3.0614                43.8653

                      7                      8                      9
                      A                      A                      A
 Frequencies --    789.3446              1009.4462              1106.2052
 Red. masses --      7.3943                 1.5262                 3.0717
 Frc consts  --      2.7145                 0.9163                 2.2146
 IR Inten    --     34.5753                22.6849                18.0620

                     10                     11                     12
                      A                      A                      A
 Frequencies --   1297.0012              1428.7187              1669.2116
 Red. masses --      1.2621                 1.1834                11.6041
 Frc consts  --      1.2509                 1.4232                19.0496
 IR Inten    --     44.5445                 9.1389               126.7095

                     13                     14                     15
                      A                      A                      A
 Frequencies --   3025.3495              3120.1907              3220.9577
 Red. masses --      1.0796                 1.0493                 1.1177
 Frc consts  --      5.8218                 6.0187                 6.8319
 IR Inten    --      4.3037                 3.4126                 1.4992

 - Thermochemistry -
 -------------------
 Temperature   298.150 Kelvin.  Pressure   1.00000 Atm.
 Atom     1 has atomic number  6 and mass  12.00000

 Molecular mass:    51.02348 amu.
 Principal axes and moments of inertia in atomic units:
                           1         2         3
     Eigenvalues --    67.40158 251.42684 268.24023
           X            0.99965   0.00003   0.02639
           Y           -0.00001   1.00000  -0.00069
           Z           -0.02639   0.00069   0.99965
 This molecule is an asymmetric top.
 Rotational symmetry number  1.
 Rotational temperatures (Kelvin)      1.28504     0.34449     0.32290
 Rotational constants (GHZ):          26.77595     7.17800     6.72808
 Zero-point vibrational energy     116546.2 (Joules/Mol)
                                   27.85521 (Kcal/Mol)
 Warning -- explicit consideration of   5 degrees of freedom as
           vibrations may cause significant error
 Vibrational temperatures:    419.04   433.83   496.63   741.78   843.51
          (Kelvin)           1120.51  1135.69  1452.37  1591.58  1866.09
                             2055.60  2401.62  4352.80  4489.25  4634.23

 Zero-point correction=                           0.044390 (Hartree/Particle)
 Thermal correction to Energy=                    0.049066
 Thermal correction to Enthalpy=                  0.050010
 Thermal correction to Gibbs Free Energy=         0.017083
 Sum of electronic and zero-point Energies=           -153.887103
 Sum of electronic and thermal Energies=              -153.882427
 Sum of electronic and thermal Enthalpies=            -153.881483
 Sum of electronic and thermal Free Energies=         -153.914410

                     E (Thermal)             CV                S
                      KCal/Mol        Cal/Mol-Kelvin    Cal/Mol-Kelvin
 Total                   30.789             15.467             69.301
 Electronic               0.000              0.000              2.755
 Translational            0.889              2.981             37.712
 Rotational               0.889              2.981             23.035
 Vibrational             29.012              9.506              5.799
 Vibration     1          0.687              1.690              1.467
 Vibration     2          0.694              1.671              1.408
 Vibration     3          0.724              1.585              1.188
 Vibration     4          0.871              1.216              0.620
 Vibration     5          0.943              1.061              0.474

 Normal termination of Gaussian 09 at Sun Mar  4 21:10:49 2018.
