 Gaussian 09, Revision D.01,
 Gaussian 09:  ES64L-G09RevD.01 24-Apr-2013

 ---------------------------
 #p b3lyp/6-311++g(d,p) freq
 ---------------------------

 ---
 min
 ---
 Symbolic Z-matrix:
 Charge =  1 Multiplicity = 3

                         Standard orientation:
 ---------------------------------------------------------------------
 Center     Atomic      Atomic             Coordinates (Angstroms)
 Number     Number       Type             X           Y           Z
 ---------------------------------------------------------------------
      1          6           0        0.007368   -1.059030   -0.000000
      2          6           0        1.050297    0.025634    0.000000
      3          6           0        0.000000    0.908351    0.000000
      4          1           0       -0.077812    1.994675    0.000000
      5          6           0       -1.045340   -0.181698   -0.000000
      6          1           0       -2.126257   -0.220708   -0.000000
      7          1           0        2.130117    0.066491    0.000000
 ---------------------------------------------------------------------

 SCF Done:  E(UB3LYP) =  -153.738272425     A.U. after   15 cycles

 The electronic state is 3-A".
 Alpha  occ. eigenvalues --  -10.52191 -10.50253 -10.48976 -10.48962  -1.19686
 Alpha  occ. eigenvalues --   -0.95292  -0.89742  -0.79323  -0.73606  -0.69313
 Alpha  occ. eigenvalues --   -0.66693  -0.66350  -0.52972  -0.48257
 Alpha virt. eigenvalues --   -0.36875  -0.20476  -0.15803  -0.14687  -0.13430
 Alpha virt. eigenvalues --   -0.12355  -0.10698  -0.10244  -0.08331  -0.07781
 Alpha virt. eigenvalues --   -0.05637  -0.04842  -0.04723  -0.02831  -0.01757

  Beta  occ. eigenvalues --  -10.50304 -10.49876 -10.48293 -10.48259  -1.17209
  Beta  occ. eigenvalues --   -0.92500  -0.87578  -0.78279  -0.70274  -0.67574
  Beta  occ. eigenvalues --   -0.64907  -0.62205
  Beta virt. eigenvalues --   -0.37725  -0.36305  -0.33400  -0.15667  -0.15347
  Beta virt. eigenvalues --   -0.14109  -0.13007  -0.11639  -0.10367  -0.09616
  Beta virt. eigenvalues --   -0.08249  -0.07004  -0.05125  -0.04406  -0.04296

 Mulliken charges and spin densities:
               1          2
     1  C    0.402356   0.879194
     2  C   -0.224481   0.476548
     3  C    0.215131   0.134516
     4  H    0.295721   0.038652
     5  C   -0.223737   0.494785
     6  H    0.268534  -0.006636
     7  H    0.266476  -0.017060
 Sum of Mulliken charges =   1.00000   2.00000

 Dipole moment (field-independent basis, Debye):
    X=             -0.1221    Y=              1.1355    Z=              0.0000  Tot=              1.1420
 Quadrupole moment (field-independent basis, Debye-Ang):
   XX=            -11.5581   YY=            -16.4072   ZZ=            -21.6327
   XY=              0.2451   XZ=              0.0000   YZ=             -0.0000

  Exact polarizability:  41.731  -0.345  38.774  -0.000  -0.000  20.478
 Approx polarizability:  66.896  -7.361  66.004   0.000   0.000  30.135

                      1                      2                      3
                     A"                     A"                     A'
 Frequencies --    322.2065               656.3781               760.0874
 Red. masses --      2.7277                 1.1234                 7.1683
 Frc consts  --      0.1668                 0.2852                 2.4400
 IR Inten    --      0.1444                76.1765                 3.4481

                      4                      5                      6
                     A'                     A"                     A"
 Frequencies --    817.7994               845.9791               916.4503
 Red. masses --      2.5106                 1.3300                 1.5995
 Frc consts  --      0.9893                 0.5608                 0.7915
 IR Inten    --      0.7595                 0.0705                 0.0967

                      7                      8                      9
                     A'                     A'                     A'
 Frequencies --   1020.4498              1108.5189              1145.5630
 Red. masses --      1.1828                 1.8391                 2.4247
 Frc consts  --      0.7257                 1.3315                 1.8748
 IR Inten    --      2.1683                 4.6686                12.2621

                     10                     11                     12
                     A'                     A'                     A'
 Frequencies --   1217.1299              1446.1662              1458.1293
 Red. masses --      1.4789                 5.4597                 6.8261
 Frc consts  --      1.2908                 6.7275                 8.5510
 IR Inten    --     47.8744                68.2530                 7.5571

                     13                     14                     15
                     A'                     A'                     A'
 Frequencies --   3151.0906              3245.3863              3259.1481
 Red. masses --      1.0933                 1.1028                 1.1061
 Frc consts  --      6.3962                 6.8437                 6.9226
 IR Inten    --     47.7373                44.9092                47.2741

 - Thermochemistry -
 -------------------
 Temperature   298.150 Kelvin.  Pressure   1.00000 Atm.
 Atom     1 has atomic number  6 and mass  12.00000

 Molecular mass:    51.02348 amu.
 Principal axes and moments of inertia in atomic units:
                           1         2         3
     Eigenvalues --    95.53164 130.33134 225.86298
           X            0.94675  -0.32198   0.00000
           Y            0.32198   0.94675   0.00000
           Z           -0.00000  -0.00000   1.00000
 This molecule is an asymmetric top.
 Rotational symmetry number  1.
 Rotational temperatures (Kelvin)      0.90665     0.66457     0.38348
 Rotational constants (GHZ):          18.89156    13.84733     7.99043
 Zero-point vibrational energy     127823.9 (Joules/Mol)
                                   30.55064 (Kcal/Mol)
 Warning -- explicit consideration of   1 degrees of freedom as
           vibrations may cause significant error
 Vibrational temperatures:    463.58   944.38  1093.59  1176.63  1217.17
          (Kelvin)           1318.57  1468.20  1594.91  1648.21  1751.18
                             2080.71  2097.92  4533.71  4669.38  4689.18

 Zero-point correction=                           0.048686 (Hartree/Particle)
 Thermal correction to Energy=                    0.052430
 Thermal correction to Enthalpy=                  0.053375
 Thermal correction to Gibbs Free Energy=         0.022434
 Sum of electronic and zero-point Energies=           -153.689587
 Sum of electronic and thermal Energies=              -153.685842
 Sum of electronic and thermal Enthalpies=            -153.684898
 Sum of electronic and thermal Free Energies=         -153.715838

                     E (Thermal)             CV                S
                      KCal/Mol        Cal/Mol-Kelvin    Cal/Mol-Kelvin
 Total                   32.901             12.147             65.119
 Electronic               0.000              0.000              2.183
 Translational            0.889              2.981             37.712
 Rotational               0.889              2.981             22.557
 Vibrational             31.123              6.185              2.666
 Vibration     1          0.707              1.631              1.299

 Optimization completed.
    -- Stationary point found.
 Normal termination of Gaussian 09 at Thu Jan 24 15:51:20 2019.
