 Gaussian 09, Revision D.01,
 Gaussian 09:  ES64L-G09RevD.01 24-Apr-2013

 ---------------------------
 #p b3lyp/6-311++g(d,p) freq
 ---------------------------

 ---
 min
 ---
 Symbolic Z-matrix:
 Charge =  0 Multiplicity = 2

                         Standard orientation:
 ---------------------------------------------------------------------
 Center     Atomic      Atomic             Coordinates (Angstroms)
 Number     Number       Type             X           Y           Z
 ---------------------------------------------------------------------
      1          6           0        0.786864    0.430916   -0.017648
      2          1           0        1.022096    1.269138   -0.693107
      3          1           0        1.128571    0.786704    0.991930
      4          6           0        1.769689   -0.644661   -0.034288
      5          6           0       -0.637475    0.113052    0.007367
      6          6           0       -1.804702   -0.171196   -0.003969
      7          1           0       -2.836922   -0.424504   -0.007595
 ---------------------------------------------------------------------

 SCF Done:  E(UB3LYP) =  -154.007014076     A.U. after   21 cycles

 The electronic state is 2-A.
 Alpha  occ. eigenvalues --  -10.25498 -10.23495 -10.19708 -10.18479  -0.84323
 Alpha  occ. eigenvalues --   -0.75523  -0.60648  -0.54479  -0.50139  -0.48042
 Alpha  occ. eigenvalues --   -0.33639  -0.30071  -0.28919  -0.23155
 Alpha virt. eigenvalues --   -0.11203  -0.01471   0.00137   0.00630   0.01832
 Alpha virt. eigenvalues --    0.03261   0.04831   0.05447   0.07482   0.08245
 Alpha virt. eigenvalues --    0.08584   0.09738   0.10461   0.11299   0.12247

  Beta  occ. eigenvalues --  -10.24045 -10.23578 -10.19563 -10.18473  -0.83445
  Beta  occ. eigenvalues --   -0.75073  -0.58709  -0.53678  -0.49265  -0.47693
  Beta  occ. eigenvalues --   -0.32057  -0.29959  -0.28024
  Beta virt. eigenvalues --   -0.09604  -0.07555  -0.01372   0.00253   0.00682
  Beta virt. eigenvalues --    0.02010   0.03295   0.05010   0.05795   0.07502
  Beta virt. eigenvalues --    0.08395   0.08634   0.10368   0.10710   0.11458

 Mulliken charges and spin densities:
               1          2
     1  C   -0.335479  -0.090466
     2  H    0.177336   0.049045
     3  H    0.182983  -0.012176
     4  C   -0.124998   0.939111
     5  C    1.578493   0.141281
     6  C   -1.605121  -0.027695
     7  H    0.126786   0.000899
 Sum of Mulliken charges =  -0.00000   1.00000

 Dipole moment (field-independent basis, Debye):
    X=             -1.3132    Y=              1.9335    Z=              0.1376  Tot=              2.3413
 Quadrupole moment (field-independent basis, Debye-Ang):
   XX=            -25.0356   YY=            -26.1888   ZZ=            -23.7868
   XY=              5.2365   XZ=              0.4648   YZ=              0.4504

  Exact polarizability:  65.789   1.325  37.677   0.333  -0.312  31.557
 Approx polarizability:  95.437   4.838  50.781   1.436   1.681  44.686

                      1                      2                      3
                      A                      A                      A
 Frequencies --    202.3693               292.0178               430.8832
 Red. masses --      5.1432                 2.2929                 2.0131
 Frc consts  --      0.1241                 0.1152                 0.2202
 IR Inten    --     12.4104                 8.0077                23.8934

                      4                      5                      6
                      A                      A                      A
 Frequencies --    524.0172               684.0993               696.8066
 Red. masses --      5.5448                 1.2522                 1.2511
 Frc consts  --      0.8971                 0.3453                 0.3579
 IR Inten    --     14.4063                50.4217                50.0314

                      7                      8                      9
                      A                      A                      A
 Frequencies --    898.5419               992.7380              1118.9620
 Red. masses --      5.9893                 1.5621                 1.3754
 Frc consts  --      2.8491                 0.9070                 1.0146
 IR Inten    --     22.2831                 8.6631                 8.7017

                     10                     11                     12
                      A                      A                      A
 Frequencies --   1262.8023              1317.3590              2217.3366
 Red. masses --      1.6699                 1.2702                 5.8924
 Frc consts  --      1.5689                 1.2988                17.0690
 IR Inten    --     50.5215                 5.0625                 0.9377

                     13                     14                     15
                      A                      A                      A
 Frequencies --   2816.0551              2966.2308              3474.4861
 Red. masses --      1.0694                 1.0804                 1.1630
 Frc consts  --      4.9965                 5.6007                 8.2723
 IR Inten    --     41.3246                 5.1607                71.4308

 - Thermochemistry -
 -------------------
 Temperature   298.150 Kelvin.  Pressure   1.00000 Atm.
 Atom     1 has atomic number  6 and mass  12.00000

 Molecular mass:    51.02348 amu.
 Principal axes and moments of inertia in atomic units:
                           1         2         3
     Eigenvalues --    40.93836 360.77389 391.06735
           X            0.99929   0.03737   0.00406
           Y           -0.03734   0.99927  -0.00843
           Z           -0.00437   0.00828   0.99996
 This molecule is an asymmetric top.
 Rotational symmetry number  1.
 Rotational temperatures (Kelvin)      2.11571     0.24008     0.22148
 Rotational constants (GHZ):          44.08436     5.00242     4.61491
 Zero-point vibrational energy     118996.8 (Joules/Mol)
                                   28.44091 (Kcal/Mol)
 Warning -- explicit consideration of   4 degrees of freedom as
           vibrations may cause significant error
 Vibrational temperatures:    291.16   420.15   619.94   753.94   984.27
          (Kelvin)           1002.55  1292.80  1428.33  1609.93  1816.89
                             1895.38  3190.25  4051.67  4267.74  4999.00

 Zero-point correction=                           0.045323 (Hartree/Particle)
 Thermal correction to Energy=                    0.050003
 Thermal correction to Enthalpy=                  0.050947
 Thermal correction to Gibbs Free Energy=         0.018457
 Sum of electronic and zero-point Energies=           -153.961691
 Sum of electronic and thermal Energies=              -153.957011
 Sum of electronic and thermal Enthalpies=            -153.956067
 Sum of electronic and thermal Free Energies=         -153.988557

                     E (Thermal)             CV                S
                      KCal/Mol        Cal/Mol-Kelvin    Cal/Mol-Kelvin
 Total                   31.377             15.246             68.380
 Electronic               0.000              0.000              1.377
 Translational            0.889              2.981             37.712
 Rotational               0.889              2.981             23.273
 Vibrational             29.600              9.285              6.018
 Vibration     1          0.639              1.837              2.111
 Vibration     2          0.687              1.689              1.462
 Vibration     3          0.792              1.403              0.856
 Vibration     4          0.879              1.197              0.601

 Normal termination of Gaussian 09 at Sun Mar  4 21:10:31 2018.
