 Gaussian 09, Revision D.01,
 Gaussian 09:  ES64L-G09RevD.01 24-Apr-2013

 ---------------------------
 #p b3lyp/6-311++g(d,p) freq
 ---------------------------

 ---
 min
 ---
 Symbolic Z-matrix:
 Charge =  0 Multiplicity = 2

                         Standard orientation:
 ---------------------------------------------------------------------
 Center     Atomic      Atomic             Coordinates (Angstroms)
 Number     Number       Type             X           Y           Z
 ---------------------------------------------------------------------
      1          6           0        1.165960    1.294289   -0.000000
      2          1           0        1.538531    2.306789   -0.000000
      3          6           0        0.000000    0.687131    0.000000
      4          1           0       -0.916771    1.281649    0.000000
      5          6           0       -0.186245   -0.761846    0.000000
      6          1           0        0.692676   -1.431558   -0.000000
      7          6           0       -1.198788   -1.579053    0.000000
 ---------------------------------------------------------------------

 SCF Done:  E(UB3LYP) =  -154.018951358     A.U. after   18 cycles

 The electronic state is 2-A'.
 Alpha  occ. eigenvalues --  -10.24077 -10.22558 -10.22426 -10.20076  -0.84575
 Alpha  occ. eigenvalues --   -0.77209  -0.61803  -0.54703  -0.49155  -0.45202
 Alpha  occ. eigenvalues --   -0.36418  -0.30833  -0.27448  -0.27033
 Alpha virt. eigenvalues --   -0.10896  -0.05392  -0.00504   0.00799   0.02007
 Alpha virt. eigenvalues --    0.03473   0.05494   0.06404   0.07197   0.08275
 Alpha virt. eigenvalues --    0.09170   0.09256   0.11106   0.11549   0.12616

  Beta  occ. eigenvalues --  -10.24129 -10.22693 -10.20864 -10.19949  -0.83999
  Beta  occ. eigenvalues --   -0.75964  -0.59921  -0.53947  -0.48032  -0.44188
  Beta  occ. eigenvalues --   -0.36278  -0.30741  -0.26714
  Beta virt. eigenvalues --   -0.11193  -0.10868  -0.04464  -0.00317   0.00981
  Beta virt. eigenvalues --    0.02091   0.03499   0.05619   0.06405   0.08018
  Beta virt. eigenvalues --    0.08450   0.09272   0.09285   0.11302   0.11775

 Mulliken charges and spin densities:
               1          2
     1  C   -0.258517   1.034296
     2  H    0.184235   0.008436
     3  C   -0.087479  -0.132817
     4  H    0.165853   0.078107
     5  C   -0.051930   0.042321
     6  H    0.191044   0.001692
     7  C   -0.143207  -0.032036
 Sum of Mulliken charges =  -0.00000   1.00000

 Dipole moment (field-independent basis, Debye):
    X=              1.4854    Y=              2.2170    Z=             -0.0000  Tot=              2.6686
 Quadrupole moment (field-independent basis, Debye-Ang):
   XX=            -26.1521   YY=            -24.0528   ZZ=            -27.0838
   XY=             -4.2587   XZ=              0.0000   YZ=             -0.0000

  Exact polarizability:  56.321  19.927  58.408   0.000   0.000  31.266
 Approx polarizability:  94.389  36.066  83.727  -0.000  -0.000  41.500

                      1                      2                      3
                     A'                     A"                     A'
 Frequencies --    170.4949               172.2232               417.1854
 Red. masses --      5.7719                 3.6745                 2.7396
 Frc consts  --      0.0989                 0.0642                 0.2809
 IR Inten    --     25.4473                 7.5799                 5.6374

                      4                      5                      6
                     A"                     A"                     A'
 Frequencies --    573.1650               705.2396               776.7316
 Red. masses --      1.1589                 1.4964                 1.5022
 Frc consts  --      0.2243                 0.4385                 0.5340
 IR Inten    --     79.7465                 8.4739                21.0992

                      7                      8                      9
                     A"                     A'                     A'
 Frequencies --    834.1678               876.3717              1080.4890
 Red. masses --      1.5882                 1.5481                 2.2177
 Frc consts  --      0.6511                 0.7005                 1.5255
 IR Inten    --      0.0693                 0.8653                 2.4203

                     10                     11                     12
                     A'                     A'                     A'
 Frequencies --   1265.4484              1629.7049              1753.0477
 Red. masses --      1.1759                 7.0587                 9.6163
 Frc consts  --      1.1095                11.0456                17.4118
 IR Inten    --      2.2844                 2.6900                70.8785

                     13                     14                     15
                     A'                     A'                     A'
 Frequencies --   2999.3362              3064.8472              3256.4730
 Red. masses --      1.0782                 1.0828                 1.1038
 Frc consts  --      5.7149                 5.9927                 6.8967
 IR Inten    --     26.1922                 3.4217                 5.2884

 - Thermochemistry -
 -------------------
 Temperature   298.150 Kelvin.  Pressure   1.00000 Atm.
 Atom     1 has atomic number  6 and mass  12.00000

 Molecular mass:    51.02348 amu.
 Principal axes and moments of inertia in atomic units:
                           1         2         3
     Eigenvalues --    27.17546 363.16198 390.33744
           X            0.56513   0.82501   0.00000
           Y            0.82501  -0.56513   0.00000
           Z           -0.00000  -0.00000   1.00000
 This molecule is an asymmetric top.
 Rotational symmetry number  1.
 Rotational temperatures (Kelvin)      3.18721     0.23850     0.22189
 Rotational constants (GHZ):          66.41070     4.96952     4.62354
 Zero-point vibrational energy     117084.1 (Joules/Mol)
                                   27.98376 (Kcal/Mol)
 Warning -- explicit consideration of   4 degrees of freedom as
           vibrations may cause significant error
 Vibrational temperatures:    245.30   247.79   600.24   824.66  1014.68
          (Kelvin)           1117.54  1200.18  1260.90  1554.58  1820.70
                             2344.78  2522.24  4315.37  4409.63  4685.33

 Zero-point correction=                           0.044595 (Hartree/Particle)
 Thermal correction to Energy=                    0.049478
 Thermal correction to Enthalpy=                  0.050423
 Thermal correction to Gibbs Free Energy=         0.017557
 Sum of electronic and zero-point Energies=           -153.974356
 Sum of electronic and thermal Energies=              -153.969473
 Sum of electronic and thermal Enthalpies=            -153.968529
 Sum of electronic and thermal Free Energies=         -154.001395

                     E (Thermal)             CV                S
                      KCal/Mol        Cal/Mol-Kelvin    Cal/Mol-Kelvin
 Total                   31.048             15.418             69.172
 Electronic               0.000              0.000              1.377
 Translational            0.889              2.981             37.712
 Rotational               0.889              2.981             22.870
 Vibrational             29.271              9.457              7.212
 Vibration     1          0.626              1.879              2.430
 Vibration     2          0.626              1.877              2.411
 Vibration     3          0.780              1.433              0.902
 Vibration     4          0.929              1.089              0.498

 Optimization completed.
    -- Stationary point found.
 Normal termination of Gaussian 09 at Sun Mar  4 21:08:54 2018.
