 Gaussian 09, Revision D.01,
 Gaussian 09:  ES64L-G09RevD.01 24-Apr-2013

 ---------------------------
 #p b3lyp/6-311++g(d,p) freq
 ---------------------------

 ---
 min
 ---
 Symbolic Z-matrix:
 Charge =  0 Multiplicity = 2

                         Standard orientation:
 ---------------------------------------------------------------------
 Center     Atomic      Atomic             Coordinates (Angstroms)
 Number     Number       Type             X           Y           Z
 ---------------------------------------------------------------------
      1          6           0       -0.165172   -0.036374   -0.004134
      2          6           0        1.056558   -0.825833   -0.066724
      3          6           0        1.072460    0.545567    0.036482
      4          1           0        1.627870    1.461893    0.172954
      5          6           0       -1.538163    0.046856    0.002388
      6          1           0       -2.132796   -0.748370    0.436407
      7          1           0       -2.049166    0.905180   -0.417435
 ---------------------------------------------------------------------

 SCF Done:  E(UB3LYP) =  -154.067792751     A.U. after   17 cycles

 The electronic state is 2-A.
 Alpha  occ. eigenvalues --  -10.23831 -10.22938 -10.21454 -10.20614  -0.93322
 Alpha  occ. eigenvalues --   -0.76438  -0.59580  -0.54008  -0.48525  -0.44047
 Alpha  occ. eigenvalues --   -0.39841  -0.34951  -0.26751  -0.23695
 Alpha virt. eigenvalues --   -0.03049  -0.00833  -0.00626   0.00820   0.02639
 Alpha virt. eigenvalues --    0.05173   0.05653   0.05949   0.08146   0.08902
 Alpha virt. eigenvalues --    0.10054   0.10687   0.11682   0.12937   0.13663

  Beta  occ. eigenvalues --  -10.23809 -10.22679 -10.20556 -10.20282  -0.92542
  Beta  occ. eigenvalues --   -0.74201  -0.58929  -0.52954  -0.47598  -0.43096
  Beta  occ. eigenvalues --   -0.38150  -0.34280  -0.24097
  Beta virt. eigenvalues --   -0.14114  -0.02003  -0.00588   0.00305   0.00962
  Beta virt. eigenvalues --    0.02784   0.05335   0.05791   0.06664   0.08495
  Beta virt. eigenvalues --    0.09018   0.10141   0.10849   0.12019   0.13121

 Mulliken charges and spin densities:
               1          2
     1  C    0.319417  -0.040468
     2  C   -0.399923   0.173214
     3  C    0.049005   0.177958
     4  H    0.172361   0.003447
     5  C   -0.436529   0.737093
     6  H    0.146339  -0.024340
     7  H    0.149330  -0.026903
 Sum of Mulliken charges =  -0.00000   1.00000

 Dipole moment (field-independent basis, Debye):
    X=             -1.5332    Y=              2.7650    Z=              0.3711  Tot=              3.1834
 Quadrupole moment (field-independent basis, Debye-Ang):
   XX=            -22.6514   YY=            -25.4878   ZZ=            -24.6798
   XY=              4.4959   XZ=              0.5718   YZ=             -1.0583

  Exact polarizability:  81.009  -8.972  45.652   0.262   0.279  29.181
 Approx polarizability: 124.672 -13.136  67.380   0.156   0.748  40.880

                      1                      2                      3
                      A                      A                      A
 Frequencies --    329.5162               417.9486               482.9649
 Red. masses --      2.7805                 3.2974                 1.1309
 Frc consts  --      0.1779                 0.3394                 0.1554
 IR Inten    --      0.5850                 2.5396                 0.8733

                      4                      5                      6
                      A                      A                      A
 Frequencies --    721.4966               799.5219               834.1136
 Red. masses --      1.3957                 2.7134                 1.7755
 Frc consts  --      0.4281                 1.0220                 0.7278
 IR Inten    --     42.6978                54.1373                22.7229

                      7                      8                      9
                      A                      A                      A
 Frequencies --    910.5829               986.7243              1038.7874
 Red. masses --      1.6471                 2.7182                 1.9611
 Frc consts  --      0.8047                 1.5592                 1.2468
 IR Inten    --     27.6665               169.3307                83.3710

                     10                     11                     12
                      A                      A                      A
 Frequencies --   1145.9330              1447.6897              1631.8827
 Red. masses --      3.4578                 1.1806                 7.6834
 Frc consts  --      2.6752                 1.4578                12.0554
 IR Inten    --     10.5255                 2.3198                45.7337

                     13                     14                     15
                      A                      A                      A
 Frequencies --   3136.1812              3230.5824              3233.1963
 Red. masses --      1.0511                 1.1097                 1.1176
 Frc consts  --      6.0910                 6.8235                 6.8833
 IR Inten    --      0.7570                 0.9096                 1.4262

 - Thermochemistry -
 -------------------
 Temperature   298.150 Kelvin.  Pressure   1.00000 Atm.
 Atom     1 has atomic number  6 and mass  12.00000

 Molecular mass:    51.02348 amu.
 Principal axes and moments of inertia in atomic units:
                           1         2         3
     Eigenvalues --    55.98966 242.15522 294.90794
           X            0.99924   0.03896   0.00202
           Y           -0.03888   0.99881  -0.02950
           Z           -0.00317   0.02940   0.99956
 This molecule is an asymmetric top.
 Rotational symmetry number  1.
 Rotational temperatures (Kelvin)      1.54696     0.35768     0.29370
 Rotational constants (GHZ):          32.23347     7.45283     6.11968
 Zero-point vibrational energy     121702.8 (Joules/Mol)
                                   29.08767 (Kcal/Mol)
 Warning -- explicit consideration of   3 degrees of freedom as
           vibrations may cause significant error
 Vibrational temperatures:    474.10   601.33   694.88  1038.07  1150.33
          (Kelvin)           1200.10  1310.12  1419.67  1494.58  1648.74
                             2082.90  2347.91  4512.26  4648.08  4651.84

 Zero-point correction=                           0.046354 (Hartree/Particle)
 Thermal correction to Energy=                    0.050505
 Thermal correction to Enthalpy=                  0.051449
 Thermal correction to Gibbs Free Energy=         0.020130
 Sum of electronic and zero-point Energies=           -154.021439
 Sum of electronic and thermal Energies=              -154.017288
 Sum of electronic and thermal Enthalpies=            -154.016344
 Sum of electronic and thermal Free Energies=         -154.047663

                     E (Thermal)             CV                S
                      KCal/Mol        Cal/Mol-Kelvin    Cal/Mol-Kelvin
 Total                   31.692             13.928             65.917
 Electronic               0.000              0.000              1.377
 Translational            0.889              2.981             37.712
 Rotational               0.889              2.981             22.907
 Vibrational             29.915              7.966              3.920
 Vibration     1          0.712              1.617              1.262
 Vibration     2          0.781              1.431              0.899
 Vibration     3          0.839              1.288              0.702

 Normal termination of Gaussian 09 at Sun Mar  4 21:10:16 2018.
