 Gaussian 09, Revision D.01,
 Gaussian 09:  ES64L-G09RevD.01 24-Apr-2013

 ---------------------------
 #p b3lyp/6-311++g(d,p) freq
 ---------------------------

 ---
 min
 ---
 Symbolic Z-matrix:
 Charge =  0 Multiplicity = 4

                         Standard orientation:
 ---------------------------------------------------------------------
 Center     Atomic      Atomic             Coordinates (Angstroms)
 Number     Number       Type             X           Y           Z
 ---------------------------------------------------------------------
      1          6           0        0.797582   -0.616845   -0.530427
      2          6           0       -0.275519   -0.282160    0.434422
      3          1           0       -0.316664   -0.769930    1.406632
      4          6           0        1.111344    0.474363    0.073877
      5          1           0        1.675060    1.364350    0.285765
      6          6           0       -1.552358    0.226161   -0.083461
      7          1           0       -1.844696    0.596467   -1.058860
 ---------------------------------------------------------------------

 SCF Done:  E(UB3LYP) =  -153.939684689     A.U. after   16 cycles

 The electronic state is 4-A.
 Alpha  occ. eigenvalues --  -10.24409 -10.22551 -10.21762 -10.21582  -0.90712
 Alpha  occ. eigenvalues --   -0.72677  -0.59763  -0.56753  -0.46043  -0.44423
 Alpha  occ. eigenvalues --   -0.41365  -0.30728  -0.29993  -0.26320  -0.19696
 Alpha virt. eigenvalues --   -0.01860   0.00051   0.01192   0.01541   0.03978
 Alpha virt. eigenvalues --    0.05585   0.07378   0.07761   0.08067   0.09207
 Alpha virt. eigenvalues --    0.11090   0.11303   0.11613   0.12157   0.13238

  Beta  occ. eigenvalues --  -10.24058 -10.21230 -10.21079 -10.18996  -0.88821
  Beta  occ. eigenvalues --   -0.67873  -0.57442  -0.54677  -0.44228  -0.39917
  Beta  occ. eigenvalues --   -0.37341  -0.28319
  Beta virt. eigenvalues --   -0.15275  -0.09516  -0.05468  -0.00232   0.00666
  Beta virt. eigenvalues --    0.01441   0.01975   0.04582   0.06571   0.07877
  Beta virt. eigenvalues --    0.08360   0.09156   0.09813   0.11573   0.12002

 Mulliken charges and spin densities:
               1          2
     1  C   -0.345281   0.747354
     2  C    0.117568   0.182499
     3  H    0.177933  -0.007400
     4  C   -0.028016   0.183271
     5  H    0.198163   0.002299
     6  C   -0.269036   1.925017
     7  H    0.148668  -0.033039
 Sum of Mulliken charges =  -0.00000   3.00000

 Dipole moment (field-independent basis, Debye):
    X=              0.4610    Y=              0.9753    Z=              0.6146  Tot=              1.2415
 Quadrupole moment (field-independent basis, Debye-Ang):
   XX=            -25.2774   YY=            -24.0065   ZZ=            -24.1148
   XY=              1.8222   XZ=              1.8788   YZ=             -1.1338

  Exact polarizability:  56.471   0.606  40.456  -1.751   2.647  39.624
 Approx polarizability:  76.916   3.124  63.744  -3.816   9.984  57.945

                      1                      2                      3
                      A                      A                      A
 Frequencies --    145.4244               368.1109               383.4117
 Red. masses --      1.1333                 3.0239                 3.6259
 Frc consts  --      0.0141                 0.2414                 0.3140
 IR Inten    --     22.5119                 3.5409                16.8574

                      4                      5                      6
                      A                      A                      A
 Frequencies --    570.2459               656.1157               846.1106
 Red. masses --      3.1359                 1.5415                 1.2780
 Frc consts  --      0.6008                 0.3910                 0.5391
 IR Inten    --     45.4115                58.6370                72.9838

                      7                      8                      9
                      A                      A                      A
 Frequencies --    870.3770               910.1141              1024.2871
 Red. masses --      1.8651                 1.2971                 3.4961
 Frc consts  --      0.8325                 0.6330                 2.1611
 IR Inten    --     11.0575                16.8655                 3.9493

                     10                     11                     12
                      A                      A                      A
 Frequencies --   1161.1682              1338.7200              1712.5470
 Red. masses --      4.0188                 1.2791                 6.9296
 Frc consts  --      3.1926                 1.3506                11.9741
 IR Inten    --      9.3090                 5.1916                16.8513

                     13                     14                     15
                      A                      A                      A
 Frequencies --   3102.1528              3206.1684              3298.6421
 Red. masses --      1.0844                 1.0908                 1.1179
 Frc consts  --      6.1487                 6.6064                 7.1665
 IR Inten    --     14.3162                 2.4812                10.6435

 - Thermochemistry -
 -------------------
 Temperature   298.150 Kelvin.  Pressure   1.00000 Atm.
 Atom     1 has atomic number  6 and mass  12.00000

 Molecular mass:    51.02348 amu.
 Principal axes and moments of inertia in atomic units:
                           1         2         3
     Eigenvalues --    73.22790 239.91807 252.98095
           X            0.99871   0.04346   0.02621
           Y           -0.03092   0.93061  -0.36470
           Z           -0.04024   0.36342   0.93075
 This molecule is an asymmetric top.
 Rotational symmetry number  1.
 Rotational temperatures (Kelvin)      1.18280     0.36101     0.34237
 Rotational constants (GHZ):          24.64554     7.52232     7.13390
 Zero-point vibrational energy     117195.7 (Joules/Mol)
                                   28.01045 (Kcal/Mol)
 Warning -- explicit consideration of   4 degrees of freedom as
           vibrations may cause significant error
 Vibrational temperatures:    209.23   529.63   551.64   820.46   944.00
          (Kelvin)           1217.36  1252.28  1309.45  1473.72  1670.66
                             1926.12  2463.97  4463.30  4612.96  4746.00

 Zero-point correction=                           0.044637 (Hartree/Particle)
 Thermal correction to Energy=                    0.049341
 Thermal correction to Enthalpy=                  0.050285
 Thermal correction to Gibbs Free Energy=         0.017113
 Sum of electronic and zero-point Energies=           -153.895047
 Sum of electronic and thermal Energies=              -153.890344
 Sum of electronic and thermal Enthalpies=            -153.889400
 Sum of electronic and thermal Free Energies=         -153.922571

                     E (Thermal)             CV                S
                      KCal/Mol        Cal/Mol-Kelvin    Cal/Mol-Kelvin
 Total                   30.962             15.278             69.816
 Electronic               0.000              0.000              2.755
 Translational            0.889              2.981             37.712
 Rotational               0.889              2.981             23.012
 Vibrational             29.184              9.316              6.336
 Vibration     1          0.617              1.908              2.731
 Vibration     2          0.741              1.538              1.088
 Vibration     3          0.753              1.506              1.026
 Vibration     4          0.926              1.096              0.504

 Normal termination of Gaussian 09 at Sun Mar  4 21:10:38 2018.
