 Gaussian 09, Revision D.01,
 Gaussian 09:  ES64L-G09RevD.01 24-Apr-2013

 ---------------------------
 #p b3lyp/6-311++g(d,p) freq
 ---------------------------

 ---
 min
 ---
 Symbolic Z-matrix:
 Charge =  0 Multiplicity = 2

                         Standard orientation:
 ---------------------------------------------------------------------
 Center     Atomic      Atomic             Coordinates (Angstroms)
 Number     Number       Type             X           Y           Z
 ---------------------------------------------------------------------
      1          6           0        1.118997   -0.521756    0.000035
      2          1           0       -2.215067   -0.414154    0.000080
      3          6           0        0.750100    0.790297    0.000017
      4          6           0       -1.142496   -0.343747    0.000079
      5          6           0       -0.119035   -1.221081   -0.000083
      6          1           0        2.121314   -0.916831    0.000029
      7          1           0        1.309493    1.710943    0.000020
      8          8           0       -0.607642    0.924720   -0.000053
 ---------------------------------------------------------------------

 SCF Done:  E(UB3LYP) =  -229.386954865     A.U. after   15 cycles

 The electronic state is 2-A.
 Alpha  occ. eigenvalues --  -19.20422 -10.23870 -10.23307 -10.21410 -10.19084
 Alpha  occ. eigenvalues --   -1.12623  -0.82253  -0.76189  -0.60769  -0.58472
 Alpha  occ. eigenvalues --   -0.53687  -0.46424  -0.45767  -0.43419  -0.39298
 Alpha  occ. eigenvalues --   -0.30238  -0.29327  -0.24895
 Alpha virt. eigenvalues --   -0.01411  -0.00150   0.01324   0.02101   0.04221
 Alpha virt. eigenvalues --    0.04821   0.05459   0.05943   0.07808   0.09029
 Alpha virt. eigenvalues --    0.10435   0.10650   0.11403   0.12143   0.12377

  Beta  occ. eigenvalues --  -19.20274 -10.23770 -10.23325 -10.19772 -10.19038
  Beta  occ. eigenvalues --   -1.12188  -0.80807  -0.75654  -0.60029  -0.58000
  Beta  occ. eigenvalues --   -0.52004  -0.46317  -0.45458  -0.42719  -0.38614
  Beta  occ. eigenvalues --   -0.29387  -0.24638
  Beta virt. eigenvalues --   -0.12445  -0.01268  -0.00118   0.01345   0.02255
  Beta virt. eigenvalues --    0.04852   0.05319   0.06118   0.06228   0.07906
  Beta virt. eigenvalues --    0.09001   0.10475   0.10916   0.11571   0.12212

 Mulliken charges and spin densities:
               1          2
     1  C   -0.227364   0.075251
     2  H    0.171102   0.006467
     3  C   -0.122116   0.012849
     4  C   -0.286493  -0.012599
     5  C    0.191238   0.864776
     6  H    0.154291   0.010437
     7  H    0.175098   0.004496
     8  O   -0.055756   0.038322
 Sum of Mulliken charges =  -0.00000   1.00000

 Dipole moment (field-independent basis, Debye):
    X=              0.5800    Y=              0.2319    Z=              0.0002  Tot=              0.6246
 Quadrupole moment (field-independent basis, Debye-Ang):
   XX=            -23.9693   YY=            -29.2977   ZZ=            -31.5014
   XY=              1.4748   XZ=             -0.0002   YZ=             -0.0002

  Exact polarizability:  53.587   1.333  49.253  -0.001   0.002  32.073
 Approx polarizability:  82.477  -1.831  81.974  -0.003   0.002  43.665

                      1                      2                      3
                      A                      A                      A
 Frequencies --    540.9679               613.0935               700.5208
 Red. masses --      3.5883                 3.6518                 1.3534
 Frc consts  --      0.6187                 0.8087                 0.3913
 IR Inten    --     14.3458                12.2501                11.1945

                      4                      5                      6
                      A                      A                      A
 Frequencies --    762.2293               848.6167               865.8477
 Red. masses --      1.2904                 1.3084                 5.8109
 Frc consts  --      0.4417                 0.5552                 2.5667
 IR Inten    --     79.0079                 0.0618                21.5720

                      7                      8                      9
                      A                      A                      A
 Frequencies --    873.5922              1012.5222              1043.3860
 Red. masses --      6.9230                 2.3026                 2.0709
 Frc consts  --      3.1129                 1.3909                 1.3283
 IR Inten    --      1.3460                54.2939                 0.7466

                     10                     11                     12
                      A                      A                      A
 Frequencies --   1137.1087              1170.1832              1238.5870
 Red. masses --      6.1959                 1.9022                 1.2267
 Frc consts  --      4.7202                 1.5347                 1.1087
 IR Inten    --      5.4360                 6.6794                 4.8266

                     13                     14                     15
                      A                      A                      A
 Frequencies --   1372.5203              1485.4270              1541.8371
 Red. masses --      2.6309                 3.7341                 5.6873
 Frc consts  --      2.9201                 4.8544                 7.9659
 IR Inten    --      2.2222                17.6176                 0.5191

                     16                     17                     18
                      A                      A                      A
 Frequencies --   3253.8841              3274.6540              3296.0944
 Red. masses --      1.0896                 1.1050                 1.0997
 Frc consts  --      6.7968                 6.9817                 7.0392
 IR Inten    --      1.0719                 0.1739                 1.9423

 - Thermochemistry -
 -------------------
 Temperature   298.150 Kelvin.  Pressure   1.00000 Atm.
 Atom     1 has atomic number  6 and mass  12.00000

 Molecular mass:    67.01839 amu.
 Principal axes and moments of inertia in atomic units:
                           1         2         3
     Eigenvalues --   169.67780 196.07482 365.75262
           X            0.98619   0.16564  -0.00000
           Y           -0.16564   0.98619  -0.00000
           Z            0.00000   0.00000   1.00000
 This molecule is an asymmetric top.
 Rotational symmetry number  1.
 Rotational temperatures (Kelvin)      0.51046     0.44174     0.23681
 Rotational constants (GHZ):          10.63628     9.20435     4.93432
 Zero-point vibrational energy     149719.1 (Joules/Mol)
                                   35.78371 (Kcal/Mol)
 Warning -- explicit consideration of   2 degrees of freedom as
           vibrations may cause significant error
 Vibrational temperatures:    778.33   882.10  1007.89  1096.68  1220.97
          (Kelvin)           1245.76  1256.90  1456.79  1501.20  1636.04
                             1683.63  1782.05  1974.75  2137.20  2218.36
                             4681.61  4711.49  4742.34

 Zero-point correction=                           0.057025 (Hartree/Particle)
 Thermal correction to Energy=                    0.060734
 Thermal correction to Enthalpy=                  0.061678
 Thermal correction to Gibbs Free Energy=         0.030184
 Sum of electronic and zero-point Energies=           -229.329930
 Sum of electronic and thermal Energies=              -229.326221
 Sum of electronic and thermal Enthalpies=            -229.325277
 Sum of electronic and thermal Free Energies=         -229.356771

                     E (Thermal)             CV                S
                      KCal/Mol        Cal/Mol-Kelvin    Cal/Mol-Kelvin
 Total                   38.111             12.939             66.284
 Electronic               0.000              0.000              1.377
 Translational            0.889              2.981             38.525
 Rotational               0.889              2.981             24.013
 Vibrational             36.333              6.978              2.368
 Vibration     1          0.896              1.159              0.563
 Vibration     2          0.972              1.004              0.428

 Optimization completed.
    -- Stationary point found.
 Normal termination of Gaussian 09 at Sun Mar  4 21:22:07 2018.
