 Gaussian 09, Revision D.01,
 Gaussian 09:  ES64L-G09RevD.01 24-Apr-2013

 ---------------------------
 #p b3lyp/6-311++g(d,p) freq
 ---------------------------

 ---
 min
 ---
 Symbolic Z-matrix:
 Charge =  1 Multiplicity = 1

                         Standard orientation:
 ---------------------------------------------------------------------
 Center     Atomic      Atomic             Coordinates (Angstroms)
 Number     Number       Type             X           Y           Z
 ---------------------------------------------------------------------
      1          6           0       -0.517257   -0.544943    0.220574
      2          1           0       -0.805082   -1.303040    0.955326
      3          6           0       -1.283387    0.470226   -0.223656
      4          6           0        0.879711   -0.681929   -0.420369
      5          6           0        0.773524    0.586878    0.169364
      6          1           0        0.415394    1.399605   -0.511197
      7          1           0        1.274141    0.922044    1.080395
 ---------------------------------------------------------------------

 SCF Done:  E(RB3LYP) =  -153.633175250     A.U. after   13 cycles

 The electronic state is 1-A.
 Alpha  occ. eigenvalues --  -10.54790 -10.54260 -10.52728 -10.50416  -1.20364
 Alpha  occ. eigenvalues --   -0.99712  -0.89879  -0.81368  -0.72903  -0.68862
 Alpha  occ. eigenvalues --   -0.64999  -0.58585  -0.53259
 Alpha virt. eigenvalues --   -0.37929  -0.37669  -0.30969  -0.23340  -0.16720
 Alpha virt. eigenvalues --   -0.15270  -0.12784  -0.11230  -0.10452  -0.08304
 Alpha virt. eigenvalues --   -0.07914  -0.07040  -0.05980  -0.04187  -0.03362

 Mulliken charges:
               1
     1  C    0.138598
     2  H    0.336693
     3  C   -0.005056
     4  C    0.193911
     5  C   -0.229705
     6  H    0.266196
     7  H    0.299363
 Sum of Mulliken charges =   1.00000

 Dipole moment (field-independent basis, Debye):
    X=              0.5940    Y=              0.8376    Z=              2.0163  Tot=              2.2627
 Quadrupole moment (field-independent basis, Debye-Ang):
   XX=            -18.5091   YY=            -18.4442   ZZ=            -19.3451
   XY=              4.8900   XZ=              0.1704   YZ=             -1.9289

  Exact polarizability:  48.068  -3.746  36.805  -0.143  -0.418  28.465
 Approx polarizability: 104.318 -17.140  66.441  -1.789  -1.237  45.454

                      1                      2                      3
                      A                      A                      A
 Frequencies --    171.9290               335.2807               394.6354
 Red. masses --      4.0414                 2.8570                 5.1122
 Frc consts  --      0.0704                 0.1892                 0.4691
 IR Inten    --     10.4238                 5.6732                 6.8012

                      4                      5                      6
                      A                      A                      A
 Frequencies --    682.6790               742.6276               772.9097
 Red. masses --      1.3777                 1.6333                 4.5133
 Frc consts  --      0.3783                 0.5307                 1.5885
 IR Inten    --     20.3336                28.9572                50.0586

                      7                      8                      9
                      A                      A                      A
 Frequencies --    920.2991               984.0611              1011.5928
 Red. masses --      1.1821                 1.2311                 1.2497
 Frc consts  --      0.5899                 0.7024                 0.7534
 IR Inten    --     41.1371                31.1225                 0.6839

                     10                     11                     12
                      A                      A                      A
 Frequencies --   1208.3272              1359.5288              1479.1347
 Red. masses --      2.0872                 1.6327                 6.7348
 Frc consts  --      1.7955                 1.7780                 8.6814
 IR Inten    --      4.0665                58.6075               109.8250

                     13                     14                     15
                      A                      A                      A
 Frequencies --   2839.4022              3096.9033              3126.4458
 Red. masses --      1.0677                 1.0936                 1.0962
 Frc consts  --      5.0717                 6.1795                 6.3129
 IR Inten    --    153.6199               151.9803                89.1223

 - Thermochemistry -
 -------------------
 Temperature   298.150 Kelvin.  Pressure   1.00000 Atm.
 Atom     1 has atomic number  6 and mass  12.00000

 Molecular mass:    51.02348 amu.
 Principal axes and moments of inertia in atomic units:
                           1         2         3
     Eigenvalues --    93.02061 171.98652 222.84789
           X            0.99167   0.12866   0.00675
           Y           -0.12799   0.98982  -0.06226
           Z           -0.01469   0.06088   0.99804
 This molecule is an asymmetric top.
 Rotational symmetry number  1.
 Rotational temperatures (Kelvin)      0.93112     0.50361     0.38867
 Rotational constants (GHZ):          19.40152    10.49350     8.09853
 Zero-point vibrational energy     114397.4 (Joules/Mol)
                                   27.34164 (Kcal/Mol)
 Warning -- explicit consideration of   3 degrees of freedom as
           vibrations may cause significant error
 Vibrational temperatures:    247.37   482.39   567.79   982.22  1068.47
          (Kelvin)           1112.04  1324.10  1415.84  1455.45  1738.51
                             1956.06  2128.14  4085.26  4455.75  4498.25

 Zero-point correction=                           0.043572 (Hartree/Particle)
 Thermal correction to Energy=                    0.048161
 Thermal correction to Enthalpy=                  0.049105
 Thermal correction to Gibbs Free Energy=         0.017582
 Sum of electronic and zero-point Energies=           -153.589604
 Sum of electronic and thermal Energies=              -153.585015
 Sum of electronic and thermal Enthalpies=            -153.584070
 Sum of electronic and thermal Free Energies=         -153.615594

                     E (Thermal)             CV                S
                      KCal/Mol        Cal/Mol-Kelvin    Cal/Mol-Kelvin
 Total                   30.221             14.869             66.346
 Electronic               0.000              0.000              0.000
 Translational            0.889              2.981             37.712
 Rotational               0.889              2.981             22.793
 Vibrational             28.444              8.908              5.841
 Vibration     1          0.626              1.877              2.414
 Vibration     2          0.716              1.605              1.235
 Vibration     3          0.762              1.482              0.983

 Optimization completed.
    -- Stationary point found.
 Normal termination of Gaussian 09 at Thu Jan 24 15:49:06 2019.
