 Gaussian 09, Revision D.01,
 Gaussian 09:  ES64L-G09RevD.01 24-Apr-2013

 ---------------------------
 #p b3lyp/6-311++g(d,p) freq
 ---------------------------

 ---
 min
 ---
 Symbolic Z-matrix:
 Charge =  0 Multiplicity = 4

                         Standard orientation:
 ---------------------------------------------------------------------
 Center     Atomic      Atomic             Coordinates (Angstroms)
 Number     Number       Type             X           Y           Z
 ---------------------------------------------------------------------
      1          6           0        0.000135    1.081325   -0.000000
      2          6           0        0.000135   -0.101279    0.989835
      3          1           0       -0.896508    1.703427   -0.000000
      4          1           0        0.896722    1.703496   -0.000000
      5          6           0        0.000135   -0.101279   -0.989835
      6          6           0       -0.000339   -1.085608    0.000000
      7          1           0       -0.000611   -2.165879    0.000000
 ---------------------------------------------------------------------

 SCF Done:  E(UB3LYP) =  -153.964862859     A.U. after   13 cycles

 The electronic state is 4-A'.
 Alpha  occ. eigenvalues --  -10.23254 -10.23254 -10.20478 -10.19877  -0.90512
 Alpha  occ. eigenvalues --   -0.68701  -0.61889  -0.54167  -0.46460  -0.41359
 Alpha  occ. eigenvalues --   -0.39437  -0.37675  -0.32106  -0.22377  -0.20722
 Alpha virt. eigenvalues --   -0.00160   0.00009   0.01287   0.02807   0.03267
 Alpha virt. eigenvalues --    0.05892   0.07640   0.07767   0.08326   0.09857
 Alpha virt. eigenvalues --    0.10964   0.11183   0.12662   0.13531   0.14326

  Beta  occ. eigenvalues --  -10.20621 -10.20616 -10.20231 -10.20016  -0.87410
  Beta  occ. eigenvalues --   -0.68059  -0.54154  -0.53711  -0.44774  -0.38607
  Beta  occ. eigenvalues --   -0.37228  -0.29654
  Beta virt. eigenvalues --   -0.18007  -0.05449  -0.04979   0.00275   0.01311
  Beta virt. eigenvalues --    0.02291   0.03660   0.04578   0.06412   0.07836
  Beta virt. eigenvalues --    0.08146   0.08177   0.11229   0.11458   0.12371

 Mulliken charges and spin densities:
               1          2
     1  C   -0.517541   0.095458
     2  C    0.191439   1.502696
     3  H    0.140289   0.004977
     4  H    0.140283   0.004959
     5  C    0.191439   1.502696
     6  C   -0.294819  -0.129039
     7  H    0.148911   0.018252
 Sum of Mulliken charges =  -0.00000   3.00000

 Dipole moment (field-independent basis, Debye):
    X=             -0.0004    Y=              0.1289    Z=              0.0000  Tot=              0.1289
 Quadrupole moment (field-independent basis, Debye-Ang):
   XX=            -24.9666   YY=            -20.3464   ZZ=            -26.7068
   XY=              0.0010   XZ=              0.0000   YZ=             -0.0000

  Exact polarizability:  32.862   0.005  47.743  -0.000  -0.000  44.675
 Approx polarizability:  43.713   0.009  66.656  -0.000  -0.000  69.552

                      1                      2                      3
                     A'                     A"                     A'
 Frequencies --    439.0957               819.7408               857.0345
 Red. masses --      1.7956                 2.8793                 1.5718
 Frc consts  --      0.2040                 1.1399                 0.6802
 IR Inten    --     16.6784                15.4869                42.4949

                      4                      5                      6
                     A'                     A"                     A'
 Frequencies --    881.5380               967.0202               984.3177
 Red. masses --      7.2734                 3.3592                 1.5698
 Frc consts  --      3.3302                 1.8508                 0.8961
 IR Inten    --      3.6498                 7.7710                 9.3164

                      7                      8                      9
                     A'                     A"                     A"
 Frequencies --   1030.6074              1032.2140              1134.8137
 Red. masses --      7.4707                 1.0711                 1.2594
 Frc consts  --      4.6752                 0.6724                 0.9556
 IR Inten    --      0.0624                 0.0000                 3.1065

                     10                     11                     12
                     A"                     A'                     A'
 Frequencies --   1267.5025              1358.9430              1473.6856
 Red. masses --      1.9861                 5.9836                 1.1425
 Frc consts  --      1.8800                 6.5105                 1.4620
 IR Inten    --     17.8333                 4.3889                 0.9493

                     13                     14                     15
                     A'                     A'                     A'
 Frequencies --   3060.5720              3111.6333              3228.4608
 Red. masses --      1.0541                 1.1092                 1.0983
 Frc consts  --      5.8175                 6.3278                 6.7449
 IR Inten    --     17.1081                 7.1282                 0.2299

 - Thermochemistry -
 -------------------
 Temperature   298.150 Kelvin.  Pressure   1.00000 Atm.
 Atom     1 has atomic number  6 and mass  12.00000

 Molecular mass:    51.02348 amu.
 Principal axes and moments of inertia in atomic units:
                           1         2         3
     Eigenvalues --    89.75856 144.93987 223.12520
           X            0.00020   0.00000   1.00000
           Y            1.00000   0.00000  -0.00020
           Z            0.00000   1.00000   0.00000
 This molecule is an asymmetric top.
 Rotational symmetry number  1.
 Rotational temperatures (Kelvin)      0.96496     0.59758     0.38818
 Rotational constants (GHZ):          20.10662    12.45165     8.08847
 Zero-point vibrational energy     129478.9 (Joules/Mol)
                                   30.94620 (Kcal/Mol)
 Warning -- explicit consideration of   1 degrees of freedom as
           vibrations may cause significant error
 Vibrational temperatures:    631.76  1179.42  1233.08  1268.33  1391.32
          (Kelvin)           1416.21  1482.81  1485.12  1632.74  1823.65
                             1955.21  2120.30  4403.47  4476.94  4645.03

 Zero-point correction=                           0.049316 (Hartree/Particle)
 Thermal correction to Energy=                    0.052811
 Thermal correction to Enthalpy=                  0.053755
 Thermal correction to Gibbs Free Energy=         0.022926
 Sum of electronic and zero-point Energies=           -153.915547
 Sum of electronic and thermal Energies=              -153.912052
 Sum of electronic and thermal Enthalpies=            -153.911108
 Sum of electronic and thermal Free Energies=         -153.941936

                     E (Thermal)             CV                S
                      KCal/Mol        Cal/Mol-Kelvin    Cal/Mol-Kelvin
 Total                   33.139             11.170             64.884
 Electronic               0.000              0.000              2.755
 Translational            0.889              2.981             37.712
 Rotational               0.889              2.981             22.589
 Vibrational             31.362              5.209              1.828
 Vibration     1          0.799              1.385              0.829

 Optimization completed.
    -- Stationary point found.
 Normal termination of Gaussian 09 at Sun Mar  4 21:09:22 2018.
