 Gaussian 09, Revision D.01,
 Gaussian 09:  ES64L-G09RevD.01 24-Apr-2013

 ---------------------------
 #p b3lyp/6-311++g(d,p) freq
 ---------------------------

 ---
 min
 ---
 Symbolic Z-matrix:
 Charge =  1 Multiplicity = 3

                         Standard orientation:
 ---------------------------------------------------------------------
 Center     Atomic      Atomic             Coordinates (Angstroms)
 Number     Number       Type             X           Y           Z
 ---------------------------------------------------------------------
      1          6           0        1.232519    1.220707   -0.000000
      2          1           0        1.643802    2.224744   -0.000000
      3          6           0        0.000000    0.627238   -0.000000
      4          1           0       -0.898167    1.250215   -0.000000
      5          6           0       -0.137874   -0.780102    0.000000
      6          1           0        0.731013   -1.453978    0.000000
      7          6           0       -1.340753   -1.404673    0.000000
 ---------------------------------------------------------------------

 SCF Done:  E(UB3LYP) =  -153.670271280     A.U. after   18 cycles

 The electronic state is 3-A".
 Alpha  occ. eigenvalues --  -10.54054 -10.50509 -10.49454 -10.46902  -1.11379
 Alpha  occ. eigenvalues --   -1.02683  -0.86703  -0.80558  -0.73405  -0.70298
 Alpha  occ. eigenvalues --   -0.62960  -0.56093  -0.53646  -0.52121
 Alpha virt. eigenvalues --   -0.36856  -0.32638  -0.21215  -0.15498  -0.14782
 Alpha virt. eigenvalues --   -0.12427  -0.10360  -0.09759  -0.08829  -0.06646
 Alpha virt. eigenvalues --   -0.05826  -0.05364  -0.04159  -0.03943  -0.02750

  Beta  occ. eigenvalues --  -10.53472 -10.49373 -10.48218 -10.46684  -1.09750
  Beta  occ. eigenvalues --   -0.99162  -0.83700  -0.79543  -0.71693  -0.68899
  Beta  occ. eigenvalues --   -0.59431  -0.54969
  Beta virt. eigenvalues --   -0.43032  -0.36105  -0.34000  -0.27120  -0.18683
  Beta virt. eigenvalues --   -0.15177  -0.14500  -0.11933  -0.09924  -0.09324
  Beta virt. eigenvalues --   -0.08569  -0.05662  -0.05431  -0.05086  -0.03563

 Mulliken charges and spin densities:
               1          2
     1  C   -0.024612   1.384244
     2  H    0.281934  -0.010949
     3  C    0.016130   0.080281
     4  H    0.266117   0.053223
     5  C   -0.105596   0.128271
     6  H    0.286138  -0.004680
     7  C    0.279888   0.369610
 Sum of Mulliken charges =   1.00000   2.00000

 Dipole moment (field-independent basis, Debye):
    X=              1.5443    Y=              1.5306    Z=             -0.0000  Tot=              2.1743
 Quadrupole moment (field-independent basis, Debye-Ang):
   XX=            -17.6933   YY=            -10.4248   ZZ=            -22.4352
   XY=              2.4780   XZ=             -0.0000   YZ=             -0.0000

  Exact polarizability:  49.986  20.756  57.584   0.000  -0.000  23.971
 Approx polarizability:  82.502  37.582  90.064  -0.000  -0.000  32.727

                      1                      2                      3
                     A"                     A'                     A'
 Frequencies --    186.4735               192.7478               421.9308
 Red. masses --      4.6631                 5.6122                 3.1132
 Frc consts  --      0.0955                 0.1228                 0.3265
 IR Inten    --      2.2089                10.3218                 5.8263

                      4                      5                      6
                     A"                     A"                     A'
 Frequencies --    665.3127               775.1888               797.4616
 Red. masses --      1.2875                 1.3750                 1.3206
 Frc consts  --      0.3358                 0.4868                 0.4948
 IR Inten    --     44.0600                26.8090                24.6906

                      7                      8                      9
                     A"                     A'                     A'
 Frequencies --    958.8164               995.6436              1171.8567
 Red. masses --      1.3364                 1.5119                 2.8546
 Frc consts  --      0.7239                 0.8830                 2.3097
 IR Inten    --     17.2511                 0.8420                 1.5669

                     10                     11                     12
                     A'                     A'                     A'
 Frequencies --   1268.1088              1393.3819              1592.3465
 Red. masses --      1.3586                 4.4061                 5.9762
 Frc consts  --      1.2872                 5.0402                 8.9279
 IR Inten    --      1.9818               250.3817                79.3119

                     13                     14                     15
                     A'                     A'                     A'
 Frequencies --   3043.7049              3090.0226              3217.7623
 Red. masses --      1.0839                 1.0870                 1.0993
 Frc consts  --      5.9161                 6.1149                 6.7063
 IR Inten    --     71.9358                26.9079                67.8743

 - Thermochemistry -
 -------------------
 Temperature   298.150 Kelvin.  Pressure   1.00000 Atm.
 Atom     1 has atomic number  6 and mass  12.00000

 Molecular mass:    51.02348 amu.
 Principal axes and moments of inertia in atomic units:
                           1         2         3
     Eigenvalues --    31.50243 347.95682 379.45925
           X            0.63061   0.77610   0.00000
           Y            0.77610  -0.63061   0.00000
           Z           -0.00000  -0.00000   1.00000
 This molecule is an asymmetric top.
 Rotational symmetry number  1.
 Rotational temperatures (Kelvin)      2.74943     0.24892     0.22826
 Rotational constants (GHZ):          57.28895     5.18668     4.75609
 Zero-point vibrational energy     118255.4 (Joules/Mol)
                                   28.26372 (Kcal/Mol)
 Warning -- explicit consideration of   3 degrees of freedom as
           vibrations may cause significant error
 Vibrational temperatures:    268.29   277.32   607.06   957.24  1115.32
          (Kelvin)           1147.37  1379.52  1432.51  1686.04  1824.52
                             2004.76  2291.03  4379.21  4445.85  4629.64

 Zero-point correction=                           0.045041 (Hartree/Particle)
 Thermal correction to Energy=                    0.049732
 Thermal correction to Enthalpy=                  0.050676
 Thermal correction to Gibbs Free Energy=         0.017755
 Sum of electronic and zero-point Energies=           -153.625230
 Sum of electronic and thermal Energies=              -153.620539
 Sum of electronic and thermal Enthalpies=            -153.619595
 Sum of electronic and thermal Free Energies=         -153.652516

                     E (Thermal)             CV                S
                      KCal/Mol        Cal/Mol-Kelvin    Cal/Mol-Kelvin
 Total                   31.207             14.695             69.289
 Electronic               0.000              0.000              2.183
 Translational            0.889              2.981             37.712
 Rotational               0.889              2.981             22.946
 Vibrational             29.430              8.733              6.447
 Vibration     1          0.632              1.858              2.263
 Vibration     2          0.635              1.850              2.201
 Vibration     3          0.784              1.423              0.885

 Normal termination of Gaussian 09 at Thu Jan 24 15:52:51 2019.
