 Gaussian 09, Revision D.01,
 Gaussian 09:  ES64L-G09RevD.01 24-Apr-2013

 ---------------------------
 #p b3lyp/6-311++g(d,p) freq
 ---------------------------

 ---
 min
 ---
 Symbolic Z-matrix:
 Charge =  0 Multiplicity = 4

                         Standard orientation:
 ---------------------------------------------------------------------
 Center     Atomic      Atomic             Coordinates (Angstroms)
 Number     Number       Type             X           Y           Z
 ---------------------------------------------------------------------
      1          6           0       -0.405928   -0.838043   -0.000000
      2          1           0       -0.983569   -1.132660    0.886036
      3          1           0       -0.983569   -1.132660   -0.886036
      4          6           0        0.892269   -1.642662   -0.000000
      5          6           0       -0.185364    0.598204    0.000000
      6          6           0        0.000000    1.787118    0.000000
      7          1           0        0.161271    2.837616    0.000000
 ---------------------------------------------------------------------

 SCF Done:  E(UB3LYP) =  -153.952645742     A.U. after   17 cycles

 The electronic state is 4-A".
 Alpha  occ. eigenvalues --  -10.24781 -10.23849 -10.19529 -10.18482  -0.83120
 Alpha  occ. eigenvalues --   -0.74829  -0.60728  -0.54773  -0.49403  -0.47901
 Alpha  occ. eigenvalues --   -0.38170  -0.29779  -0.29750  -0.23473  -0.22999
 Alpha virt. eigenvalues --   -0.00856   0.00793   0.00821   0.01913   0.03634
 Alpha virt. eigenvalues --    0.04470   0.05735   0.08107   0.08401   0.08646
 Alpha virt. eigenvalues --    0.09590   0.09773   0.11328   0.12587   0.13470

  Beta  occ. eigenvalues --  -10.24479 -10.19618 -10.19455 -10.18349  -0.81365
  Beta  occ. eigenvalues --   -0.73392  -0.55797  -0.51144  -0.48076  -0.46490
  Beta  occ. eigenvalues --   -0.29995  -0.29398
  Beta virt. eigenvalues --   -0.17244  -0.04819  -0.04236  -0.00539   0.00912
  Beta virt. eigenvalues --    0.00989   0.02645   0.03807   0.05364   0.06331
  Beta virt. eigenvalues --    0.08514   0.08535   0.08970   0.10754   0.11634

 Mulliken charges and spin densities:
               1          2
     1  C   -0.036001   0.151444
     2  H    0.166799   0.050523
     3  H    0.166799   0.050523
     4  C   -0.089620   2.714662
     5  C    1.441060   0.003278
     6  C   -1.772369   0.033060
     7  H    0.123332  -0.003490
 Sum of Mulliken charges =  -0.00000   3.00000

 Dipole moment (field-independent basis, Debye):
    X=             -1.2495    Y=              0.6353    Z=             -0.0000  Tot=              1.4017
 Quadrupole moment (field-independent basis, Debye-Ang):
   XX=            -25.1599   YY=            -21.2759   ZZ=            -25.0313
   XY=              2.6846   XZ=              0.0000   YZ=             -0.0000

  Exact polarizability:  37.794  -6.930  75.147   0.000   0.000  29.908
 Approx polarizability:  49.527  -5.812 110.823   0.000  -0.000  38.541

                      1                      2                      3
                     A'                     A"                     A'
 Frequencies --    219.2943               318.9805               529.2322
 Red. masses --      5.1565                 2.9774                 7.1005
 Frc consts  --      0.1461                 0.1785                 1.1717
 IR Inten    --      3.1588                 9.4535                 4.4793

                      4                      5                      6
                     A"                     A'                     A'
 Frequencies --    665.8233               698.3523               881.1757
 Red. masses --      1.2398                 1.2755                 9.0398
 Frc consts  --      0.3238                 0.3665                 4.1356
 IR Inten    --     54.7881                43.8567                74.0476

                      7                      8                      9
                     A"                     A'                     A"
 Frequencies --    898.8704               951.1852              1180.7370
 Red. masses --      1.6489                 4.6974                 1.0768
 Frc consts  --      0.7849                 2.5040                 0.8845
 IR Inten    --      1.0351                78.3689                 3.2604

                     10                     11                     12
                     A'                     A'                     A'
 Frequencies --   1258.4759              1436.6185              2194.1242
 Red. masses --      1.2023                 1.0984                 5.9732
 Frc consts  --      1.1219                 1.3356                16.9425
 IR Inten    --     33.2288                 3.0122                33.3015

                     13                     14                     15
                     A'                     A"                     A'
 Frequencies --   2984.4271              3017.9714              3474.5412
 Red. masses --      1.0545                 1.1038                 1.1601
 Frc consts  --      5.5336                 5.9235                 8.2514
 IR Inten    --      7.8283                 0.7257                51.6632

 - Thermochemistry -
 -------------------
 Temperature   298.150 Kelvin.  Pressure   1.00000 Atm.
 Atom     1 has atomic number  6 and mass  12.00000

 Molecular mass:    51.02348 amu.
 Principal axes and moments of inertia in atomic units:
                           1         2         3
     Eigenvalues --    48.75116 348.14985 385.59926
           X           -0.14601   0.98928   0.00000
           Y            0.98928   0.14601   0.00000
           Z            0.00000   0.00000   1.00000
 This molecule is an asymmetric top.
 Rotational symmetry number  1.
 Rotational temperatures (Kelvin)      1.77665     0.24878     0.22462
 Rotational constants (GHZ):          37.01945     5.18381     4.68035
 Zero-point vibrational energy     123872.2 (Joules/Mol)
                                   29.60616 (Kcal/Mol)
 Warning -- explicit consideration of   3 degrees of freedom as
           vibrations may cause significant error
 Vibrational temperatures:    315.52   458.94   761.45   957.97  1004.77
          (Kelvin)           1267.81  1293.27  1368.54  1698.82  1810.66
                             2066.97  3156.85  4293.92  4342.18  4999.08

 Zero-point correction=                           0.047180 (Hartree/Particle)
 Thermal correction to Energy=                    0.051580
 Thermal correction to Enthalpy=                  0.052524
 Thermal correction to Gibbs Free Energy=         0.019793
 Sum of electronic and zero-point Energies=           -153.905465
 Sum of electronic and thermal Energies=              -153.901066
 Sum of electronic and thermal Enthalpies=            -153.900122
 Sum of electronic and thermal Free Energies=         -153.932853

                     E (Thermal)             CV                S
                      KCal/Mol        Cal/Mol-Kelvin    Cal/Mol-Kelvin
 Total                   32.367             14.273             68.888
 Electronic               0.000              0.000              2.755
 Translational            0.889              2.981             37.712
 Rotational               0.889              2.981             23.397
 Vibrational             30.589              8.311              5.024
 Vibration     1          0.647              1.812              1.965
 Vibration     2          0.705              1.637              1.315
 Vibration     3          0.884              1.185              0.589

 Optimization completed.
    -- Stationary point found.
 Normal termination of Gaussian 09 at Sun Mar  4 21:09:32 2018.
