 Gaussian 09, Revision D.01,
 Gaussian 09:  ES64L-G09RevD.01 24-Apr-2013

 ---------------------------
 #p b3lyp/6-311++g(d,p) freq
 ---------------------------

 ---
 min
 ---
 Symbolic Z-matrix:
 Charge =  1 Multiplicity = 3

                         Standard orientation:
 ---------------------------------------------------------------------
 Center     Atomic      Atomic             Coordinates (Angstroms)
 Number     Number       Type             X           Y           Z
 ---------------------------------------------------------------------
      1          6           0        1.044304   -0.007324    0.102638
      2          6           0       -0.074110   -0.905111   -0.280296
      3          6           0       -1.168932   -0.212078    0.199210
      4          1           0        1.440556   -0.138260    1.106758
      5          1           0        1.792916    0.220121   -0.660139
      6          6           0       -0.274907    0.814979   -0.009824
      7          1           0       -0.391601    1.775345   -0.516984
 ---------------------------------------------------------------------

 SCF Done:  E(UB3LYP) =  -153.692399157     A.U. after   15 cycles

 The electronic state is 3-A.
 Alpha  occ. eigenvalues --  -10.55032 -10.52775 -10.52668 -10.47932  -1.23443
 Alpha  occ. eigenvalues --   -0.97035  -0.90139  -0.77129  -0.75390  -0.70629
 Alpha  occ. eigenvalues --   -0.68065  -0.61280  -0.56850  -0.53747
 Alpha virt. eigenvalues --   -0.31755  -0.29309  -0.16634  -0.15418  -0.13194
 Alpha virt. eigenvalues --   -0.12102  -0.10123  -0.08468  -0.07593  -0.07082
 Alpha virt. eigenvalues --   -0.06464  -0.05900  -0.03990  -0.02311  -0.01795

  Beta  occ. eigenvalues --  -10.53447 -10.52381 -10.50951 -10.47670  -1.21267
  Beta  occ. eigenvalues --   -0.95268  -0.87844  -0.74791  -0.71817  -0.69114
  Beta  occ. eigenvalues --   -0.65880  -0.58651
  Beta virt. eigenvalues --   -0.41259  -0.38295  -0.29233  -0.25646  -0.16177
  Beta virt. eigenvalues --   -0.14775  -0.12890  -0.11373  -0.09806  -0.08025
  Beta virt. eigenvalues --   -0.07273  -0.06897  -0.05910  -0.05123  -0.03232

 Mulliken charges and spin densities:
               1          2
     1  C   -0.520124   0.119609
     2  C    0.439872   0.797192
     3  C    0.140445   0.779506
     4  H    0.259611  -0.008625
     5  H    0.251128   0.040984
     6  C    0.137968   0.233676
     7  H    0.291101   0.037658
 Sum of Mulliken charges =   1.00000   2.00000

 Dipole moment (field-independent basis, Debye):
    X=              0.7760    Y=              1.1697    Z=             -0.3763  Tot=              1.4533
 Quadrupole moment (field-independent basis, Debye-Ang):
   XX=            -15.7215   YY=            -16.7415   ZZ=            -19.6869
   XY=             -0.4400   XZ=              0.4903   YZ=             -1.2124

  Exact polarizability:  40.358   0.533  36.018  -2.010   0.198  25.090
 Approx polarizability:  65.009   1.126  67.773  -5.782   3.274  37.529

                      1                      2                      3
                      A                      A                      A
 Frequencies --    458.0881               642.8228               686.2911
 Red. masses --      3.3576                 3.5386                 3.6707
 Frc consts  --      0.4151                 0.8615                 1.0186
 IR Inten    --      1.5801                 3.3824                 5.8915

                      4                      5                      6
                      A                      A                      A
 Frequencies --    883.5295               973.6207              1002.3860
 Red. masses --      1.6133                 1.3490                 1.3146
 Frc consts  --      0.7420                 0.7535                 0.7782
 IR Inten    --     34.3335                22.1831                10.5129

                      7                      8                      9
                      A                      A                      A
 Frequencies --   1055.6439              1090.3697              1164.2962
 Red. masses --      1.4762                 1.5392                 2.4988
 Frc consts  --      0.9692                 1.0782                 1.9957
 IR Inten    --      1.3024                15.3168                 8.1421

                     10                     11                     12
                      A                      A                      A
 Frequencies --   1245.8959              1423.2047              1495.3386
 Red. masses --      3.6180                 1.6357                 2.5042
 Frc consts  --      3.3089                 1.9521                 3.2992
 IR Inten    --     20.5595                 6.8002                 6.0064

                     13                     14                     15
                      A                      A                      A
 Frequencies --   3070.7275              3121.4487              3174.4198
 Red. masses --      1.0569                 1.0953                 1.1120
 Frc consts  --      5.8719                 6.2879                 6.6023
 IR Inten    --     42.1951                77.2481                28.2974

 - Thermochemistry -
 -------------------
 Temperature   298.150 Kelvin.  Pressure   1.00000 Atm.
 Atom     1 has atomic number  6 and mass  12.00000

 Molecular mass:    51.02348 amu.
 Principal axes and moments of inertia in atomic units:
                           1         2         3
     Eigenvalues --    89.23366 139.99968 204.97460
           X            0.99950  -0.02481   0.01943
           Y            0.02606   0.99741  -0.06698
           Z           -0.01772   0.06745   0.99757
 This molecule is an asymmetric top.
 Rotational symmetry number  1.
 Rotational temperatures (Kelvin)      0.97064     0.61867     0.42256
 Rotational constants (GHZ):          20.22489    12.89104     8.80471
 Zero-point vibrational energy     128527.3 (Joules/Mol)
                                   30.71876 (Kcal/Mol)
 Warning -- explicit consideration of   1 degrees of freedom as
           vibrations may cause significant error
 Vibrational temperatures:    659.09   924.88   987.42  1271.20  1400.82
          (Kelvin)           1442.21  1518.83  1568.80  1675.16  1792.56
                             2047.67  2151.46  4418.09  4491.06  4567.28

 Zero-point correction=                           0.048953 (Hartree/Particle)
 Thermal correction to Energy=                    0.052535
 Thermal correction to Enthalpy=                  0.053479
 Thermal correction to Gibbs Free Energy=         0.022865
 Sum of electronic and zero-point Energies=           -153.643446
 Sum of electronic and thermal Energies=              -153.639865
 Sum of electronic and thermal Enthalpies=            -153.638920
 Sum of electronic and thermal Free Energies=         -153.669534

                     E (Thermal)             CV                S
                      KCal/Mol        Cal/Mol-Kelvin    Cal/Mol-Kelvin
 Total                   32.966             11.596             64.432
 Electronic               0.000              0.000              2.183
 Translational            0.889              2.981             37.712
 Rotational               0.889              2.981             22.464
 Vibrational             31.188              5.635              2.072
 Vibration     1          0.816              1.343              0.772

 Normal termination of Gaussian 09 at Thu Jan 24 15:53:03 2019.
