 Gaussian 09, Revision D.01,
 Gaussian 09:  ES64L-G09RevD.01 24-Apr-2013

 ---------------------------
 #p b3lyp/6-311++g(d,p) freq
 ---------------------------

 ---
 min
 ---
 Symbolic Z-matrix:
 Charge =  1 Multiplicity = 1

                         Standard orientation:
 ---------------------------------------------------------------------
 Center     Atomic      Atomic             Coordinates (Angstroms)
 Number     Number       Type             X           Y           Z
 ---------------------------------------------------------------------
      1          6           0        1.466509   -0.677060   -0.090404
      2          6           0       -1.183643   -0.000840    0.465276
      3          8           0       -1.852691    0.000901   -0.521089
      4          6           0        0.319196   -0.000261    0.240696
      5          6           0        1.466343    0.677349   -0.089266
      6          1           0        1.977364   -1.618016   -0.248943
      7          1           0       -1.543704   -0.002985    1.504671
      8          1           0        1.977440    1.618669   -0.244827
 ---------------------------------------------------------------------

 SCF Done:  E(RB3LYP) =  -229.100294156     A.U. after   12 cycles

 The electronic state is 1-A.
 Alpha  occ. eigenvalues --  -19.35770 -10.51336 -10.51085 -10.51020 -10.50461
 Alpha  occ. eigenvalues --   -1.29329  -1.22433  -0.92097  -0.86096  -0.82300
 Alpha  occ. eigenvalues --   -0.76038  -0.68603  -0.66336  -0.65230  -0.65080
 Alpha  occ. eigenvalues --   -0.59907  -0.49454
 Alpha virt. eigenvalues --   -0.29616  -0.29572  -0.26660  -0.15830  -0.14579
 Alpha virt. eigenvalues --   -0.14304  -0.11755  -0.11256  -0.10187  -0.09431
 Alpha virt. eigenvalues --   -0.06267  -0.05653  -0.04290  -0.03935  -0.03168

 Mulliken charges:
               1
     1  C    0.108457
     2  C   -0.134766
     3  O   -0.116759
     4  C    0.279645
     5  C    0.108050
     6  H    0.280752
     7  H    0.193950
     8  H    0.280671
 Sum of Mulliken charges =   1.00000

 Dipole moment (field-independent basis, Debye):
    X=              5.3840    Y=             -0.0034    Z=              1.8095  Tot=              5.6799
 Quadrupole moment (field-independent basis, Debye-Ang):
   XX=            -15.9960   YY=            -19.3296   ZZ=            -24.2172
   XY=              0.0083   XZ=             -4.7585   YZ=              0.0051

  Exact polarizability:  49.607   0.001  32.756  -0.620  -0.006  29.211
 Approx polarizability:  71.926  -0.012  50.561   4.649  -0.013  47.053

                      1                      2                      3
                      A                      A                      A
 Frequencies --      7.7432               183.5485               293.2627
 Red. masses --      2.8750                 5.9111                 2.6007
 Frc consts  --      0.0001                 0.1173                 0.1318
 IR Inten    --      9.2663                31.1071                 4.8100

                      4                      5                      6
                      A                      A                      A
 Frequencies --    539.2111               748.1485               907.7036
 Red. masses --      4.8387                 2.2409                 1.5981
 Frc consts  --      0.8289                 0.7390                 0.7758
 IR Inten    --      9.2568                65.9196                21.5001

                      7                      8                      9
                      A                      A                      A
 Frequencies --    952.1259               966.9084              1004.2513
 Red. masses --      1.5519                 1.2683                 1.4253
 Frc consts  --      0.8289                 0.6986                 0.8469
 IR Inten    --      0.3028                86.3471                 0.0802

                     10                     11                     12
                      A                      A                      A
 Frequencies --   1025.8629              1263.5100              1349.3965
 Red. masses --      1.5041                 6.5108                 4.1742
 Frc consts  --      0.9326                 6.1241                 4.4782
 IR Inten    --     13.8463                29.5692                16.1413

                     13                     14                     15
                      A                      A                      A
 Frequencies --   1374.3188              1719.1752              1815.7245
 Red. masses --      1.3348                 6.3561                 9.2862
 Frc consts  --      1.4854                11.0682                18.0380
 IR Inten    --      6.7925                29.4866                88.5527

                     16                     17                     18
                      A                      A                      A
 Frequencies --   3029.8264              3233.2304              3268.6043
 Red. masses --      1.0962                 1.0984                 1.1462
 Frc consts  --      5.9287                 6.7655                 7.2148
 IR Inten    --      4.7228                94.1523                41.1750

 - Thermochemistry -
 -------------------
 Temperature   298.150 Kelvin.  Pressure   1.00000 Atm.
 Atom     1 has atomic number  6 and mass  12.00000

 Molecular mass:    67.01839 amu.
 Principal axes and moments of inertia in atomic units:
                           1         2         3
     Eigenvalues --    94.35212 517.67713 539.63908
           X            0.99966   0.00006  -0.02594
           Y           -0.00005   1.00000   0.00029
           Z            0.02594  -0.00029   0.99966
 This molecule is an asymmetric top.
 Rotational symmetry number  1.
 Rotational temperatures (Kelvin)      0.91798     0.16731     0.16050
 Rotational constants (GHZ):          19.12772     3.48623     3.34435
 Zero-point vibrational energy     141653.1 (Joules/Mol)
                                   33.85591 (Kcal/Mol)
 Warning -- explicit consideration of   4 degrees of freedom as
           vibrations may cause significant error
 Vibrational temperatures:     11.14   264.09   421.94   775.80  1076.42
          (Kelvin)           1305.98  1369.90  1391.16  1444.89  1475.99
                             1817.91  1941.48  1977.34  2473.51  2612.42
                             4359.24  4651.89  4702.79

 Zero-point correction=                           0.053953 (Hartree/Particle)
 Thermal correction to Energy=                    0.059261
 Thermal correction to Enthalpy=                  0.060205
 Thermal correction to Gibbs Free Energy=         0.023617
 Sum of electronic and zero-point Energies=           -229.046341
 Sum of electronic and thermal Energies=              -229.041033
 Sum of electronic and thermal Enthalpies=            -229.040089
 Sum of electronic and thermal Free Energies=         -229.076678

                     E (Thermal)             CV                S
                      KCal/Mol        Cal/Mol-Kelvin    Cal/Mol-Kelvin
 Total                   37.187             15.926             77.007
 Electronic               0.000              0.000              0.000
 Translational            0.889              2.981             38.525
 Rotational               0.889              2.981             24.781
 Vibrational             35.409              9.965             13.701
 Vibration     1          0.593              1.987              8.519
 Vibration     2          0.631              1.862              2.292
 Vibration     3          0.688              1.686              1.455
 Vibration     4          0.894              1.163              0.567

 Normal termination of Gaussian 09 at Thu Jan 24 15:58:37 2019.
