 Gaussian 09, Revision D.01,
 Gaussian 09:  ES64L-G09RevD.01 24-Apr-2013

 ---------------------------
 #p b3lyp/6-311++g(d,p) freq
 ---------------------------

 ---
 min
 ---
 Symbolic Z-matrix:
 Charge =  1 Multiplicity = 1

                         Standard orientation:
 ---------------------------------------------------------------------
 Center     Atomic      Atomic             Coordinates (Angstroms)
 Number     Number       Type             X           Y           Z
 ---------------------------------------------------------------------
      1          6           0       -0.786763    0.755416   -0.021957
      2          6           0        0.102795   -1.062285    0.247006
      3          8           0       -1.085520   -0.553107   -0.117446
      4          6           0        1.216660   -0.333580   -0.127901
      5          6           0        0.619028    0.931723    0.015635
      6          1           0       -1.605685    1.432756    0.187702
      7          1           0        2.256939   -0.620606   -0.161592
      8          1           0        1.122584    1.865058    0.236759
 ---------------------------------------------------------------------

 SCF Done:  E(RB3LYP) =  -229.034636753     A.U. after   15 cycles

 The electronic state is 1-A.
 Alpha  occ. eigenvalues --  -19.48706 -10.56150 -10.53960 -10.47287 -10.46920
 Alpha  occ. eigenvalues --   -1.42738  -1.10721  -1.01121  -0.87690  -0.83576
 Alpha  occ. eigenvalues --   -0.79299  -0.74441  -0.70417  -0.68529  -0.66093
 Alpha  occ. eigenvalues --   -0.56134  -0.51646
 Alpha virt. eigenvalues --   -0.40345  -0.28376  -0.23160  -0.15411  -0.13270
 Alpha virt. eigenvalues --   -0.12428  -0.11196  -0.10679  -0.10595  -0.08204
 Alpha virt. eigenvalues --   -0.06845  -0.05798  -0.05329  -0.04920  -0.02126

 Mulliken charges:
               1
     1  C   -0.171554
     2  C    0.212381
     3  O    0.143083
     4  C   -0.176480
     5  C    0.160268
     6  H    0.281123
     7  H    0.268185
     8  H    0.282994
 Sum of Mulliken charges =   1.00000

 Dipole moment (field-independent basis, Debye):
    X=              1.3097    Y=              1.8752    Z=             -0.1055  Tot=              2.2897
 Quadrupole moment (field-independent basis, Debye-Ang):
   XX=            -17.3131   YY=            -18.6523   ZZ=            -27.4946
   XY=             -2.7024   XZ=             -0.6640   YZ=              1.6954

  Exact polarizability:  45.052  -3.539  52.820  -0.766  -3.024  24.989
 Approx polarizability:  77.880  -8.262 130.070  -1.304 -12.978  39.683

                      1                      2                      3
                      A                      A                      A
 Frequencies --    469.9721               534.1363               579.5085
 Red. masses --      2.6610                 4.3595                 4.6705
 Frc consts  --      0.3463                 0.7328                 0.9241
 IR Inten    --      6.4590               100.7730                27.5436

                      4                      5                      6
                      A                      A                      A
 Frequencies --    680.5506               791.2023               878.9201
 Red. masses --      2.5183                 2.5412                 1.7579
 Frc consts  --      0.6872                 0.9373                 0.8001
 IR Inten    --     30.5691                38.1676                22.5270

                      7                      8                      9
                      A                      A                      A
 Frequencies --    937.6777               955.5091              1066.4625
 Red. masses --      1.7878                 2.1046                 1.3733
 Frc consts  --      0.9262                 1.1321                 0.9202
 IR Inten    --     18.1383                26.7582                19.2827

                     10                     11                     12
                      A                      A                      A
 Frequencies --   1080.2749              1177.3311              1219.7577
 Red. masses --      1.5396                 4.7589                 1.4789
 Frc consts  --      1.0586                 3.8865                 1.2964
 IR Inten    --      8.5221                38.5529                13.5025

                     13                     14                     15
                      A                      A                      A
 Frequencies --   1289.8773              1413.2680              1440.8367
 Red. masses --      4.7577                 2.5346                 3.3130
 Frc consts  --      4.6638                 2.9827                 4.0523
 IR Inten    --     79.7281                75.9506                 8.1873

                     16                     17                     18
                      A                      A                      A
 Frequencies --   3214.8285              3235.7379              3261.6713
 Red. masses --      1.0950                 1.1018                 1.1038
 Frc consts  --      6.6678                 6.7965                 6.9189
 IR Inten    --     29.2935                53.3613                59.5304

 - Thermochemistry -
 -------------------
 Temperature   298.150 Kelvin.  Pressure   1.00000 Atm.
 Atom     1 has atomic number  6 and mass  12.00000

 Molecular mass:    67.01839 amu.
 Principal axes and moments of inertia in atomic units:
                           1         2         3
     Eigenvalues --   157.16790 211.16580 359.36304
           X            0.99489  -0.10066  -0.00744
           Y            0.10079   0.99471   0.01984
           Z            0.00540  -0.02049   0.99978
 This molecule is an asymmetric top.
 Rotational symmetry number  1.
 Rotational temperatures (Kelvin)      0.55109     0.41017     0.24102
 Rotational constants (GHZ):          11.48289     8.54656     5.02206
 Zero-point vibrational energy     144912.8 (Joules/Mol)
                                   34.63498 (Kcal/Mol)
 Warning -- explicit consideration of   3 degrees of freedom as
           vibrations may cause significant error
 Vibrational temperatures:    676.18   768.50   833.78   979.16  1138.36
          (Kelvin)           1264.57  1349.11  1374.76  1534.40  1554.27
                             1693.91  1754.96  1855.84  2033.37  2073.04
                             4625.42  4655.50  4692.81

 Zero-point correction=                           0.055194 (Hartree/Particle)
 Thermal correction to Energy=                    0.059111
 Thermal correction to Enthalpy=                  0.060055
 Thermal correction to Gibbs Free Energy=         0.028919
 Sum of electronic and zero-point Energies=           -228.979442
 Sum of electronic and thermal Energies=              -228.975526
 Sum of electronic and thermal Enthalpies=            -228.974582
 Sum of electronic and thermal Free Energies=         -229.005718

                     E (Thermal)             CV                S
                      KCal/Mol        Cal/Mol-Kelvin    Cal/Mol-Kelvin
 Total                   37.093             13.835             65.532
 Electronic               0.000              0.000              0.000
 Translational            0.889              2.981             38.525
 Rotational               0.889              2.981             23.993
 Vibrational             35.315              7.874              3.014
 Vibration     1          0.827              1.317              0.738
 Vibration     2          0.889              1.175              0.578
 Vibration     3          0.936              1.076              0.486

 Optimization completed.
    -- Stationary point found.
 Normal termination of Gaussian 09 at Thu Jan 24 15:58:52 2019.
