 Gaussian 09, Revision D.01,
 Gaussian 09:  ES64L-G09RevD.01 24-Apr-2013

 ---------------------------
 #p b3lyp/6-311++g(d,p) freq
 ---------------------------

 ---
 min
 ---
 Symbolic Z-matrix:
 Charge =  1 Multiplicity = 1

                         Standard orientation:
 ---------------------------------------------------------------------
 Center     Atomic      Atomic             Coordinates (Angstroms)
 Number     Number       Type             X           Y           Z
 ---------------------------------------------------------------------
      1          6           0        0.000000    0.000000   -1.741730
      2          1           0       -0.000000    1.036212   -2.117297
      3          1           0        0.897386   -0.518106   -2.117297
      4          1           0       -0.897386   -0.518106   -2.117297
      5          6           0        0.000000    0.000000   -0.336765
      6          6           0        0.000000    0.000000    0.907820
      7          6           0        0.000000    0.000000    2.229324
 ---------------------------------------------------------------------

 SCF Done:  E(RB3LYP) =  -153.750986556     A.U. after   11 cycles

 The electronic state is 1-A1.
 Alpha  occ. eigenvalues --  -10.55961 -10.54504 -10.45417 -10.45242  -1.10734
 Alpha  occ. eigenvalues --   -1.03277  -0.94741  -0.75205  -0.70363  -0.70363
 Alpha  occ. eigenvalues --   -0.59600  -0.59600  -0.56267
 Alpha virt. eigenvalues --   -0.39396  -0.39396  -0.17971  -0.16517  -0.16517
 Alpha virt. eigenvalues --   -0.12785  -0.11611  -0.11611  -0.08367  -0.07338
 Alpha virt. eigenvalues --   -0.07338  -0.06038  -0.06038  -0.05591  -0.03509

 Mulliken charges:
               1
     1  C   -0.403071
     2  H    0.259899
     3  H    0.259899
     4  H    0.259899
     5  C    0.311226
     6  C    0.231987
     7  C    0.080162
 Sum of Mulliken charges =   1.00000

 Dipole moment (field-independent basis, Debye):
    X=             -0.0000    Y=             -0.0000    Z=             -3.0655  Tot=              3.0655
 Quadrupole moment (field-independent basis, Debye-Ang):
   XX=            -20.0050   YY=            -20.0050   ZZ=             -9.3046
   XY=             -0.0000   XZ=              0.0000   YZ=              0.0000

  Exact polarizability:  25.005   0.000  25.005  -0.000   0.000  78.134
 Approx polarizability:  35.342  -0.000  35.342   0.000   0.000 179.253

                      1                      2                      3
                      E                      E                      E
 Frequencies --    124.7562               124.7586               410.2128
 Red. masses --      6.6319                 6.6319                 3.0695
 Frc consts  --      0.0608                 0.0608                 0.3043
 IR Inten    --      0.0475                 0.0475                 0.8483

                      4                      5                      6
                      E                     A1                      E
 Frequencies --    410.2128               814.8175               965.5994
 Red. masses --      3.0695                 4.6192                 1.6342
 Frc consts  --      0.3043                 1.8069                 0.8978
 IR Inten    --      0.8483                37.7850                23.7147

                      7                      8                      9
                      E                     A1                      E
 Frequencies --    965.6007              1348.3649              1358.3781
 Red. masses --      1.6342                 1.2186                 1.0366
 Frc consts  --      0.8978                 1.3054                 1.1270
 IR Inten    --     23.7147                76.1558                23.7525

                     10                     11                     12
                      E                     A1                     A1
 Frequencies --   1358.3783              1471.9256              2248.3909
 Red. masses --      1.0366                10.8811                11.8627
 Frc consts  --      1.1270                13.8897                35.3328
 IR Inten    --     23.7518                 9.5233              1634.9418

                     13                     14                     15
                     A1                      E                      E
 Frequencies --   2959.5413              3025.2281              3025.2286
 Red. masses --      1.0338                 1.0979                 1.0979
 Frc consts  --      5.3348                 5.9199                 5.9199
 IR Inten    --    193.5630                53.1789                53.1832

 - Thermochemistry -
 -------------------
 Temperature   298.150 Kelvin.  Pressure   1.00000 Atm.
 Atom     1 has atomic number  6 and mass  12.00000

 Molecular mass:    51.02348 amu.
 Principal axes and moments of inertia in atomic units:
                           1         2         3
     Eigenvalues --    11.59315 434.56840 434.56840
           X            0.00000   0.12845   0.99172
           Y            0.00000   0.99172  -0.12845
           Z            1.00000  -0.00000  -0.00000
 This molecule is a prolate symmetric top.
 Rotational symmetry number  3.
 Rotational temperatures (Kelvin)      7.47112     0.19931     0.19931
 Rotational constants (GHZ):         155.67307     4.15295     4.15295
 Zero-point vibrational energy     123283.5 (Joules/Mol)
                                   29.46547 (Kcal/Mol)
 Warning -- explicit consideration of   4 degrees of freedom as
           vibrations may cause significant error
 Vibrational temperatures:    179.50   179.50   590.20   590.20  1172.34
          (Kelvin)           1389.28  1389.28  1939.99  1954.40  1954.40
                             2117.77  3234.93  4258.11  4352.62  4352.62

 Zero-point correction=                           0.046956 (Hartree/Particle)
 Thermal correction to Energy=                    0.051955
 Thermal correction to Enthalpy=                  0.052900
 Thermal correction to Gibbs Free Energy=         0.021432
 Sum of electronic and zero-point Energies=           -153.704030
 Sum of electronic and thermal Energies=              -153.699031
 Sum of electronic and thermal Enthalpies=            -153.698087
 Sum of electronic and thermal Free Energies=         -153.729555

                     E (Thermal)             CV                S
                      KCal/Mol        Cal/Mol-Kelvin    Cal/Mol-Kelvin
 Total                   32.603             14.631             66.229
 Electronic               0.000              0.000              0.000
 Translational            0.889              2.981             37.712
 Rotational               0.889              2.981             20.125
 Vibrational             30.825              8.670              8.392
 Vibration     1          0.610              1.928              3.025
 Vibration     2          0.610              1.928              3.025
 Vibration     3          0.774              1.448              0.926
 Vibration     4          0.774              1.448              0.926

 Optimization completed.
    -- Stationary point found.
 Normal termination of Gaussian 09 at Thu Jan 24 15:48:49 2019.
