 Gaussian 09, Revision D.01,
 Gaussian 09:  ES64L-G09RevD.01 24-Apr-2013

 ---------------------------
 #p b3lyp/6-311++g(d,p) freq
 ---------------------------

 ---
 min
 ---
 Symbolic Z-matrix:
 Charge =  0 Multiplicity = 4

                         Standard orientation:
 ---------------------------------------------------------------------
 Center     Atomic      Atomic             Coordinates (Angstroms)
 Number     Number       Type             X           Y           Z
 ---------------------------------------------------------------------
      1          6           0        0.005176    1.922625   -0.000000
      2          1           0        0.019981    2.476719    0.931227
      3          1           0        0.019981    2.476719   -0.931227
      4          6           0       -0.000000    0.516471   -0.000000
      5          6           0        0.021221   -0.721189    0.000000
      6          6           0        0.072489   -2.063445    0.000000
      7          1           0       -0.633278   -2.880203    0.000000
 ---------------------------------------------------------------------

 SCF Done:  E(UB3LYP) =  -154.030116340     A.U. after   15 cycles

 The electronic state is 4-A".
 Alpha  occ. eigenvalues --  -10.22445 -10.22158 -10.20875 -10.19880  -0.82399
 Alpha  occ. eigenvalues --   -0.76285  -0.68174  -0.52389  -0.49322  -0.47222
 Alpha  occ. eigenvalues --   -0.38447  -0.35155  -0.30814  -0.22009  -0.19170
 Alpha virt. eigenvalues --   -0.00613   0.00839   0.02460   0.04503   0.05089
 Alpha virt. eigenvalues --    0.05298   0.05646   0.08544   0.09050   0.09890
 Alpha virt. eigenvalues --    0.11284   0.11938   0.12160   0.13367   0.14106

  Beta  occ. eigenvalues --  -10.20966 -10.20085 -10.20017 -10.19821  -0.79356
  Beta  occ. eigenvalues --   -0.72220  -0.64202  -0.50139  -0.47637  -0.45517
  Beta  occ. eigenvalues --   -0.32628  -0.31465
  Beta virt. eigenvalues --   -0.16148  -0.09408  -0.05627  -0.00350   0.01201
  Beta virt. eigenvalues --    0.02659   0.04880   0.05735   0.06396   0.06863
  Beta virt. eigenvalues --    0.08909   0.11481   0.11659   0.12403   0.13123

 Mulliken charges and spin densities:
               1          2
     1  C   -0.570862   0.967223
     2  H    0.146318  -0.018009
     3  H    0.146318  -0.018009
     4  C    0.311318   0.545364
     5  C    0.474017  -0.034830
     6  C   -0.645858   1.574014
     7  H    0.138748  -0.015753
 Sum of Mulliken charges =   0.00000   3.00000

 Dipole moment (field-independent basis, Debye):
    X=             -0.6213    Y=              0.9559    Z=              0.0000  Tot=              1.1401
 Quadrupole moment (field-independent basis, Debye-Ang):
   XX=            -25.5359   YY=            -18.9316   ZZ=            -24.3401
   XY=              2.0949   XZ=              0.0000   YZ=             -0.0000

  Exact polarizability:  26.991  -0.608  98.614  -0.000  -0.000  27.461
 Approx polarizability:  33.387  -3.145 167.173   0.000   0.000  34.501

                      1                      2                      3
                     A"                     A'                     A'
 Frequencies --    171.9956               214.1735               372.5708
 Red. masses --      3.2096                 3.3304                 3.9984
 Frc consts  --      0.0559                 0.0900                 0.3270
 IR Inten    --      5.6658                 8.4079                 2.4700

                      4                      5                      6
                     A"                     A"                     A'
 Frequencies --    408.5093               461.2063               558.1313
 Red. masses --      7.4764                 1.1563                 1.4747
 Frc consts  --      0.7351                 0.1449                 0.2707
 IR Inten    --      0.0247                29.0577                57.1450

                      7                      8                      9
                     A'                     A'                     A"
 Frequencies --    778.6482               868.6314               997.0860
 Red. masses --      1.5903                 3.8145                 1.3434
 Frc consts  --      0.5681                 1.6957                 0.7869
 IR Inten    --     12.6178                12.3886                 0.0072

                     10                     11                     12
                     A'                     A'                     A'
 Frequencies --   1211.9802              1438.8409              2078.9130
 Red. masses --      6.0761                 1.1390                11.5101
 Frc consts  --      5.2586                 1.3893                29.3091
 IR Inten    --     37.5785                 1.3146                 5.2507

                     13                     14                     15
                     A'                     A"                     A'
 Frequencies --   3128.9113              3224.0183              3229.4709
 Red. masses --      1.0480                 1.1184                 1.0950
 Frc consts  --      6.0451                 6.8493                 6.7285
 IR Inten    --      6.2034                 0.5998                 7.0933

 - Thermochemistry -
 -------------------
 Temperature   298.150 Kelvin.  Pressure   1.00000 Atm.
 Atom     1 has atomic number  6 and mass  12.00000

 Molecular mass:    51.02348 amu.
 Principal axes and moments of inertia in atomic units:
                           1         2         3
     Eigenvalues --     7.90930 449.96342 454.53813
           X            0.00082   0.00000   1.00000
           Y            1.00000   0.00000  -0.00082
           Z            0.00000   1.00000   0.00000
 This molecule is an asymmetric top.
 Rotational symmetry number  1.
 Rotational temperatures (Kelvin)     10.95089     0.19249     0.19055
 Rotational constants (GHZ):         228.17974     4.01086     3.97049
 Zero-point vibrational energy     114501.1 (Joules/Mol)
                                   27.36642 (Kcal/Mol)
 Warning -- explicit consideration of   6 degrees of freedom as
           vibrations may cause significant error
 Vibrational temperatures:    247.46   308.15   536.05   587.75   663.57
          (Kelvin)            803.03  1120.30  1249.77  1434.58  1743.77
                             2070.17  2991.09  4501.80  4638.64  4646.48

 Zero-point correction=                           0.043611 (Hartree/Particle)
 Thermal correction to Energy=                    0.048871
 Thermal correction to Enthalpy=                  0.049815
 Thermal correction to Gibbs Free Energy=         0.016213
 Sum of electronic and zero-point Energies=           -153.986505
 Sum of electronic and thermal Energies=              -153.981245
 Sum of electronic and thermal Enthalpies=            -153.980301
 Sum of electronic and thermal Free Energies=         -154.013903

                     E (Thermal)             CV                S
                      KCal/Mol        Cal/Mol-Kelvin    Cal/Mol-Kelvin
 Total                   30.667             17.006             70.722
 Electronic               0.000              0.000              2.755
 Translational            0.889              2.981             37.712
 Rotational               0.889              2.981             22.008
 Vibrational             28.890             11.045              8.246
 Vibration     1          0.626              1.877              2.414
 Vibration     2          0.644              1.819              2.008
 Vibration     3          0.744              1.528              1.069
 Vibration     4          0.773              1.452              0.932
 Vibration     5          0.819              1.336              0.763
 Vibration     6          0.914              1.122              0.528

 Optimization completed.
    -- Stationary point found.
 Normal termination of Gaussian 09 at Sun Mar  4 21:08:42 2018.
