 Gaussian 09, Revision D.01,
 Gaussian 09:  ES64L-G09RevD.01 24-Apr-2013

 ---------------------------
 #p b3lyp/6-311++g(d,p) freq
 ---------------------------

 ---
 min
 ---
 Symbolic Z-matrix:
 Charge =  1 Multiplicity = 1

                         Standard orientation:
 ---------------------------------------------------------------------
 Center     Atomic      Atomic             Coordinates (Angstroms)
 Number     Number       Type             X           Y           Z
 ---------------------------------------------------------------------
      1          6           0        0.000000    0.302431   -0.000000
      2          6           0        1.346164    0.368779   -0.000000
      3          6           0       -0.803405    1.380783    0.000000
      4          6           0       -0.342216   -1.265096    0.000000
      5          1           0        0.593471   -1.833521   -0.000000
      6          1           0       -0.898368   -1.443931    0.919776
      7          1           0       -0.898368   -1.443931   -0.919776
 ---------------------------------------------------------------------

 SCF Done:  E(RB3LYP) =  -153.632383182     A.U. after   12 cycles

 The electronic state is 1-A'.
 Alpha  occ. eigenvalues --  -10.59080 -10.58454 -10.48691 -10.46994  -1.14671
 Alpha  occ. eigenvalues --   -0.98027  -0.94492  -0.71582  -0.70246  -0.67141
 Alpha  occ. eigenvalues --   -0.61223  -0.60679  -0.58270
 Alpha virt. eigenvalues --   -0.41066  -0.41000  -0.37654  -0.21710  -0.16728
 Alpha virt. eigenvalues --   -0.11911  -0.11491  -0.11038  -0.10446  -0.09335
 Alpha virt. eigenvalues --   -0.08247  -0.06907  -0.06344  -0.05576  -0.04022

 Mulliken charges:
               1
     1  C    0.033423
     2  C    0.337683
     3  C    0.489381
     4  C   -0.592353
     5  H    0.241465
     6  H    0.245200
     7  H    0.245200
 Sum of Mulliken charges =   1.00000

 Dipole moment (field-independent basis, Debye):
    X=             -0.4504    Y=             -1.1138    Z=             -0.0000  Tot=              1.2014
 Quadrupole moment (field-independent basis, Debye-Ang):
   XX=            -20.0100   YY=            -15.3129   ZZ=            -20.6339
   XY=              1.7749   XZ=              0.0000   YZ=              0.0000

  Exact polarizability:  45.577  -2.437  45.555   0.000   0.000  28.019
 Approx polarizability: 103.281 -16.458  77.204   0.000   0.000  41.113

                      1                      2                      3
                     A'                     A"                     A'
 Frequencies --    122.1473               164.5498               269.6251
 Red. masses --      4.9999                 1.1639                 9.1994
 Frc consts  --      0.0440                 0.0186                 0.3940
 IR Inten    --      4.9047                 0.1633                 6.1890

                      4                      5                      6
                     A"                     A'                     A"
 Frequencies --    301.4574               678.4764               976.7730
 Red. masses --      5.3340                 9.0441                 1.2103
 Frc consts  --      0.2856                 2.4529                 0.6803
 IR Inten    --      2.7718                22.7807                 5.9178

                      7                      8                      9
                     A'                     A'                     A'
 Frequencies --   1010.4218              1210.0567              1411.1301
 Red. masses --      1.2009                 2.9809                 1.4940
 Frc consts  --      0.7224                 2.5717                 1.7528
 IR Inten    --     22.9600                83.7052                 9.3538

                     10                     11                     12
                     A'                     A"                     A'
 Frequencies --   1422.0944              1447.5207              1685.5277
 Red. masses --      1.0773                 1.0474                10.9631
 Frc consts  --      1.2836                 1.2931                18.3508
 IR Inten    --     26.0497                16.7375               572.1685

                     13                     14                     15
                     A'                     A'                     A"
 Frequencies --   3029.5593              3128.0959              3183.1488
 Red. masses --      1.0289                 1.1001                 1.1132
 Frc consts  --      5.5637                 6.3421                 6.6457
 IR Inten    --     27.1269                18.2452                22.7013

 - Thermochemistry -
 -------------------
 Temperature   298.150 Kelvin.  Pressure   1.00000 Atm.
 Atom     1 has atomic number  6 and mass  12.00000

 Molecular mass:    51.02348 amu.
 Principal axes and moments of inertia in atomic units:
                           1         2         3
     Eigenvalues --   123.29568 191.79871 302.91552
           X           -0.03918   0.99923   0.00000
           Y            0.99923   0.03918   0.00000
           Z           -0.00000  -0.00000   1.00000
 This molecule is an asymmetric top.
 Rotational symmetry number  1.
 Rotational temperatures (Kelvin)      0.70249     0.45159     0.28593
 Rotational constants (GHZ):          14.63751     9.40956     5.95790
 Zero-point vibrational energy     119869.3 (Joules/Mol)
                                   28.64945 (Kcal/Mol)
 Warning -- explicit consideration of   4 degrees of freedom as
           vibrations may cause significant error
 Vibrational temperatures:    175.74   236.75   387.93   433.73   976.18
          (Kelvin)           1405.36  1453.77  1741.00  2030.30  2046.07
                             2082.66  2425.10  4358.85  4500.63  4579.84

 Zero-point correction=                           0.045656 (Hartree/Particle)
 Thermal correction to Energy=                    0.050913
 Thermal correction to Enthalpy=                  0.051858
 Thermal correction to Gibbs Free Energy=         0.018414
 Sum of electronic and zero-point Energies=           -153.586727
 Sum of electronic and thermal Energies=              -153.581470
 Sum of electronic and thermal Enthalpies=            -153.580526
 Sum of electronic and thermal Free Energies=         -153.613969

                     E (Thermal)             CV                S
                      KCal/Mol        Cal/Mol-Kelvin    Cal/Mol-Kelvin
 Total                   31.949             15.346             70.387
 Electronic               0.000              0.000              0.000
 Translational            0.889              2.981             37.712
 Rotational               0.889              2.981             23.486
 Vibrational             30.171              9.384              9.189
 Vibration     1          0.610              1.931              3.066
 Vibration     2          0.623              1.886              2.497
 Vibration     3          0.674              1.729              1.599
 Vibration     4          0.693              1.671              1.409

 Optimization completed.
    -- Stationary point found.
 Normal termination of Gaussian 09 at Thu Jan 24 15:48:36 2019.
