 Gaussian 09, Revision D.01,
 Gaussian 09:  ES64L-G09RevD.01 24-Apr-2013

 ---------------------------
 #p b3lyp/6-311++g(d,p) freq
 ---------------------------

 ---
 min
 ---
 Symbolic Z-matrix:
 Charge =  0 Multiplicity = 4

                         Standard orientation:
 ---------------------------------------------------------------------
 Center     Atomic      Atomic             Coordinates (Angstroms)
 Number     Number       Type             X           Y           Z
 ---------------------------------------------------------------------
      1          6           0        1.201792   -0.657491    0.105793
      2          6           0        1.200800    0.657722    0.105870
      3          6           0       -0.051625   -0.000018   -0.431512
      4          6           0       -1.445190   -0.000205    0.104055
      5          1           0       -1.467251   -0.007878    1.202723
      6          1           0       -1.981189    0.886205   -0.247696
      7          1           0       -1.986223   -0.878376   -0.260271
 ---------------------------------------------------------------------

 SCF Done:  E(UB3LYP) =  -153.944373202     A.U. after   15 cycles

 The electronic state is 4-A.
 Alpha  occ. eigenvalues --  -10.26130 -10.26026 -10.24342 -10.19416  -0.93047
 Alpha  occ. eigenvalues --   -0.75593  -0.55800  -0.51572  -0.45324  -0.43973
 Alpha  occ. eigenvalues --   -0.42686  -0.37247  -0.34709  -0.26190  -0.20066
 Alpha virt. eigenvalues --   -0.03724  -0.00434   0.02745   0.02841   0.03857
 Alpha virt. eigenvalues --    0.05036   0.05578   0.07445   0.08395   0.09019
 Alpha virt. eigenvalues --    0.11140   0.11338   0.12399   0.12460   0.12874

  Beta  occ. eigenvalues --  -10.24426 -10.24339 -10.22448 -10.19316  -0.89421
  Beta  occ. eigenvalues --   -0.74245  -0.51543  -0.45519  -0.43643  -0.40158
  Beta  occ. eigenvalues --   -0.39217  -0.32964
  Beta virt. eigenvalues --   -0.19361  -0.12097  -0.06030  -0.00215  -0.00024
  Beta virt. eigenvalues --    0.02854   0.02969   0.04610   0.05494   0.06109
  Beta virt. eigenvalues --    0.07599   0.08852   0.09750   0.11528   0.12204

 Mulliken charges and spin densities:
               1          2
     1  C   -0.079712   0.916415
     2  C   -0.078260   0.914315
     3  C    0.271325   1.093776
     4  C   -0.564507  -0.034465
     5  H    0.131963   0.066723
     6  H    0.159509   0.021785
     7  H    0.159682   0.021450
 Sum of Mulliken charges =   0.00000   3.00000

 Dipole moment (field-independent basis, Debye):
    X=             -1.5930    Y=             -0.0005    Z=              0.6442  Tot=              1.7184
 Quadrupole moment (field-independent basis, Debye-Ang):
   XX=            -24.3461   YY=            -24.2405   ZZ=            -25.6388
   XY=             -0.0031   XZ=              0.0496   YZ=              0.0007

  Exact polarizability:  57.550  -0.009  43.614   1.610  -0.009  37.699
 Approx polarizability:  74.938  -0.043  82.323   6.123  -0.014  51.884

                      1                      2                      3
                      A                      A                      A
 Frequencies --    132.4218               347.9247               372.2666
 Red. masses --      1.2013                 4.3789                 3.6195
 Frc consts  --      0.0124                 0.3123                 0.2955
 IR Inten    --      0.2116                 0.8211                 1.6263

                      4                      5                      6
                      A                      A                      A
 Frequencies --    505.0114               771.3060              1016.7261
 Red. masses --      8.6282                 4.1880                 1.4020
 Frc consts  --      1.2965                 1.4679                 0.8539
 IR Inten    --     23.5284                 2.3690                 3.6323

                      7                      8                      9
                      A                      A                      A
 Frequencies --   1036.4814              1192.6761              1385.4550
 Red. masses --      1.6658                 6.1866                 1.1977
 Frc consts  --      1.0543                 5.1850                 1.3545
 IR Inten    --      0.6403                22.0306                 1.7217

                     10                     11                     12
                      A                      A                      A
 Frequencies --   1463.5975              1467.3462              1629.5304
 Red. masses --      1.0426                 1.0495                11.7222
 Frc consts  --      1.3159                 1.3313                18.3394
 IR Inten    --      8.6055                12.6898                28.1230

                     13                     14                     15
                      A                      A                      A
 Frequencies --   2980.8644              3061.3822              3084.9995
 Red. masses --      1.0452                 1.0866                 1.1003
 Frc consts  --      5.4717                 6.0003                 6.1698
 IR Inten    --     27.5101                 9.7448                 9.2286

 - Thermochemistry -
 -------------------
 Temperature   298.150 Kelvin.  Pressure   1.00000 Atm.
 Atom     1 has atomic number  6 and mass  12.00000

 Molecular mass:    51.02348 amu.
 Principal axes and moments of inertia in atomic units:
                           1         2         3
     Eigenvalues --    57.67002 262.37684 290.03998
           X            0.99992   0.00001  -0.01266
           Y           -0.00001   1.00000  -0.00005
           Z            0.01266   0.00005   0.99992
 This molecule is an asymmetric top.
 Rotational symmetry number  1.
 Rotational temperatures (Kelvin)      1.50189     0.33011     0.29863
 Rotational constants (GHZ):          31.29427     6.87843     6.22239
 Zero-point vibrational energy     122306.1 (Joules/Mol)
                                   29.23187 (Kcal/Mol)
 Warning -- explicit consideration of   4 degrees of freedom as
           vibrations may cause significant error
 Vibrational temperatures:    190.53   500.59   535.61   726.60  1109.74
          (Kelvin)           1462.84  1491.26  1715.99  1993.36  2105.79
                             2111.18  2344.53  4288.79  4404.64  4438.62

 Zero-point correction=                           0.046584 (Hartree/Particle)
 Thermal correction to Energy=                    0.051205
 Thermal correction to Enthalpy=                  0.052149
 Thermal correction to Gibbs Free Energy=         0.019002
 Sum of electronic and zero-point Energies=           -153.897789
 Sum of electronic and thermal Energies=              -153.893168
 Sum of electronic and thermal Enthalpies=            -153.892224
 Sum of electronic and thermal Free Energies=         -153.925371

                     E (Thermal)             CV                S
                      KCal/Mol        Cal/Mol-Kelvin    Cal/Mol-Kelvin
 Total                   32.132             14.165             69.765
 Electronic               0.000              0.000              2.755
 Translational            0.889              2.981             37.712
 Rotational               0.889              2.981             23.000
 Vibrational             30.354              8.204              6.298
 Vibration     1          0.613              1.921              2.911
 Vibration     2          0.726              1.579              1.176
 Vibration     3          0.744              1.529              1.070
 Vibration     4          0.860              1.239              0.646

 Normal termination of Gaussian 09 at Sun Mar  4 21:10:17 2018.
