 Gaussian 09, Revision D.01,
 Gaussian 09:  ES64L-G09RevD.01 24-Apr-2013

 ---------------------------
 #p b3lyp/6-311++g(d,p) freq
 ---------------------------

 ---
 min
 ---
 Symbolic Z-matrix:
 Charge =  1 Multiplicity = 1

                         Standard orientation:
 ---------------------------------------------------------------------
 Center     Atomic      Atomic             Coordinates (Angstroms)
 Number     Number       Type             X           Y           Z
 ---------------------------------------------------------------------
      1          6           0       -0.601875    0.855511   -0.026564
      2          6           0        1.097032   -0.497428   -0.046071
      3          8           0        0.793186    0.797434    0.015430
      4          6           0       -0.118168   -1.105680    0.175488
      5          6           0       -1.232966   -0.382153   -0.139463
      6          1           0       -1.030403    1.790850    0.314409
      7          1           0        2.109643   -0.829352   -0.221283
      8          1           0       -2.288866   -0.562474    0.003099
 ---------------------------------------------------------------------

 SCF Done:  E(RB3LYP) =  -229.031043979     A.U. after   14 cycles

 The electronic state is 1-A.
 Alpha  occ. eigenvalues --  -19.47175 -10.52593 -10.52441 -10.51507 -10.46546
 Alpha  occ. eigenvalues --   -1.40261  -1.10488  -1.01968  -0.86945  -0.83755
 Alpha  occ. eigenvalues --   -0.78310  -0.74045  -0.70653  -0.68897  -0.64725
 Alpha  occ. eigenvalues --   -0.56814  -0.50639
 Alpha virt. eigenvalues --   -0.40767  -0.27360  -0.22210  -0.15153  -0.13684
 Alpha virt. eigenvalues --   -0.12910  -0.11565  -0.10588  -0.10222  -0.08790
 Alpha virt. eigenvalues --   -0.06288  -0.05677  -0.04956  -0.03941  -0.02532

 Mulliken charges:
               1
     1  C   -0.010895
     2  C   -0.123802
     3  O    0.050129
     4  C    0.392273
     5  C   -0.122649
     6  H    0.284383
     7  H    0.288196
     8  H    0.242364
 Sum of Mulliken charges =   1.00000

 Dipole moment (field-independent basis, Debye):
    X=             -0.7888    Y=             -0.9021    Z=             -0.2057  Tot=              1.2158
 Quadrupole moment (field-independent basis, Debye-Ang):
   XX=            -14.5725   YY=            -20.1080   ZZ=            -27.5199
   XY=             -3.5350   XZ=             -1.0089   YZ=              1.5119

  Exact polarizability:  47.800  -1.208  48.509  -1.256  -2.015  24.417
 Approx polarizability:  80.891   4.040 110.775  -3.020  -8.400  36.701

                      1                      2                      3
                      A                      A                      A
 Frequencies --    422.7332               524.6113               641.2464
 Red. masses --      3.4350                 2.4648                 7.9502
 Frc consts  --      0.3617                 0.3997                 1.9261
 IR Inten    --     25.4717                60.2980                35.6425

                      4                      5                      6
                      A                      A                      A
 Frequencies --    703.0746               794.8052               840.2551
 Red. masses --      2.1966                 1.7869                 1.6729
 Frc consts  --      0.6397                 0.6651                 0.6959
 IR Inten    --     18.8737                29.2644                23.0523

                      7                      8                      9
                      A                      A                      A
 Frequencies --    889.8811               974.7130              1073.0225
 Red. masses --      2.1941                 2.2686                 1.8265
 Frc consts  --      1.0237                 1.2699                 1.2390
 IR Inten    --     33.0295                12.0415                17.9594

                     10                     11                     12
                      A                      A                      A
 Frequencies --   1098.2306              1224.3551              1244.0162
 Red. masses --      1.5371                 2.5254                 1.6967
 Frc consts  --      1.0923                 2.2305                 1.5471
 IR Inten    --     49.9511                 8.3392                 8.7220

                     13                     14                     15
                      A                      A                      A
 Frequencies --   1308.5900              1433.2086              1515.9879
 Red. masses --      2.9212                 2.5697                 6.9443
 Frc consts  --      2.9473                 3.1100                 9.4031
 IR Inten    --     45.1981                11.8313                12.9570

                     16                     17                     18
                      A                      A                      A
 Frequencies --   3218.7153              3245.4413              3265.2738
 Red. masses --      1.0943                 1.1034                 1.1026
 Frc consts  --      6.6796                 6.8474                 6.9267
 IR Inten    --     57.0846                71.9049                62.5639

 - Thermochemistry -
 -------------------
 Temperature   298.150 Kelvin.  Pressure   1.00000 Atm.
 Atom     1 has atomic number  6 and mass  12.00000

 Molecular mass:    67.01839 amu.
 Principal axes and moments of inertia in atomic units:
                           1         2         3
     Eigenvalues --   153.68792 211.33809 359.56723
           X            0.98968  -0.14258  -0.01458
           Y            0.14284   0.98957   0.01848
           Z            0.01179  -0.02037   0.99972
 This molecule is an asymmetric top.
 Rotational symmetry number  1.
 Rotational temperatures (Kelvin)      0.56357     0.40984     0.24088
 Rotational constants (GHZ):          11.74290     8.53959     5.01920
 Zero-point vibrational energy     146053.0 (Joules/Mol)
                                   34.90751 (Kcal/Mol)
 Warning -- explicit consideration of   2 degrees of freedom as
           vibrations may cause significant error
 Vibrational temperatures:    608.22   754.80   922.61  1011.57  1143.55
          (Kelvin)           1208.94  1280.34  1402.39  1543.84  1580.11
                             1761.57  1789.86  1882.77  2062.06  2181.17
                             4631.01  4669.46  4697.99

 Zero-point correction=                           0.055629 (Hartree/Particle)
 Thermal correction to Energy=                    0.059554
 Thermal correction to Enthalpy=                  0.060498
 Thermal correction to Gibbs Free Energy=         0.029348
 Sum of electronic and zero-point Energies=           -228.975415
 Sum of electronic and thermal Energies=              -228.971490
 Sum of electronic and thermal Enthalpies=            -228.970546
 Sum of electronic and thermal Free Energies=         -229.001696

                     E (Thermal)             CV                S
                      KCal/Mol        Cal/Mol-Kelvin    Cal/Mol-Kelvin
 Total                   37.371             13.775             65.560
 Electronic               0.000              0.000              0.000
 Translational            0.889              2.981             38.525
 Rotational               0.889              2.981             23.972
 Vibrational             35.593              7.813              3.063
 Vibration     1          0.785              1.421              0.883
 Vibration     2          0.880              1.196              0.599

 Normal termination of Gaussian 09 at Thu Jan 24 15:58:51 2019.
