 Gaussian 09, Revision D.01,
 Gaussian 09:  ES64L-G09RevD.01 24-Apr-2013

 ---------------------------
 #p b3lyp/6-311++g(d,p) freq
 ---------------------------

 ---
 min
 ---
 Symbolic Z-matrix:
 Charge =  1 Multiplicity = 1

                         Standard orientation:
 ---------------------------------------------------------------------
 Center     Atomic      Atomic             Coordinates (Angstroms)
 Number     Number       Type             X           Y           Z
 ---------------------------------------------------------------------
      1          6           0        0.000000   -0.000000   -1.850477
      2          1           0        0.000000    0.936686   -2.414907
      3          1           0       -0.000000   -0.936686   -2.414907
      4          6           0        0.000000   -0.000000   -0.569461
      5          6           0       -0.000000    0.000000    0.747614
      6          6           0       -0.000000    0.000000    1.970099
      7          1           0       -0.000000    0.000000    3.043170
 ---------------------------------------------------------------------

 SCF Done:  E(RB3LYP) =  -153.823507354     A.U. after   12 cycles

 The electronic state is 1-A1.
 Alpha  occ. eigenvalues --  -10.51311 -10.48370 -10.45156 -10.44721  -1.08214
 Alpha  occ. eigenvalues --   -1.02010  -0.91713  -0.78044  -0.74388  -0.70513
 Alpha  occ. eigenvalues --   -0.61910  -0.58332  -0.51389
 Alpha virt. eigenvalues --   -0.38015  -0.29433  -0.16076  -0.15842  -0.13177
 Alpha virt. eigenvalues --   -0.11776  -0.11340  -0.10899  -0.09119  -0.07146
 Alpha virt. eigenvalues --   -0.05923  -0.04244  -0.03855  -0.02734  -0.01954

 Mulliken charges:
               1
     1  C   -0.559407
     2  H    0.246495
     3  H    0.246495
     4  C    0.498031
     5  C    2.005855
     6  C   -1.677796
     7  H    0.240326
 Sum of Mulliken charges =   1.00000

 Dipole moment (field-independent basis, Debye):
    X=             -0.0000    Y=              0.0000    Z=              0.0134  Tot=              0.0134
 Quadrupole moment (field-independent basis, Debye-Ang):
   XX=            -23.1022   YY=            -19.0156   ZZ=              4.8976
   XY=              0.0000   XZ=              0.0000   YZ=              0.0000

  Exact polarizability:  18.967  -0.000  20.516  -0.000   0.000  86.650
 Approx polarizability:  24.367   0.000  27.708  -0.000   0.000 189.709

                      1                      2                      3
                     B2                     B1                     B2
 Frequencies --    195.6493               222.9914               415.5810
 Red. masses --      2.8343                 3.9728                 2.1767
 Frc consts  --      0.0639                 0.1164                 0.2215
 IR Inten    --     16.8772                16.3803                 0.3617

                      4                      5                      6
                     B1                     B1                     B2
 Frequencies --    505.5859               650.0350               868.3860
 Red. masses --      8.7153                 1.2338                 2.1530
 Frc consts  --      1.3126                 0.3072                 0.9566
 IR Inten    --      0.1505                51.1971                17.9544

                      7                      8                      9
                     B1                     B2                     A1
 Frequencies --    882.9191               889.7774               919.7443
 Red. masses --      1.3181                 1.3508                 4.2958
 Frc consts  --      0.6054                 0.6301                 2.1411
 IR Inten    --     68.7041                 8.1337                 6.9680

                     10                     11                     12
                     A1                     A1                     A1
 Frequencies --   1307.4756              1855.5585              2168.5709
 Red. masses --      1.1527                 7.8752                 7.2259
 Frc consts  --      1.1610                15.9757                20.0213
 IR Inten    --     56.0633                12.4235               469.0966

                     13                     14                     15
                     A1                     B2                     A1
 Frequencies --   3063.9261              3136.8120              3383.2327
 Red. masses --      1.0606                 1.1111                 1.1570
 Frc consts  --      5.8664                 6.4417                 7.8025
 IR Inten    --    243.0938               105.8915               154.6858

 - Thermochemistry -
 -------------------
 Temperature   298.150 Kelvin.  Pressure   1.00000 Atm.
 Atom     1 has atomic number  6 and mass  12.00000

 Molecular mass:    51.02348 amu.
 Principal axes and moments of inertia in atomic units:
                           1         2         3
     Eigenvalues --     6.31539 425.99874 432.31414
           X            0.00000  -0.00000   1.00000
           Y            0.00000   1.00000  -0.00000
           Z            1.00000  -0.00000  -0.00000
 This molecule is an asymmetric top.
 Rotational symmetry number  2.
 Rotational temperatures (Kelvin)     13.71471     0.20332     0.20035
 Rotational constants (GHZ):         285.76857     4.23649     4.17461
 Zero-point vibrational energy     122415.3 (Joules/Mol)
                                   29.25797 (Kcal/Mol)
 Warning -- explicit consideration of   4 degrees of freedom as
           vibrations may cause significant error
 Vibrational temperatures:    281.50   320.83   597.93   727.42   935.25
          (Kelvin)           1249.41  1270.32  1280.19  1323.31  1881.16
                             2669.73  3120.09  4408.30  4513.17  4867.71

 Zero-point correction=                           0.046626 (Hartree/Particle)
 Thermal correction to Energy=                    0.051437
 Thermal correction to Enthalpy=                  0.052381
 Thermal correction to Gibbs Free Energy=         0.021660
 Sum of electronic and zero-point Energies=           -153.776882
 Sum of electronic and thermal Energies=              -153.772070
 Sum of electronic and thermal Enthalpies=            -153.771126
 Sum of electronic and thermal Free Energies=         -153.801847

                     E (Thermal)             CV                S
                      KCal/Mol        Cal/Mol-Kelvin    Cal/Mol-Kelvin
 Total                   32.277             15.443             64.658
 Electronic               0.000              0.000              0.000
 Translational            0.889              2.981             37.712
 Rotational               0.889              2.981             20.303
 Vibrational             30.500              9.482              6.643
 Vibration     1          0.636              1.846              2.174
 Vibration     2          0.649              1.806              1.935
 Vibration     3          0.779              1.436              0.907
 Vibration     4          0.861              1.238              0.644

 Optimization completed.
    -- Stationary point found.
 Normal termination of Gaussian 09 at Thu Jan 24 15:49:48 2019.
