 Gaussian 09, Revision D.01,
 Gaussian 09:  ES64L-G09RevD.01 24-Apr-2013

 ---------------------------
 #p b3lyp/6-311++g(d,p) freq
 ---------------------------

 ---
 min
 ---
 Symbolic Z-matrix:
 Charge =  0 Multiplicity = 4

                         Standard orientation:
 ---------------------------------------------------------------------
 Center     Atomic      Atomic             Coordinates (Angstroms)
 Number     Number       Type             X           Y           Z
 ---------------------------------------------------------------------
      1          6           0        0.000000    0.000000    1.067384
      2          6           0       -0.000000   -1.041861    0.078595
      3          6           0        0.000000    0.000000   -0.916429
      4          1           0       -0.000000   -0.000000   -1.999419
      5          6           0        0.000000    1.041861    0.078595
      6          1           0        0.000000    2.119193    0.075272
      7          1           0       -0.000000   -2.119193    0.075272
 ---------------------------------------------------------------------

 SCF Done:  E(UB3LYP) =  -154.022534629     A.U. after   13 cycles

 The electronic state is 4-B2.
 Alpha  occ. eigenvalues --  -10.22485 -10.20909 -10.20900 -10.20827  -0.91556
 Alpha  occ. eigenvalues --   -0.67392  -0.64741  -0.54349  -0.47638  -0.42009
 Alpha  occ. eigenvalues --   -0.41124  -0.39966  -0.27345  -0.20635  -0.19741
 Alpha virt. eigenvalues --   -0.00095   0.01148   0.01829   0.02852   0.05314
 Alpha virt. eigenvalues --    0.05643   0.07463   0.07813   0.09517   0.09942
 Alpha virt. eigenvalues --    0.09952   0.10008   0.12541   0.12750   0.12916

  Beta  occ. eigenvalues --  -10.20298 -10.20016 -10.20001 -10.19961  -0.88151
  Beta  occ. eigenvalues --   -0.64489  -0.60793  -0.52988  -0.43241  -0.39746
  Beta  occ. eigenvalues --   -0.38728  -0.33693
  Beta virt. eigenvalues --   -0.11026  -0.09223  -0.07119  -0.00008   0.01215
  Beta virt. eigenvalues --    0.02150   0.06012   0.06117   0.07451   0.08376
  Beta virt. eigenvalues --    0.08955   0.10238   0.10330   0.10468   0.10959

 Mulliken charges and spin densities:
               1          2
     1  C    0.070224   1.227942
     2  C   -0.266523   0.640781
     3  C   -0.013425   0.511598
     4  H    0.169824   0.026149
     5  C   -0.266523   0.640781
     6  H    0.153212  -0.023626
     7  H    0.153212  -0.023626
 Sum of Mulliken charges =  -0.00000   3.00000

 Dipole moment (field-independent basis, Debye):
    X=             -0.0000    Y=             -0.0000    Z=             -1.1258  Tot=              1.1258
 Quadrupole moment (field-independent basis, Debye-Ang):
   XX=            -26.5324   YY=            -20.0361   ZZ=            -24.1067
   XY=              0.0000   XZ=              0.0000   YZ=             -0.0000

  Exact polarizability:  30.886  -0.000  50.834  -0.000  -0.000  48.585
 Approx polarizability:  41.698   0.000  80.761   0.000  -0.000  79.921

                      1                      2                      3
                     B1                     A2                     B1
 Frequencies --    491.5879               594.4686               613.2322
 Red. masses --      1.7032                 1.3195                 1.1952
 Frc consts  --      0.2425                 0.2747                 0.2648
 IR Inten    --     64.4174                 0.0000                25.6022

                      4                      5                      6
                     B1                     A1                     A1
 Frequencies --    644.9016               851.6542               918.3700
 Red. masses --      2.2033                 2.0253                 6.5607
 Frc consts  --      0.5399                 0.8655                 3.2601
 IR Inten    --     43.1884                23.5545                 4.2024

                      7                      8                      9
                     B2                     B2                     B2
 Frequencies --    940.4135              1087.2030              1223.0960
 Red. masses --      1.5284                 1.5207                 1.8160
 Frc consts  --      0.7964                 1.0590                 1.6006
 IR Inten    --     11.1212                 0.1634                 3.9378

                     10                     11                     12
                     A1                     B2                     A1
 Frequencies --   1253.0023              1264.0851              1290.8505
 Red. masses --      1.9897                 8.3174                 4.9351
 Frc consts  --      1.8405                 7.8305                 4.8451
 IR Inten    --      7.3801                 3.9074                 2.0035

                     13                     14                     15
                     A1                     B2                     A1
 Frequencies --   3188.7880              3262.6958              3270.2374
 Red. masses --      1.0911                 1.0919                 1.1051
 Frc consts  --      6.5367                 6.8486                 6.9630
 IR Inten    --      0.1168                 0.1779                 0.3304

 - Thermochemistry -
 -------------------
 Temperature   298.150 Kelvin.  Pressure   1.00000 Atm.
 Atom     1 has atomic number  6 and mass  12.00000

 Molecular mass:    51.02348 amu.
 Principal axes and moments of inertia in atomic units:
                           1         2         3
     Eigenvalues --    99.53447 125.35740 224.89188
           X           -0.00000   0.00000   1.00000
           Y            1.00000   0.00000   0.00000
           Z            0.00000   1.00000   0.00000
 This molecule is an asymmetric top.
 Rotational symmetry number  2.
 Rotational temperatures (Kelvin)      0.87019     0.69093     0.38514
 Rotational constants (GHZ):          18.13182    14.39677     8.02493
 Zero-point vibrational energy     124977.4 (Joules/Mol)
                                   29.87031 (Kcal/Mol)
 Warning -- explicit consideration of   3 degrees of freedom as
           vibrations may cause significant error
 Vibrational temperatures:    707.28   855.31   882.30   927.87  1225.34
          (Kelvin)           1321.33  1353.04  1564.24  1759.76  1802.79
                             1818.73  1857.24  4587.95  4694.29  4705.14

 Zero-point correction=                           0.047601 (Hartree/Particle)
 Thermal correction to Energy=                    0.051358
 Thermal correction to Enthalpy=                  0.052302
 Thermal correction to Gibbs Free Energy=         0.021797
 Sum of electronic and zero-point Energies=           -153.974933
 Sum of electronic and thermal Energies=              -153.971177
 Sum of electronic and thermal Enthalpies=            -153.970232
 Sum of electronic and thermal Free Energies=         -154.000738

                     E (Thermal)             CV                S
                      KCal/Mol        Cal/Mol-Kelvin    Cal/Mol-Kelvin
 Total                   32.228             12.681             64.204
 Electronic               0.000              0.000              2.755
 Translational            0.889              2.981             37.712
 Rotational               0.889              2.981             21.178
 Vibrational             30.450              6.720              2.559
 Vibration     1          0.847              1.269              0.679
 Vibration     2          0.952              1.044              0.459
 Vibration     3          0.973              1.004              0.427

 Optimization completed.
    -- Stationary point found.
 Normal termination of Gaussian 09 at Sun Mar  4 21:08:44 2018.
