 Gaussian 09, Revision D.01,
 Gaussian 09:  ES64L-G09RevD.01 24-Apr-2013

 ---------------------------
 #p b3lyp/6-311++g(d,p) freq
 ---------------------------

 ---
 min
 ---
 Symbolic Z-matrix:
 Charge =  0 Multiplicity = 2

                         Standard orientation:
 ---------------------------------------------------------------------
 Center     Atomic      Atomic             Coordinates (Angstroms)
 Number     Number       Type             X           Y           Z
 ---------------------------------------------------------------------
      1          6           0        0.011177   -0.574409   -0.000000
      2          1           0        0.451378   -1.008040    0.910268
      3          1           0       -1.059240   -0.865338    0.000000
      4          1           0        0.451378   -1.008040   -0.910268
      5          8           0        0.011177    0.790984    0.000000
 ---------------------------------------------------------------------

 SCF Done:  E(UB3LYP) =  -115.092244718     A.U. after   12 cycles

 The electronic state is 2-A'.
 Alpha  occ. eigenvalues --  -19.17597 -10.23424  -1.03924  -0.68367  -0.49435
 Alpha  occ. eigenvalues --   -0.47299  -0.44736  -0.34119  -0.29838
 Alpha virt. eigenvalues --   -0.00965   0.02876   0.03068   0.03215   0.08605
 Alpha virt. eigenvalues --    0.09425   0.11333   0.15873   0.16568   0.17378
 Alpha virt. eigenvalues --    0.20486   0.21363   0.22180   0.24925   0.34507

  Beta  occ. eigenvalues --  -19.15238 -10.23478  -0.98726  -0.66548  -0.46720
  Beta  occ. eigenvalues --   -0.45005  -0.42590  -0.27747
  Beta virt. eigenvalues --   -0.15145  -0.00881   0.03008   0.03068   0.03413
  Beta virt. eigenvalues --    0.08913   0.09511   0.11431   0.16304   0.16812
  Beta virt. eigenvalues --    0.17464   0.22126   0.22355   0.22397   0.25257

 Mulliken charges and spin densities:
               1          2
     1  C   -0.285526  -0.053795
     2  H    0.144281   0.021622
     3  H    0.173972   0.112164
     4  H    0.144281   0.021622
     5  O   -0.177007   0.898385
 Sum of Mulliken charges =   0.00000   1.00000

 Dipole moment (field-independent basis, Debye):
    X=             -0.2281    Y=             -2.2277    Z=              0.0000  Tot=              2.2393
 Quadrupole moment (field-independent basis, Debye-Ang):
   XX=            -11.7265   YY=            -13.9076   ZZ=            -12.9105
   XY=              0.2392   XZ=              0.0000   YZ=             -0.0000

  Exact polarizability:  15.599   0.090  21.073  -0.000   0.000  18.437
 Approx polarizability:  19.280   0.578  27.400   0.000  -0.000  19.917

                      1                      2                      3
                     A"                     A'                     A'
 Frequencies --    686.3686               957.8351              1104.0630
 Red. masses --      1.3269                 1.5400                 3.9822
 Frc consts  --      0.3683                 0.8324                 2.8600
 IR Inten    --     86.8693                 0.8991                10.0333

                      4                      5                      6
                     A"                     A'                     A'
 Frequencies --   1353.6581              1364.9727              1510.2518
 Red. masses --      1.0268                 1.0926                 1.1084
 Frc consts  --      1.1085                 1.1994                 1.4896
 IR Inten    --     16.9155                24.3818                 6.4835

                      7                      8                      9
                     A'                     A'                     A"
 Frequencies --   2892.9448              2965.5246              3007.7139
 Red. masses --      1.0462                 1.0691                 1.1012
 Frc consts  --      5.1587                 5.5393                 5.8695
 IR Inten    --      0.2503                43.2181                30.4224

 - Thermochemistry -
 -------------------
 Temperature   298.150 Kelvin.  Pressure   1.00000 Atm.
 Atom     1 has atomic number  6 and mass  12.00000

 Molecular mass:    31.01839 amu.
 Principal axes and moments of inertia in atomic units:
                           1         2         3
     Eigenvalues --    11.47773  64.46101  64.91166
           X            0.00379   0.00000   0.99999
           Y            0.99999   0.00000  -0.00379
           Z           -0.00000   1.00000  -0.00000
 This molecule is an asymmetric top.
 Rotational symmetry number  1.
 Rotational temperatures (Kelvin)      7.54625     1.34366     1.33433
 Rotational constants (GHZ):         157.23849    27.99741    27.80303
 Zero-point vibrational energy      94764.2 (Joules/Mol)
                                   22.64918 (Kcal/Mol)
 Vibrational temperatures:    987.53  1378.11  1588.50  1947.61  1963.89
          (Kelvin)           2172.91  4162.30  4266.72  4327.42

 Zero-point correction=                           0.036094 (Hartree/Particle)
 Thermal correction to Energy=                    0.039135
 Thermal correction to Enthalpy=                  0.040079
 Thermal correction to Gibbs Free Energy=         0.013154
 Sum of electronic and zero-point Energies=           -115.056151
 Sum of electronic and thermal Energies=              -115.053110
 Sum of electronic and thermal Enthalpies=            -115.052166
 Sum of electronic and thermal Free Energies=         -115.079091

                     E (Thermal)             CV                S
                      KCal/Mol        Cal/Mol-Kelvin    Cal/Mol-Kelvin
 Total                   24.557              7.835             56.668
 Electronic               0.000              0.000              1.377
 Translational            0.889              2.981             36.229
 Rotational               0.889              2.981             18.513
 Vibrational             22.780              1.874              0.549

 Optimization completed.
    -- Stationary point found.
 Normal termination of Gaussian 09 at Sun Mar  4 21:13:28 2018.
