 Gaussian 09, Revision D.01,
 Gaussian 09:  ES64L-G09RevD.01 24-Apr-2013

 ---------------------------
 #p b3lyp/6-311++g(d,p) freq
 ---------------------------

 ---
 min
 ---
 Symbolic Z-matrix:
 Charge =  1 Multiplicity = 3

                         Standard orientation:
 ---------------------------------------------------------------------
 Center     Atomic      Atomic             Coordinates (Angstroms)
 Number     Number       Type             X           Y           Z
 ---------------------------------------------------------------------
      1          6           0       -0.007216    0.668543   -0.000000
      2          1           0       -0.898244   -1.084902    0.000000
      3          1           0        0.499633    1.122254    0.901669
      4          1           0        0.499633    1.122254   -0.901669
      5          8           0       -0.007216   -0.646358    0.000000
 ---------------------------------------------------------------------

 SCF Done:  E(UB3LYP) =  -114.681261465     A.U. after   12 cycles

 The electronic state is 3-A".
 Alpha  occ. eigenvalues --  -19.57554 -10.56372  -1.45952  -1.03670  -0.86369
 Alpha  occ. eigenvalues --   -0.83313  -0.80736  -0.67287  -0.54636
 Alpha virt. eigenvalues --   -0.23943  -0.18527  -0.14581  -0.13284  -0.09970
 Alpha virt. eigenvalues --   -0.09673  -0.06625  -0.04673  -0.03154  -0.02523
 Alpha virt. eigenvalues --   -0.01659   0.00508   0.01143   0.05897   0.10463

  Beta  occ. eigenvalues --  -19.55534 -10.54638  -1.41351  -0.99745  -0.81907
  Beta  occ. eigenvalues --   -0.76386  -0.74927
  Beta virt. eigenvalues --   -0.51965  -0.36673  -0.22948  -0.17335  -0.13256
  Beta virt. eigenvalues --   -0.12319  -0.08819  -0.08380  -0.06007  -0.03129
  Beta virt. eigenvalues --   -0.02541  -0.01365  -0.00734   0.01595   0.02740

 Mulliken charges and spin densities:
               1          2
     1  C   -0.135591   1.030257
     2  H    0.389124   0.012907
     3  H    0.314400   0.153306
     4  H    0.314400   0.153306
     5  O    0.117667   0.650224
 Sum of Mulliken charges =   1.00000   2.00000

 Dipole moment (field-independent basis, Debye):
    X=             -0.7232    Y=              0.6484    Z=              0.0000  Tot=              0.9713
 Quadrupole moment (field-independent basis, Debye-Ang):
   XX=             -8.9115   YY=             -5.6976   ZZ=             -8.6509
   XY=              4.3507   XZ=             -0.0000   YZ=              0.0000

  Exact polarizability:  11.936   3.540  22.588  -0.000  -0.000  13.036
 Approx polarizability:  14.777   4.815  34.031  -0.000  -0.000  16.945

                      1                      2                      3
                     A"                     A'                     A"
 Frequencies --    632.6244               729.6609               982.6321
 Red. masses --      1.0967                 1.2319                 1.2066
 Frc consts  --      0.2586                 0.3864                 0.6864
 IR Inten    --    163.7062                92.9016                61.1123

                      4                      5                      6
                     A'                     A'                     A'
 Frequencies --   1032.9316              1106.0203              1267.2482
 Red. masses --      1.2446                 1.5202                 2.4104
 Frc consts  --      0.7824                 1.0956                 2.2807
 IR Inten    --    351.6843                36.5319                12.9002

                      7                      8                      9
                     A"                     A'                     A'
 Frequencies --   2670.7934              2704.4504              3455.2679
 Red. masses --      1.0874                 1.0455                 1.0680
 Frc consts  --      4.5702                 4.5052                 7.5128
 IR Inten    --    194.0245               348.4583               374.3676

 - Thermochemistry -
 -------------------
 Temperature   298.150 Kelvin.  Pressure   1.00000 Atm.
 Atom     1 has atomic number  6 and mass  12.00000

 Molecular mass:    31.01839 amu.
 Principal axes and moments of inertia in atomic units:
                           1         2         3
     Eigenvalues --     9.46076  60.87099  63.11431
           X            0.14293   0.00000   0.98973
           Y            0.98973   0.00000  -0.14293
           Z           -0.00000   1.00000   0.00000
 This molecule is an asymmetric top.
 Rotational symmetry number  1.
 Rotational temperatures (Kelvin)      9.15506     1.42291     1.37233
 Rotational constants (GHZ):         190.76064    29.64862    28.59480
 Zero-point vibrational energy      87217.5 (Joules/Mol)
                                   20.84549 (Kcal/Mol)
 Vibrational temperatures:    910.20  1049.82  1413.79  1486.16  1591.31
          (Kelvin)           1823.29  3842.67  3891.10  4971.35

 Zero-point correction=                           0.033219 (Hartree/Particle)
 Thermal correction to Energy=                    0.036405
 Thermal correction to Enthalpy=                  0.037349
 Thermal correction to Gibbs Free Energy=         0.009985
 Sum of electronic and zero-point Energies=           -114.648042
 Sum of electronic and thermal Energies=              -114.644856
 Sum of electronic and thermal Enthalpies=            -114.643912
 Sum of electronic and thermal Free Energies=         -114.671276

                     E (Thermal)             CV                S
                      KCal/Mol        Cal/Mol-Kelvin    Cal/Mol-Kelvin
 Total                   22.845              8.879             57.593
 Electronic               0.000              0.000              2.183
 Translational            0.889              2.981             36.229
 Rotational               0.889              2.981             18.237
 Vibrational             21.067              2.917              0.944

 Optimization completed.
    -- Stationary point found.
 Normal termination of Gaussian 09 at Thu Jan 24 15:39:06 2019.
