 Gaussian 09, Revision D.01,
 Gaussian 09:  ES64L-G09RevD.01 24-Apr-2013

 ---------------------------
 #p b3lyp/6-311++g(d,p) freq
 ---------------------------

 ---
 min
 ---
 Symbolic Z-matrix:
 Charge =  1 Multiplicity = 3

                         Standard orientation:
 ---------------------------------------------------------------------
 Center     Atomic      Atomic             Coordinates (Angstroms)
 Number     Number       Type             X           Y           Z
 ---------------------------------------------------------------------
      1          6           0        0.020807    0.861061   -0.000000
      2          1           0        0.318392   -1.019130    0.820404
      3          1           0        0.318392   -1.019130   -0.820404
      4          1           0       -0.928089    1.400564   -0.000000
      5          8           0        0.020807   -0.566084    0.000000
 ---------------------------------------------------------------------

 SCF Done:  E(UB3LYP) =  -114.676094079     A.U. after   11 cycles

 The electronic state is 3-A".
 Alpha  occ. eigenvalues --  -19.56010 -10.54555  -1.45231  -1.01195  -0.94707
 Alpha  occ. eigenvalues --   -0.80139  -0.76637  -0.56150  -0.52323
 Alpha virt. eigenvalues --   -0.26836  -0.18746  -0.15886  -0.12740  -0.10522
 Alpha virt. eigenvalues --   -0.08532  -0.07045  -0.05577  -0.05106  -0.03818
 Alpha virt. eigenvalues --   -0.01280   0.00438   0.02277   0.03446   0.08931

  Beta  occ. eigenvalues --  -19.55729 -10.51302  -1.44158  -0.97160  -0.93830
  Beta  occ. eigenvalues --   -0.76657  -0.73488
  Beta virt. eigenvalues --   -0.36067  -0.32144  -0.25950  -0.18516  -0.14280
  Beta virt. eigenvalues --   -0.11259  -0.09756  -0.07643  -0.05073  -0.04877
  Beta virt. eigenvalues --   -0.03667  -0.03594  -0.00569   0.01462   0.02659

 Mulliken charges and spin densities:
               1          2
     1  C    0.018307   1.937141
     2  H    0.403683   0.023990
     3  H    0.403683   0.023990
     4  H    0.258360   0.030531
     5  O   -0.084033  -0.015653
 Sum of Mulliken charges =   1.00000   2.00000

 Dipole moment (field-independent basis, Debye):
    X=              0.4319    Y=             -2.0390    Z=             -0.0000  Tot=              2.0843
 Quadrupole moment (field-independent basis, Debye-Ang):
   XX=            -10.2185   YY=             -4.8613   ZZ=             -8.2023
   XY=             -3.2559   XZ=             -0.0000   YZ=              0.0000

  Exact polarizability:  11.247  -1.703  17.198  -0.000  -0.000  11.669
 Approx polarizability:  13.253  -1.742  20.284   0.000   0.000  14.374

                      1                      2                      3
                     A"                     A'                     A'
 Frequencies --    387.6437               533.6176               964.7359
 Red. masses --      1.0803                 1.2342                 6.5532
 Frc consts  --      0.0956                 0.2071                 3.5935
 IR Inten    --     67.0342               361.3597                57.8656

                      4                      5                      6
                     A"                     A'                     A'
 Frequencies --   1030.7302              1091.6709              1659.9759
 Red. masses --      1.1798                 1.1827                 1.0878
 Frc consts  --      0.7385                 0.8304                 1.7661
 IR Inten    --     15.0158                18.4764               125.7545

                      7                      8                      9
                     A'                     A'                     A"
 Frequencies --   3130.1127              3537.8289              3607.7336
 Red. masses --      1.0900                 1.0389                 1.0933
 Frc consts  --      6.2923                 7.6609                 8.3844
 IR Inten    --     51.1386               246.9744               432.5054

 - Thermochemistry -
 -------------------
 Temperature   298.150 Kelvin.  Pressure   1.00000 Atm.
 Atom     1 has atomic number  6 and mass  12.00000

 Molecular mass:    31.01839 amu.
 Principal axes and moments of inertia in atomic units:
                           1         2         3
     Eigenvalues --     7.92476  68.42865  70.19333
           X           -0.11216   0.00000   0.99369
           Y            0.99369  -0.00000   0.11216
           Z            0.00000   1.00000  -0.00000
 This molecule is an asymmetric top.
 Rotational symmetry number  1.
 Rotational temperatures (Kelvin)     10.92952     1.26575     1.23393
 Rotational constants (GHZ):         227.73461    26.37406    25.71101
 Zero-point vibrational energy      95366.6 (Joules/Mol)
                                   22.79316 (Kcal/Mol)
 Warning -- explicit consideration of   2 degrees of freedom as
           vibrations may cause significant error
 Vibrational temperatures:    557.73   767.76  1388.04  1482.99  1570.67
          (Kelvin)           2388.33  4503.53  5090.14  5190.72

 Zero-point correction=                           0.036323 (Hartree/Particle)
 Thermal correction to Energy=                    0.039781
 Thermal correction to Enthalpy=                  0.040725
 Thermal correction to Gibbs Free Energy=         0.012909
 Sum of electronic and zero-point Energies=           -114.639771
 Sum of electronic and thermal Energies=              -114.636313
 Sum of electronic and thermal Enthalpies=            -114.635369
 Sum of electronic and thermal Free Energies=         -114.663185

                     E (Thermal)             CV                S
                      KCal/Mol        Cal/Mol-Kelvin    Cal/Mol-Kelvin
 Total                   24.963              9.726             58.544
 Electronic               0.000              0.000              2.183
 Translational            0.889              2.981             36.229
 Rotational               0.889              2.981             18.282
 Vibrational             23.185              3.764              1.849
 Vibration     1          0.756              1.497              1.009
 Vibration     2          0.889              1.176              0.579

 Optimization completed.
    -- Stationary point found.
 Normal termination of Gaussian 09 at Thu Jan 24 15:39:06 2019.
