 Gaussian 09, Revision D.01,
 Gaussian 09:  ES64L-G09RevD.01 24-Apr-2013

 ---------------------------
 #p b3lyp/6-311++g(d,p) freq
 ---------------------------

 ---
 min
 ---
 Symbolic Z-matrix:
 Charge =  1 Multiplicity = 1

                         Standard orientation:
 ---------------------------------------------------------------------
 Center     Atomic      Atomic             Coordinates (Angstroms)
 Number     Number       Type             X           Y           Z
 ---------------------------------------------------------------------
      1          6           0        0.057826    0.874051   -0.000000
      2          1           0       -1.027297    1.097607    0.000000
      3          1           0        0.938438   -0.966808   -0.000000
      4          1           0       -0.720704   -1.142694    0.000000
      5          8           0        0.057826   -0.529052   -0.000000
 ---------------------------------------------------------------------

 SCF Done:  E(RB3LYP) =  -114.696332435     A.U. after   10 cycles

 The electronic state is 1-A'.
 Alpha  occ. eigenvalues --  -19.58254 -10.56054  -1.46764  -1.02958  -0.96552
 Alpha  occ. eigenvalues --   -0.77529  -0.76804  -0.53421
 Alpha virt. eigenvalues --   -0.36584  -0.27421  -0.19974  -0.15704  -0.11340
 Alpha virt. eigenvalues --   -0.10886  -0.08831  -0.06856  -0.05912  -0.04328
 Alpha virt. eigenvalues --   -0.03800  -0.02041  -0.00479   0.02142   0.04927

 Mulliken charges:
               1
     1  C    0.071137
     2  H    0.192546
     3  H    0.436659
     4  H    0.387742
     5  O   -0.088083
 Sum of Mulliken charges =   1.00000

 Dipole moment (field-independent basis, Debye):
    X=             -1.3334    Y=             -3.1047    Z=              0.0000  Tot=              3.3789
 Quadrupole moment (field-independent basis, Debye-Ang):
   XX=             -7.7391   YY=             -6.1913   ZZ=            -11.0779
   XY=             -2.5261   XZ=             -0.0000   YZ=              0.0000

  Exact polarizability:  15.386  -0.443  20.555  -0.000  -0.000  11.178
 Approx polarizability:  19.243  -0.613  27.323  -0.000  -0.000  16.113

                      1                      2                      3
                     A"                     A'                     A"
 Frequencies --    651.6223               897.3867               942.9097
 Red. masses --      1.2573                 7.9698                 1.0614
 Frc consts  --      0.3145                 3.7814                 0.5560
 IR Inten    --    348.2823                98.8632                53.6605

                      4                      5                      6
                     A'                     A'                     A'
 Frequencies --   1004.6521              1439.4503              1681.8106
 Red. masses --      1.0985                 1.2250                 1.0926
 Frc consts  --      0.6533                 1.4954                 1.8208
 IR Inten    --     39.7751                44.7050               102.7684

                      7                      8                      9
                     A'                     A'                     A'
 Frequencies --   3002.3692              3419.7108              3598.9848
 Red. masses --      1.0874                 1.0488                 1.0826
 Frc consts  --      5.7751                 7.2267                 8.2619
 IR Inten    --      4.2841               157.4886               445.9200

 - Thermochemistry -
 -------------------
 Temperature   298.150 Kelvin.  Pressure   1.00000 Atm.
 Atom     1 has atomic number  6 and mass  12.00000

 Molecular mass:    31.01839 amu.
 Principal axes and moments of inertia in atomic units:
                           1         2         3
     Eigenvalues --     8.78551  61.31968  70.10519
           X           -0.07702   0.99703   0.00000
           Y            0.99703   0.07702   0.00000
           Z           -0.00000   0.00000   1.00000
 This molecule is an asymmetric top.
 Rotational symmetry number  1.
 Rotational temperatures (Kelvin)      9.85872     1.41250     1.23548
 Rotational constants (GHZ):         205.42257    29.43168    25.74333
 Zero-point vibrational energy      99522.7 (Joules/Mol)
                                   23.78650 (Kcal/Mol)
 Vibrational temperatures:    937.54  1291.14  1356.64  1445.47  2071.05
          (Kelvin)           2419.75  4319.73  4920.20  5178.13

 Zero-point correction=                           0.037906 (Hartree/Particle)
 Thermal correction to Energy=                    0.041018
 Thermal correction to Enthalpy=                  0.041962
 Thermal correction to Gibbs Free Energy=         0.015714
 Sum of electronic and zero-point Energies=           -114.658426
 Sum of electronic and thermal Energies=              -114.655315
 Sum of electronic and thermal Enthalpies=            -114.654371
 Sum of electronic and thermal Free Energies=         -114.680619

                     E (Thermal)             CV                S
                      KCal/Mol        Cal/Mol-Kelvin    Cal/Mol-Kelvin
 Total                   25.739              8.338             55.244
 Electronic               0.000              0.000              0.000
 Translational            0.889              2.981             36.229
 Rotational               0.889              2.981             18.275
 Vibrational             23.962              2.376              0.740

 Optimization completed.
    -- Stationary point found.
 Normal termination of Gaussian 09 at Thu Jan 24 15:38:24 2019.
