 Gaussian 09, Revision D.01,
 Gaussian 09:  ES64L-G09RevD.01 24-Apr-2013

 ---------------------------
 #p b3lyp/6-311++g(d,p) freq
 ---------------------------

 ---
 min
 ---
 Symbolic Z-matrix:
 Charge =  0 Multiplicity = 2

                         Standard orientation:
 ---------------------------------------------------------------------
 Center     Atomic      Atomic             Coordinates (Angstroms)
 Number     Number       Type             X           Y           Z
 ---------------------------------------------------------------------
      1          6           0       -0.685140    0.027783   -0.058839
      2          1           0        1.103037    0.729710   -0.062873
      3          1           0       -1.119016    0.996914    0.156942
      4          1           0       -1.236011   -0.888642    0.089441
      5          8           0        0.670354   -0.125585    0.021191
 ---------------------------------------------------------------------

 SCF Done:  E(UB3LYP) =  -115.102534852     A.U. after   12 cycles

 The electronic state is 2-A.
 Alpha  occ. eigenvalues --  -19.16671 -10.22022  -1.07055  -0.68266  -0.54062
 Alpha  occ. eigenvalues --   -0.46228  -0.41066  -0.36705  -0.18484
 Alpha virt. eigenvalues --   -0.01603   0.01244   0.03428   0.06375   0.07565
 Alpha virt. eigenvalues --    0.09782   0.11592   0.14724   0.16006   0.18869
 Alpha virt. eigenvalues --    0.19874   0.21193   0.24782   0.26266   0.32989

  Beta  occ. eigenvalues --  -19.16123 -10.20708  -1.05825  -0.65747  -0.52970
  Beta  occ. eigenvalues --   -0.45325  -0.37326  -0.35485
  Beta virt. eigenvalues --   -0.04432  -0.01520   0.01398   0.03413   0.07441
  Beta virt. eigenvalues --    0.08030   0.09867   0.12084   0.15178   0.16552
  Beta virt. eigenvalues --    0.19167   0.20291   0.21533   0.25187   0.27055

 Mulliken charges and spin densities:
               1          2
     1  C   -0.287389   0.982779
     2  H    0.259036  -0.004997
     3  H    0.117244  -0.037716
     4  H    0.138450  -0.041613
     5  O   -0.227340   0.101548
 Sum of Mulliken charges =  -0.00000   1.00000

 Dipole moment (field-independent basis, Debye):
    X=             -0.0231    Y=              1.6056    Z=              0.2382  Tot=              1.6233
 Quadrupole moment (field-independent basis, Debye-Ang):
   XX=            -12.0024   YY=            -11.2195   ZZ=            -14.7478
   XY=              2.2864   XZ=             -0.6748   YZ=             -0.0116

  Exact polarizability:  21.668   0.424  17.356   0.149  -0.064  17.066
 Approx polarizability:  25.765   0.452  21.437   0.068  -0.148  18.968

                      1                      2                      3
                      A                      A                      A
 Frequencies --    402.7999               526.7404              1049.9328
 Red. masses --      1.1540                 1.1984                 1.0770
 Frc consts  --      0.1103                 0.1959                 0.6995
 IR Inten    --     34.6301               140.6826                48.5887

                      4                      5                      6
                      A                      A                      A
 Frequencies --   1198.5053              1350.1998              1479.8562
 Red. masses --      5.4676                 1.2805                 1.1469
 Frc consts  --      4.6273                 1.3754                 1.4799
 IR Inten    --    115.4254                26.1842                 8.0742

                      7                      8                      9
                      A                      A                      A
 Frequencies --   3127.6118              3274.4727              3844.6193
 Red. masses --      1.0464                 1.1239                 1.0667
 Frc consts  --      6.0307                 7.0999                 9.2893
 IR Inten    --     20.9752                10.7545                62.1128

 - Thermochemistry -
 -------------------
 Temperature   298.150 Kelvin.  Pressure   1.00000 Atm.
 Atom     1 has atomic number  6 and mass  12.00000

 Molecular mass:    31.01839 amu.
 Principal axes and moments of inertia in atomic units:
                           1         2         3
     Eigenvalues --     9.32378  60.43224  69.20876
           X            0.99840   0.05253  -0.02116
           Y           -0.05237   0.99860   0.00796
           Z            0.02155  -0.00684   0.99974
 This molecule is an asymmetric top.
 Rotational symmetry number  1.
 Rotational temperatures (Kelvin)      9.28956     1.43324     1.25149
 Rotational constants (GHZ):         193.56333    29.86388    26.07677
 Zero-point vibrational energy      97224.9 (Joules/Mol)
                                   23.23731 (Kcal/Mol)
 Warning -- explicit consideration of   2 degrees of freedom as
           vibrations may cause significant error
 Vibrational temperatures:    579.54   757.86  1510.62  1724.38  1942.63
          (Kelvin)           2129.18  4499.93  4711.23  5531.54

 Zero-point correction=                           0.037031 (Hartree/Particle)
 Thermal correction to Energy=                    0.040437
 Thermal correction to Enthalpy=                  0.041381
 Thermal correction to Gibbs Free Energy=         0.014008
 Sum of electronic and zero-point Energies=           -115.065504
 Sum of electronic and thermal Energies=              -115.062098
 Sum of electronic and thermal Enthalpies=            -115.061154
 Sum of electronic and thermal Free Energies=         -115.088527

                     E (Thermal)             CV                S
                      KCal/Mol        Cal/Mol-Kelvin    Cal/Mol-Kelvin
 Total                   25.375              9.354             57.613
 Electronic               0.000              0.000              1.377
 Translational            0.889              2.981             36.229
 Rotational               0.889              2.981             18.307
 Vibrational             23.597              3.392              1.700
 Vibration     1          0.768              1.464              0.952
 Vibration     2          0.882              1.191              0.595

 Normal termination of Gaussian 09 at Sun Mar  4 21:13:37 2018.
