 Gaussian 09, Revision D.01,
 Gaussian 09:  ES64L-G09RevD.01 24-Apr-2013

 ---------------------------
 #p b3lyp/6-311++g(d,p) freq
 ---------------------------

 ---
 min
 ---
 Symbolic Z-matrix:
 Charge =  1 Multiplicity = 2

                         Standard orientation:
 ---------------------------------------------------------------------
 Center     Atomic      Atomic             Coordinates (Angstroms)
 Number     Number       Type             X           Y           Z
 ---------------------------------------------------------------------
      1          1           0       -0.000000    0.000000    1.355571
      2          1           0        0.000000    0.414828   -0.767183
      3          1           0       -0.000000    0.000000    0.178795
      4          1           0       -0.000000   -0.414828   -0.767183
 ---------------------------------------------------------------------

 SCF Done:  E(UB3LYP) =  -1.86580769004     A.U. after    9 cycles

 The electronic state is 2-A1.
 Alpha  occ. eigenvalues --   -0.96675  -0.68064
 Alpha virt. eigenvalues --   -0.28869  -0.27425  -0.14559  -0.10967  -0.07198
 Alpha virt. eigenvalues --   -0.05308   0.09681   0.15593   0.21380   0.23012
 Alpha virt. eigenvalues --    0.49881   0.76583   0.82545   0.84532   1.10290

  Beta  occ. eigenvalues --   -0.93259
  Beta virt. eigenvalues --   -0.48755  -0.27790  -0.22052  -0.13010  -0.09437
  Beta virt. eigenvalues --   -0.06930  -0.04549   0.10427   0.19432   0.24011
  Beta virt. eigenvalues --    0.24413   0.51790   0.83524   0.89295   0.94891

 Mulliken charges and spin densities:
               1          2
     1  H    0.294513   0.675983
     2  H    0.266673   0.098598
     3  H    0.172142   0.126820
     4  H    0.266673   0.098598
 Sum of Mulliken charges =   1.00000   1.00000

 Dipole moment (field-independent basis, Debye):
    X=             -0.0000    Y=              0.0000    Z=              0.0173  Tot=              0.0173
 Quadrupole moment (field-independent basis, Debye-Ang):
   XX=             -2.5813   YY=             -1.5828   ZZ=              2.1599
   XY=              0.0000   XZ=             -0.0000   YZ=             -0.0000

  Exact polarizability:   1.762  -0.000   4.662  -0.000  -0.000  14.846
 Approx polarizability:   1.819   0.000   5.581  -0.000  -0.000  16.647

                      1                      2                      3
                     B2                     B1                     A1
 Frequencies --    683.2595               899.4500               938.8194
 Red. masses --      1.0078                 1.0078                 1.0078
 Frc consts  --      0.2772                 0.4804                 0.5234
 IR Inten    --      0.0020                 5.6720               206.4449

                      4                      5                      6
                     B2                     A1                     A1
 Frequencies --   1632.9013              1717.2243              3469.3264
 Red. masses --      1.0078                 1.0078                 1.0078
 Frc consts  --      1.5833                 1.7510                 7.1470
 IR Inten    --     80.8550               704.1368               267.6603

 - Thermochemistry -
 -------------------
 Temperature   298.150 Kelvin.  Pressure   1.00000 Atm.
 Atom     1 has atomic number  1 and mass   1.00783

 Molecular mass:     4.03130 amu.
 Principal axes and moments of inertia in atomic units:
                           1         2         3
     Eigenvalues --     1.23865  10.96503  12.20368
           X           -0.00000   0.00000   1.00000
           Y            0.00000   1.00000  -0.00000
           Z            1.00000  -0.00000   0.00000
 This molecule is an asymmetric top.
 Rotational symmetry number  2.
 Rotational temperatures (Kelvin)     69.92607     7.89909     7.09735
 Rotational constants (GHZ):        1457.02467   164.59062   147.88501
 Zero-point vibrational energy      55871.5 (Joules/Mol)
                                   13.35360 (Kcal/Mol)
 Vibrational temperatures:    983.06  1294.11  1350.75  2349.38  2470.70
          (Kelvin)           4991.58

 Zero-point correction=                           0.021280 (Hartree/Particle)
 Thermal correction to Energy=                    0.024338
 Thermal correction to Enthalpy=                  0.025282
 Thermal correction to Gibbs Free Energy=         0.004555
 Sum of electronic and zero-point Energies=             -1.844527
 Sum of electronic and thermal Energies=                -1.841470
 Sum of electronic and thermal Enthalpies=              -1.840526
 Sum of electronic and thermal Free Energies=           -1.861253

                     E (Thermal)             CV                S
                      KCal/Mol        Cal/Mol-Kelvin    Cal/Mol-Kelvin
 Total                   15.272              7.854             43.625
 Electronic               0.000              0.000              1.377
 Translational            0.889              2.981             30.146
 Rotational               0.889              2.981             11.503
 Vibrational             13.495              1.893              0.597

 Optimization completed.
    -- Stationary point found.
 Normal termination of Gaussian 09 at Thu Jan 24 15:35:07 2019.
