 Gaussian 09, Revision D.01,
 Gaussian 09:  ES64L-G09RevD.01 24-Apr-2013

 ---------------------------
 #p b3lyp/6-311++g(d,p) freq
 ---------------------------

 ---
 min
 ---
 Symbolic Z-matrix:
 Charge =  1 Multiplicity = 2

                         Standard orientation:
 ---------------------------------------------------------------------
 Center     Atomic      Atomic             Coordinates (Angstroms)
 Number     Number       Type             X           Y           Z
 ---------------------------------------------------------------------
      1          6           0        0.000000    0.000000    0.000000
      2          1           0       -0.000000    1.057520    0.375142
      3          1           0       -0.000000   -1.057520    0.375142
      4          1           0       -1.057520    0.000000   -0.375142
      5          1           0        1.057520   -0.000000   -0.375142
 ---------------------------------------------------------------------

 SCF Done:  E(UB3LYP) =  -40.0673620420     A.U. after    8 cycles

 The electronic state is 2-B2.
 Alpha  occ. eigenvalues --  -10.55289  -1.07198  -0.79216  -0.79216  -0.67428
 Alpha virt. eigenvalues --   -0.25549  -0.21992  -0.14686  -0.14686  -0.12023
 Alpha virt. eigenvalues --   -0.08691  -0.08691  -0.05874  -0.04158  -0.03711
 Alpha virt. eigenvalues --   -0.01678  -0.01678   0.14162   0.21960   0.21960

  Beta  occ. eigenvalues --  -10.54298  -1.02896  -0.76823  -0.76823
  Beta virt. eigenvalues --   -0.52799  -0.22965  -0.21005  -0.14320  -0.14320
  Beta virt. eigenvalues --   -0.11009  -0.07954  -0.07954  -0.04623  -0.03663
  Beta virt. eigenvalues --   -0.03064  -0.01201  -0.01201   0.15179   0.23308

 Mulliken charges and spin densities:
               1          2
     1  C   -0.257770   0.678982
     2  H    0.314442   0.080254
     3  H    0.314442   0.080254
     4  H    0.314442   0.080254
     5  H    0.314442   0.080254
 Sum of Mulliken charges =   1.00000   1.00000

 Dipole moment (field-independent basis, Debye):
    X=             -0.0000    Y=             -0.0000    Z=              0.0000  Tot=              0.0000
 Quadrupole moment (field-independent basis, Debye-Ang):
   XX=             -3.8428   YY=             -3.8428   ZZ=             -6.2038
   XY=             -0.0000   XZ=             -0.0000   YZ=             -0.0000

  Exact polarizability:  13.091   0.000  13.091  -0.000  -0.000   8.982
 Approx polarizability:  17.389  -0.000  17.389   0.000  -0.000  11.168

                      1                      2                      3
                      E                      E                     B2
 Frequencies --    408.1398               408.1398              1060.7766
 Red. masses --      1.1730                 1.1730                 1.2634
 Frc consts  --      0.1151                 0.1151                 0.8376
 IR Inten    --    362.0089               362.0089                84.5189

                      4                      5                      6
                     A1                     B1                     B2
 Frequencies --   1294.6598              1449.1365              2669.1496
 Red. masses --      1.0078                 1.0078                 1.0369
 Frc consts  --      0.9953                 1.2470                 4.3525
 IR Inten    --      0.0000                 0.0000                93.2714

                      7                      8                      9
                     A1                      E                      E
 Frequencies --   2799.1679              2866.5350              2866.5350
 Red. masses --      1.0078                 1.1070                 1.1070
 Frc consts  --      4.6526                 5.3591                 5.3591
 IR Inten    --      0.0000               333.0383               333.0383

 - Thermochemistry -
 -------------------
 Temperature   298.150 Kelvin.  Pressure   1.00000 Atm.
 Atom     1 has atomic number  6 and mass  12.00000

 Molecular mass:    16.03130 amu.
 Principal axes and moments of inertia in atomic units:
                           1         2         3
     Eigenvalues --    10.07587  10.07587  16.09978
           X           -0.22875   0.97349   0.00000
           Y            0.97349   0.22875   0.00000
           Z           -0.00000  -0.00000   1.00000
 This molecule is an oblate symmetric top.
 Rotational symmetry number  4.
 Rotational temperatures (Kelvin)      8.59617     8.59617     5.37981
 Rotational constants (GHZ):         179.11523   179.11523   112.09727
 Zero-point vibrational energy      94638.0 (Joules/Mol)
                                   22.61903 (Kcal/Mol)
 Warning -- explicit consideration of   2 degrees of freedom as
           vibrations may cause significant error
 Vibrational temperatures:    587.22   587.22  1526.22  1862.72  2084.98
          (Kelvin)           3840.31  4027.37  4124.30  4124.30

 Zero-point correction=                           0.036046 (Hartree/Particle)
 Thermal correction to Energy=                    0.039528
 Thermal correction to Enthalpy=                  0.040472
 Thermal correction to Gibbs Free Energy=         0.016706
 Sum of electronic and zero-point Energies=            -40.031316
 Sum of electronic and thermal Energies=               -40.027834
 Sum of electronic and thermal Enthalpies=             -40.026890
 Sum of electronic and thermal Free Energies=          -40.050656

                     E (Thermal)             CV                S
                      KCal/Mol        Cal/Mol-Kelvin    Cal/Mol-Kelvin
 Total                   24.804              9.424             50.021
 Electronic               0.000              0.000              1.377
 Translational            0.889              2.981             34.261
 Rotational               0.889              2.981             12.400
 Vibrational             23.027              3.463              1.982
 Vibration     1          0.773              1.453              0.933
 Vibration     2          0.773              1.453              0.933

 Optimization completed.
    -- Stationary point found.
 Normal termination of Gaussian 09 at Thu Jan 24 15:38:49 2019.
