 Gaussian 09, Revision D.01,
 Gaussian 09:  ES64L-G09RevD.01 24-Apr-2013

 ---------------------------
 #p b3lyp/6-311++g(d,p) freq
 ---------------------------

 ---
 min
 ---
 Symbolic Z-matrix:
 Charge =  0 Multiplicity = 1

                         Standard orientation:
 ---------------------------------------------------------------------
 Center     Atomic      Atomic             Coordinates (Angstroms)
 Number     Number       Type             X           Y           Z
 ---------------------------------------------------------------------
      1          6           0        0.000000    0.000000    0.000000
      2          1           0        0.629847    0.629847    0.629847
      3          1           0       -0.629847   -0.629847    0.629847
      4          1           0        0.629847   -0.629847   -0.629847
      5          1           0       -0.629847    0.629847   -0.629847
 ---------------------------------------------------------------------

 SCF Done:  E(RB3LYP) =  -40.5339627458     A.U. after    7 cycles

 The electronic state is 1-A1.
 Alpha  occ. eigenvalues --  -10.15312  -0.69659  -0.39537  -0.39537  -0.39537
 Alpha virt. eigenvalues --   -0.00553   0.04003   0.04003   0.04003   0.09024
 Alpha virt. eigenvalues --    0.09024   0.09024   0.12329   0.19126   0.19126
 Alpha virt. eigenvalues --    0.19126   0.27997   0.41160   0.41160   0.41160

 Mulliken charges:
               1
     1  C   -0.532251
     2  H    0.133063
     3  H    0.133063
     4  H    0.133063
     5  H    0.133063
 Sum of Mulliken charges =   0.00000

 Dipole moment (field-independent basis, Debye):
    X=             -0.0000    Y=              0.0000    Z=              0.0000  Tot=              0.0000
 Quadrupole moment (field-independent basis, Debye-Ang):
   XX=             -8.5020   YY=             -8.5020   ZZ=             -8.5020
   XY=              0.0000   XZ=              0.0000   YZ=              0.0000

  Exact polarizability:  14.595   0.000  14.595   0.000   0.000  14.595
 Approx polarizability:  17.616   0.000  17.616  -0.000   0.000  17.616

                      1                      2                      3
                     T2                     T2                     T2
 Frequencies --   1340.3192              1340.3192              1340.3192
 Red. masses --      1.1799                 1.1799                 1.1799
 Frc consts  --      1.2488                 1.2488                 1.2488
 IR Inten    --     18.1226                18.1226                18.1226

                      4                      5                      6
                      E                      E                     A1
 Frequencies --   1558.5156              1558.5156              3023.9032
 Red. masses --      1.0078                 1.0078                 1.0078
 Frc consts  --      1.4423                 1.4423                 5.4296
 IR Inten    --      0.0000                 0.0000                 0.0000

                      7                      8                      9
                     T2                     T2                     T2
 Frequencies --   3129.4881              3129.4881              3129.4881
 Red. masses --      1.1009                 1.1009                 1.1009
 Frc consts  --      6.3524                 6.3524                 6.3524
 IR Inten    --     25.9716                25.9716                25.9716

 - Thermochemistry -
 -------------------
 Temperature   298.150 Kelvin.  Pressure   1.00000 Atm.
 Atom     1 has atomic number  6 and mass  12.00000

 Molecular mass:    16.03130 amu.
 Principal axes and moments of inertia in atomic units:
                           1         2         3
     Eigenvalues --    11.42203  11.42203  11.42203
           X            0.98058   0.00000  -0.19612
           Y            0.19612   0.00000   0.98058
           Z            0.00000   1.00000  -0.00000
 This molecule is a spherical top.
 Rotational symmetry number 12.
 Rotational temperatures (Kelvin)      7.58305     7.58305     7.58305
 Rotational constants (GHZ):         158.00531   158.00531   158.00531
 Zero-point vibrational energy     116937.1 (Joules/Mol)
                                   27.94864 (Kcal/Mol)
 Vibrational temperatures:   1928.42  1928.42  1928.42  2242.35  2242.35
          (Kelvin)           4350.72  4502.63  4502.63  4502.63

 Zero-point correction=                           0.044539 (Hartree/Particle)
 Thermal correction to Energy=                    0.047408
 Thermal correction to Enthalpy=                  0.048352
 Thermal correction to Gibbs Free Energy=         0.027221
 Sum of electronic and zero-point Energies=            -40.489424
 Sum of electronic and thermal Energies=               -40.486555
 Sum of electronic and thermal Enthalpies=             -40.485611
 Sum of electronic and thermal Free Energies=          -40.506742

                     E (Thermal)             CV                S
                      KCal/Mol        Cal/Mol-Kelvin    Cal/Mol-Kelvin
 Total                   29.749              6.472             44.474
 Electronic               0.000              0.000              0.000
 Translational            0.889              2.981             34.261
 Rotational               0.889              2.981             10.125
 Vibrational             27.971              0.511              0.088

 Optimization completed.
    -- Stationary point found.

 1\1\ CITASK-GV1728\Freq\RB3LYP\6-311++G(d,p)\C1H4\EERD\04-Mar-2018\0\\
 #p b3lyp/6-311++g(d,p) freq\\min\\0,1\C,-0.1658374372,0.4805309378,0.0
 240813128\H,-0.5419904111,-0.4556777907,0.4389843742\H,0.2569264553,0.
 2962638851,-0.9645737018\H,0.6063202392,0.8847948888,0.6801800662\H,-0
 .9846060322,1.1967427681,-0.0582654873\\Version=ES64L-G09RevD.01\State
 =1-A1\HF=-40.5339627\RMSD=1.399e-09\RMSF=3.002e-06\ZeroPoint=0.044539\
 Thermal=0.0474077\Dipole=0.,0.,0.\DipoleDeriv=-0.016675,0.,0.,0.,-0.01
 6675,0.,0.,0.,-0.016675,0.0526817,-0.0669402,0.0296661,-0.0669402,-0.0

 Normal termination of Gaussian 09 at Sun Mar  4 21:13:07 2018.
