 Gaussian 09, Revision D.01,
 Gaussian 09:  ES64L-G09RevD.01 24-Apr-2013

 ---------------------------
 #p b3lyp/6-311++g(d,p) freq
 ---------------------------

 ---
 min
 ---
 Symbolic Z-matrix:
 Charge =  0 Multiplicity = 1

                         Standard orientation:
 ---------------------------------------------------------------------
 Center     Atomic      Atomic             Coordinates (Angstroms)
 Number     Number       Type             X           Y           Z
 ---------------------------------------------------------------------
      1          6           0       -0.000000    0.653386    0.000000
      2          6           0        1.085978   -0.370030   -0.000000
      3          1           0        1.724193   -0.191641    0.872518
      4          1           0        0.740900   -1.422737   -0.000000
      5          1           0        1.724193   -0.191641   -0.872518
      6          1           0       -1.192505   -0.867766   -0.000000
      7          8           0       -1.189081    0.121706    0.000000
 ---------------------------------------------------------------------

 SCF Done:  E(RB3LYP) =  -153.794947587     A.U. after   11 cycles

 The electronic state is 1-A'.
 Alpha  occ. eigenvalues --  -19.20716 -10.24503 -10.18792  -1.11450  -0.76382
 Alpha  occ. eigenvalues --   -0.65269  -0.51187  -0.46316  -0.45891  -0.40226
 Alpha  occ. eigenvalues --   -0.38356  -0.22450
 Alpha virt. eigenvalues --   -0.05093  -0.02211   0.00503   0.02797   0.03089
 Alpha virt. eigenvalues --    0.06875   0.07519   0.07669   0.07920   0.09802
 Alpha virt. eigenvalues --    0.10634   0.12530   0.13608   0.15725   0.16451

 Mulliken charges:
               1
     1  C   -0.246876
     2  C   -0.287501
     3  H    0.177267
     4  H    0.046781
     5  H    0.177267
     6  H    0.171657
     7  O   -0.038595
 Sum of Mulliken charges =  -0.00000

 Dipole moment (field-independent basis, Debye):
    X=              0.8795    Y=             -3.2044    Z=             -0.0000  Tot=              3.3229
 Quadrupole moment (field-independent basis, Debye-Ang):
   XX=            -18.7841   YY=            -22.3550   ZZ=            -18.7179
   XY=              1.6639   XZ=              0.0000   YZ=             -0.0000

  Exact polarizability:  38.510   2.584  40.510  -0.000   0.000  26.554
 Approx polarizability:  51.687   5.814  53.470  -0.000   0.000  36.902

                      1                      2                      3
                     A"                     A'                     A"
 Frequencies --    152.2618               533.8939               744.9274
 Red. masses --      1.2422                 2.2457                 1.0974
 Frc consts  --      0.0170                 0.3771                 0.3588
 IR Inten    --      9.8579                 7.5406                80.0007

                      4                      5                      6
                     A'                     A"                     A'
 Frequencies --    910.1160               978.2858              1058.3751
 Red. masses --      2.7550                 1.4893                 1.6231
 Frc consts  --      1.3445                 0.8398                 1.0712
 IR Inten    --      1.1583                22.5205                 4.6490

                      7                      8                      9
                     A'                     A'                     A'
 Frequencies --   1319.1913              1344.1017              1369.1911
 Red. masses --      3.4827                 1.6584                 1.2685
 Frc consts  --      3.5710                 1.7653                 1.4011
 IR Inten    --     79.8472               155.6541                30.6763

                     10                     11                     12
                     A"                     A'                     A'
 Frequencies --   1427.8313              1466.3293              2892.5362
 Red. masses --      1.0483                 1.1143                 1.0569
 Frc consts  --      1.2592                 1.4116                 5.2098
 IR Inten    --     11.0400                23.3096                89.0243

                     13                     14                     15
                     A'                     A"                     A'
 Frequencies --   3058.7443              3080.3245              3327.4964
 Red. masses --      1.0771                 1.0967                 1.0627
 Frc consts  --      5.9373                 6.1311                 6.9329
 IR Inten    --     11.0405                 0.2212               111.0987

 - Thermochemistry -
 -------------------
 Temperature   298.150 Kelvin.  Pressure   1.00000 Atm.
 Atom     1 has atomic number  6 and mass  12.00000

 Molecular mass:    44.02621 amu.
 Principal axes and moments of inertia in atomic units:
                           1         2         3
     Eigenvalues --    34.45021 170.28388 193.77456
           X            0.97869   0.20532   0.00000
           Y           -0.20532   0.97869  -0.00000
           Z           -0.00000   0.00000   1.00000
 This molecule is an asymmetric top.
 Rotational symmetry number  1.
 Rotational temperatures (Kelvin)      2.51417     0.50864     0.44698
 Rotational constants (GHZ):          52.38695    10.59843     9.31361
 Zero-point vibrational energy     141539.8 (Joules/Mol)
                                   33.82882 (Kcal/Mol)
 Warning -- explicit consideration of   2 degrees of freedom as
           vibrations may cause significant error
 Vibrational temperatures:    219.07   768.15  1071.78  1309.45  1407.53
          (Kelvin)           1522.76  1898.02  1933.86  1969.96  2054.33
                             2109.72  4161.71  4400.85  4431.89  4787.52

 Zero-point correction=                           0.053910 (Hartree/Particle)
 Thermal correction to Energy=                    0.057840
 Thermal correction to Enthalpy=                  0.058784
 Thermal correction to Gibbs Free Energy=         0.028937
 Sum of electronic and zero-point Energies=           -153.741038
 Sum of electronic and thermal Energies=              -153.737108
 Sum of electronic and thermal Enthalpies=            -153.736164
 Sum of electronic and thermal Free Energies=         -153.766010

                     E (Thermal)             CV                S
                      KCal/Mol        Cal/Mol-Kelvin    Cal/Mol-Kelvin
 Total                   36.295             11.553             62.818
 Electronic               0.000              0.000              0.000
 Translational            0.889              2.981             37.273
 Rotational               0.889              2.981             21.657
 Vibrational             34.517              5.592              3.887
 Vibration     1          0.619              1.900              2.644
 Vibration     2          0.889              1.175              0.579

 Optimization completed.
    -- Stationary point found.
 Normal termination of Gaussian 09 at Sun Mar  4 21:08:34 2018.
