 Gaussian 09, Revision D.01,
 Gaussian 09:  ES64L-G09RevD.01 24-Apr-2013

 ---------------------------
 #p b3lyp/6-311++g(d,p) freq
 ---------------------------

 ---
 min
 ---
 Symbolic Z-matrix:
 Charge =  0 Multiplicity = 1

                         Standard orientation:
 ---------------------------------------------------------------------
 Center     Atomic      Atomic             Coordinates (Angstroms)
 Number     Number       Type             X           Y           Z
 ---------------------------------------------------------------------
      1          6           0        0.000000   -0.000000   -0.664377
      2          6           0       -0.000000   -0.000000    0.664377
      3          1           0       -0.000000    0.922658    1.235409
      4          1           0       -0.000000   -0.922658   -1.235409
      5          1           0       -0.000000   -0.922658    1.235409
      6          1           0        0.000000    0.922658   -1.235409
 ---------------------------------------------------------------------

 SCF Done:  E(RB3LYP) =  -78.6155384900     A.U. after    8 cycles

 The electronic state is 1-AG.
 Alpha  occ. eigenvalues --  -10.17457 -10.17369  -0.76738  -0.58545  -0.47541
 Alpha  occ. eigenvalues --   -0.42856  -0.36124  -0.28152
 Alpha virt. eigenvalues --   -0.01081   0.00085   0.01909   0.02219   0.05380
 Alpha virt. eigenvalues --    0.06629   0.08053   0.11190   0.12397   0.12789
 Alpha virt. eigenvalues --    0.14267   0.15444   0.15706   0.16534   0.17286

 Mulliken charges:
               1
     1  C   -0.221654
     2  C   -0.221654
     3  H    0.110827
     4  H    0.110827
     5  H    0.110827
     6  H    0.110827
 Sum of Mulliken charges =   0.00000

 Dipole moment (field-independent basis, Debye):
    X=              0.0000    Y=              0.0000    Z=              0.0000  Tot=              0.0000
 Quadrupole moment (field-independent basis, Debye-Ang):
   XX=            -15.8955   YY=            -12.4460   ZZ=            -12.3930
   XY=              0.0000   XZ=              0.0000   YZ=              0.0000

  Exact polarizability:  18.993  -0.000  21.911  -0.000  -0.000  35.275
 Approx polarizability:  23.379   0.000  27.309  -0.000   0.000  52.313

                      1                      2                      3
                     B2U                    B3U                    B2G
 Frequencies --    834.9955               974.0969               976.6762
 Red. masses --      1.0428                 1.1607                 1.5191
 Frc consts  --      0.4284                 0.6489                 0.8537
 IR Inten    --      0.7038               112.3031                 0.0000

                      4                      5                      6
                     AU                     B3G                    AG
 Frequencies --   1057.9405              1237.9774              1377.6078
 Red. masses --      1.0078                 1.5264                 1.2235
 Frc consts  --      0.6646                 1.3783                 1.3681
 IR Inten    --      0.0000                 0.0000                 0.0000

                      7                      8                      9
                     B1U                    AG                     B1U
 Frequencies --   1471.8553              1684.1950              3121.8157
 Red. masses --      1.1120                 3.1392                 1.0477
 Frc consts  --      1.4193                 5.2463                 6.0160
 IR Inten    --     10.0957                 0.0000                17.0266

                     10                     11                     12
                     AG                     B3G                    B2U
 Frequencies --   3136.2753              3193.4096              3221.8255
 Red. masses --      1.0730                 1.1141                 1.1176
 Frc consts  --      6.2185                 6.6938                 6.8351
 IR Inten    --      0.0000                 0.0000                25.6747

 - Thermochemistry -
 -------------------
 Temperature   298.150 Kelvin.  Pressure   1.00000 Atm.
 Atom     1 has atomic number  6 and mass  12.00000

 Molecular mass:    28.03130 amu.
 Principal axes and moments of inertia in atomic units:
                           1         2         3
     Eigenvalues --    12.25531  59.80185  72.05717
           X           -0.00000   0.00000   1.00000
           Y            0.00000   1.00000  -0.00000
           Z            1.00000  -0.00000   0.00000
 This molecule is an asymmetric top.
 Rotational symmetry number  4.
 Rotational temperatures (Kelvin)      7.06745     1.44835     1.20202
 Rotational constants (GHZ):         147.26196    30.17868    25.04596
 Zero-point vibrational energy     133315.9 (Joules/Mol)
                                   31.86325 (Kcal/Mol)
 Vibrational temperatures:   1201.37  1401.51  1405.22  1522.14  1781.17
          (Kelvin)           1982.07  2117.67  2423.18  4491.59  4512.40
                             4594.60  4635.48

 Zero-point correction=                           0.050777 (Hartree/Particle)
 Thermal correction to Energy=                    0.053820
 Thermal correction to Enthalpy=                  0.054764
 Thermal correction to Gibbs Free Energy=         0.029907
 Sum of electronic and zero-point Energies=            -78.564761
 Sum of electronic and thermal Energies=               -78.561719
 Sum of electronic and thermal Enthalpies=             -78.560775
 Sum of electronic and thermal Free Energies=          -78.585631

                     E (Thermal)             CV                S
                      KCal/Mol        Cal/Mol-Kelvin    Cal/Mol-Kelvin
 Total                   33.772              8.102             52.315
 Electronic               0.000              0.000              0.000
 Translational            0.889              2.981             35.927
 Rotational               0.889              2.981             15.853
 Vibrational             31.995              2.140              0.535

 Optimization completed.
    -- Stationary point found.

 1\1\ CITASK-GV1323\Freq\RB3LYP\6-311++G(d,p)\C2H4\EERD\04-Mar-2018\0\\
 #p b3lyp/6-311++g(d,p) freq\\min\\0,1\C,0.57765386,-0.1349588401,0.223
 2804341\C,-0.6604317881,-0.3373248741,-0.2146436482\H,-1.2331503331,0.
 4508372771,-0.6923143556\H,1.150372405,-0.9231209912,0.7009511415\H,-1
 .1518485071,-1.2994207377,-0.1133689192\H,1.0690705789,0.8271370235,0.
 1220057051\\Version=ES64L-G09RevD.01\State=1-AG\HF=-78.6155385\RMSD=1.
 638e-09\RMSF=6.403e-05\ZeroPoint=0.0507773\Thermal=0.0538195\Dipole=0.
 ,0.,0.\DipoleDeriv=-0.0526159,0.0247063,0.0985934,0.0247063,0.0811345,

 Normal termination of Gaussian 09 at Sun Mar  4 21:07:02 2018.
