 Gaussian 09, Revision D.01,
 Gaussian 09:  ES64L-G09RevD.01 24-Apr-2013

 ---------------------------
 #p b3lyp/6-311++g(d,p) freq
 ---------------------------

 ---
 min
 ---
 Symbolic Z-matrix:
 Charge =  1 Multiplicity = 4

                         Standard orientation:
 ---------------------------------------------------------------------
 Center     Atomic      Atomic             Coordinates (Angstroms)
 Number     Number       Type             X           Y           Z
 ---------------------------------------------------------------------
      1          6           0        0.923505    0.143869    0.000197
      2          6           0       -0.690997   -0.026326    0.000092
      3          1           0       -1.058746   -0.452575    0.933808
      4          1           0       -1.060264   -0.452143   -0.933242
      5          1           0       -0.594520    1.112320   -0.000789
      6          1           0        1.318482   -0.912857   -0.001514
 ---------------------------------------------------------------------

 SCF Done:  E(UB3LYP) =  -78.0394330158     A.U. after   12 cycles

 The electronic state is 4-A.
 Alpha  occ. eigenvalues --  -10.55938 -10.53524  -1.09432  -0.91019  -0.77981
 Alpha  occ. eigenvalues --   -0.73961  -0.66401  -0.60719  -0.53203
 Alpha virt. eigenvalues --   -0.20977  -0.18003  -0.15005  -0.13284  -0.13248
 Alpha virt. eigenvalues --   -0.10640  -0.08648  -0.07846  -0.06437  -0.05525
 Alpha virt. eigenvalues --   -0.03628  -0.02687  -0.01200  -0.00631  -0.00529

  Beta  occ. eigenvalues --  -10.52645 -10.52150  -1.03170  -0.82623  -0.73900
  Beta  occ. eigenvalues --   -0.72110
  Beta virt. eigenvalues --   -0.51478  -0.39289  -0.32903  -0.19231  -0.15164
  Beta virt. eigenvalues --   -0.13770  -0.12898  -0.10952  -0.09069  -0.07101
  Beta virt. eigenvalues --   -0.06493  -0.04579  -0.04542  -0.02502  -0.01123

 Mulliken charges and spin densities:
               1          2
     1  C    0.182539   2.172063
     2  C   -0.291580   0.495911
     3  H    0.268492   0.020054
     4  H    0.268618   0.020063
     5  H    0.295865   0.138938
     6  H    0.276066   0.152971
 Sum of Mulliken charges =   1.00000   3.00000

 Dipole moment (field-independent basis, Debye):
    X=             -0.5160    Y=             -0.4442    Z=             -0.0017  Tot=              0.6809
 Quadrupole moment (field-independent basis, Debye-Ang):
   XX=             -6.7298   YY=             -8.8048   ZZ=            -11.1474
   XY=             -1.5557   XZ=             -0.0012   YZ=              0.0009

  Exact polarizability:  27.422  -2.057  18.550   0.000  -0.000  15.950
 Approx polarizability:  37.727  -3.845  25.288  -0.001   0.001  19.948

                      1                      2                      3
                      A                      A                      A
 Frequencies --    250.0496               585.6336               705.9723
 Red. masses --      1.1382                 1.6549                 2.0675
 Frc consts  --      0.0419                 0.3344                 0.6071
 IR Inten    --     42.7807                 2.0754                31.8396

                      4                      5                      6
                      A                      A                      A
 Frequencies --    713.6190              1008.6921              1135.1095
 Red. masses --      1.0291                 1.3044                 1.1175
 Frc consts  --      0.3088                 0.7819                 0.8484
 IR Inten    --     11.5569                 3.1413                11.1423

                      7                      8                      9
                      A                      A                      A
 Frequencies --   1147.7662              1429.7969              2629.2010
 Red. masses --      1.1716                 1.0641                 1.0685
 Frc consts  --      0.9094                 1.2817                 4.3520
 IR Inten    --     14.7893                 8.9720               459.8366

                     10                     11                     12
                      A                      A                      A
 Frequencies --   2743.9972              3091.5165              3193.3171
 Red. masses --      1.0852                 1.0603                 1.1196
 Frc consts  --      4.8142                 5.9708                 6.7268
 IR Inten    --    104.1497                29.7463                43.3150

 - Thermochemistry -
 -------------------
 Temperature   298.150 Kelvin.  Pressure   1.00000 Atm.
 Atom     1 has atomic number  6 and mass  12.00000

 Molecular mass:    28.03130 amu.
 Principal axes and moments of inertia in atomic units:
                           1         2         3
     Eigenvalues --    15.90010  78.79819  82.15257
           X            0.99879  -0.04915  -0.00003
           Y            0.04915   0.99879  -0.00009
           Z            0.00003   0.00009   1.00000
 This molecule is an asymmetric top.
 Rotational symmetry number  1.
 Rotational temperatures (Kelvin)      5.44738     1.09919     1.05430
 Rotational constants (GHZ):         113.50503    22.90333    21.96816
 Zero-point vibrational energy     111460.1 (Joules/Mol)
                                   26.63960 (Kcal/Mol)
 Warning -- explicit consideration of   2 degrees of freedom as
           vibrations may cause significant error
 Vibrational temperatures:    359.77   842.60  1015.74  1026.74  1451.28
          (Kelvin)           1633.17  1651.38  2057.16  3782.83  3947.99
                             4448.00  4594.47

 Zero-point correction=                           0.042453 (Hartree/Particle)
 Thermal correction to Energy=                    0.046242
 Thermal correction to Enthalpy=                  0.047186
 Thermal correction to Gibbs Free Energy=         0.018223
 Sum of electronic and zero-point Energies=            -77.996980
 Sum of electronic and thermal Energies=               -77.993191
 Sum of electronic and thermal Enthalpies=             -77.992247
 Sum of electronic and thermal Free Energies=          -78.021210

                     E (Thermal)             CV                S
                      KCal/Mol        Cal/Mol-Kelvin    Cal/Mol-Kelvin
 Total                   29.017             11.366             60.959
 Electronic               0.000              0.000              2.755
 Translational            0.889              2.981             35.927
 Rotational               0.889              2.981             19.271
 Vibrational             27.240              5.404              3.006
 Vibration     1          0.663              1.763              1.730
 Vibration     2          0.943              1.062              0.475

 Optimization completed.
    -- Stationary point found.
 Normal termination of Gaussian 09 at Thu Jan 24 15:44:43 2019.
