 Gaussian 09, Revision D.01,
 Gaussian 09:  ES64L-G09RevD.01 24-Apr-2013

 ---------------------------
 #p b3lyp/6-311++g(d,p) freq
 ---------------------------

 ---
 min
 ---
 Symbolic Z-matrix:
 Charge =  0 Multiplicity = 1

                         Standard orientation:
 ---------------------------------------------------------------------
 Center     Atomic      Atomic             Coordinates (Angstroms)
 Number     Number       Type             X           Y           Z
 ---------------------------------------------------------------------
      1          6           0       -0.000000    0.415207   -0.000000
      2          6           0        1.237217   -0.068541   -0.000000
      3          1           0        2.079015    0.609439   -0.000000
      4          1           0       -1.901656    0.136836    0.000000
      5          1           0        1.426894   -1.134796    0.000000
      6          1           0       -0.203307    1.482987   -0.000000
      7          8           0       -1.103031   -0.396808    0.000000
 ---------------------------------------------------------------------

 SCF Done:  E(RB3LYP) =  -153.863436756     A.U. after   11 cycles

 The electronic state is 1-A'.
 Alpha  occ. eigenvalues --  -19.15981 -10.23310 -10.15583  -1.06749  -0.76140
 Alpha  occ. eigenvalues --   -0.59622  -0.55564  -0.45162  -0.41148  -0.39801
 Alpha  occ. eigenvalues --   -0.36340  -0.24177
 Alpha virt. eigenvalues --   -0.01844   0.00994   0.01354   0.02251   0.04697
 Alpha virt. eigenvalues --    0.06457   0.07951   0.08568   0.10772   0.11577
 Alpha virt. eigenvalues --    0.12845   0.14323   0.15823   0.16902   0.18087

 Mulliken charges:
               1
     1  C   -0.104644
     2  C   -0.276903
     3  H    0.119730
     4  H    0.262120
     5  H    0.114793
     6  H    0.109767
     7  O   -0.224863
 Sum of Mulliken charges =  -0.00000

 Dipole moment (field-independent basis, Debye):
    X=             -0.9907    Y=              1.7034    Z=             -0.0000  Tot=              1.9706
 Quadrupole moment (field-independent basis, Debye-Ang):
   XX=            -14.7032   YY=            -18.1124   ZZ=            -21.3231
   XY=             -2.3778   XZ=             -0.0000   YZ=              0.0000

  Exact polarizability:  42.330  -3.210  27.208   0.002   0.001  22.130
 Approx polarizability:  61.201  -6.688  35.809  -0.000  -0.000  27.842

                      1                      2                      3
                     A"                     A'                     A"
 Frequencies --    229.1608               482.1652               712.3458
 Red. masses --      1.1023                 2.2372                 1.4204
 Frc consts  --      0.0341                 0.3064                 0.4246
 IR Inten    --    113.3753                 4.4845                25.0524

                      4                      5                      6
                     A"                     A'                     A"
 Frequencies --    856.6672               954.1763               971.8101
 Red. masses --      1.4077                 1.9461                 1.1304
 Frc consts  --      0.6087                 1.0439                 0.6290
 IR Inten    --     66.3281                57.1294                26.1048

                      7                      8                      9
                     A'                     A'                     A'
 Frequencies --   1133.8299              1279.8868              1347.2716
 Red. masses --      1.7959                 1.6132                 1.1672
 Frc consts  --      1.3603                 1.5569                 1.2483
 IR Inten    --     16.0473               230.3519                 0.8406

                     10                     11                     12
                     A'                     A'                     A'
 Frequencies --   1434.4609              1719.4868              3142.3387
 Red. masses --      1.1786                 4.1490                 1.0818
 Frc consts  --      1.4288                 7.2276                 6.2939
 IR Inten    --      0.3772               118.1385                17.3619

                     13                     14                     15
                     A'                     A'                     A'
 Frequencies --   3161.2413              3252.9534              3869.6398
 Red. masses --      1.0708                 1.1168                 1.0671
 Frc consts  --      6.3049                 6.9630                 9.4147
 IR Inten    --      0.9417                 5.1973                92.2138

 - Thermochemistry -
 -------------------
 Temperature   298.150 Kelvin.  Pressure   1.00000 Atm.
 Atom     1 has atomic number  6 and mass  12.00000

 Molecular mass:    44.02621 amu.
 Principal axes and moments of inertia in atomic units:
                           1         2         3
     Eigenvalues --    28.18363 173.24016 201.42379
           X            0.99219  -0.12476   0.00000
           Y            0.12476   0.99219   0.00000
           Z            0.00000  -0.00000   1.00000
 This molecule is an asymmetric top.
 Rotational symmetry number  1.
 Rotational temperatures (Kelvin)      3.07320     0.49996     0.43001
 Rotational constants (GHZ):          64.03509    10.41757     8.95992
 Zero-point vibrational energy     146826.3 (Joules/Mol)
                                   35.09232 (Kcal/Mol)
 Warning -- explicit consideration of   2 degrees of freedom as
           vibrations may cause significant error
 Vibrational temperatures:    329.71   693.73  1024.91  1232.55  1372.85
          (Kelvin)           1398.22  1631.33  1841.47  1938.42  2063.87
                             2473.95  4521.12  4548.32  4680.27  5567.54

 Zero-point correction=                           0.055923 (Hartree/Particle)
 Thermal correction to Energy=                    0.059818
 Thermal correction to Enthalpy=                  0.060762
 Thermal correction to Gibbs Free Energy=         0.031219
 Sum of electronic and zero-point Energies=           -153.807514
 Sum of electronic and thermal Energies=              -153.803619
 Sum of electronic and thermal Enthalpies=            -153.802675
 Sum of electronic and thermal Free Energies=         -153.832217

                     E (Thermal)             CV                S
                      KCal/Mol        Cal/Mol-Kelvin    Cal/Mol-Kelvin
 Total                   37.536             11.920             62.177
 Electronic               0.000              0.000              0.000
 Translational            0.889              2.981             37.273
 Rotational               0.889              2.981             21.513
 Vibrational             35.759              5.958              3.391
 Vibration     1          0.652              1.796              1.886
 Vibration     2          0.838              1.290              0.704

 Optimization completed.
    -- Stationary point found.
 Normal termination of Gaussian 09 at Sun Mar  4 21:08:32 2018.
