 Gaussian 09, Revision D.01,
 Gaussian 09:  ES64L-G09RevD.01 24-Apr-2013

 ---------------------------
 #p b3lyp/6-311++g(d,p) freq
 ---------------------------

 ---
 min
 ---
 Symbolic Z-matrix:
 Charge =  0 Multiplicity = 1

                         Standard orientation:
 ---------------------------------------------------------------------
 Center     Atomic      Atomic             Coordinates (Angstroms)
 Number     Number       Type             X           Y           Z
 ---------------------------------------------------------------------
      1          6           0        0.126339   -0.608854   -0.000039
      2          6           0       -1.166120    0.137334   -0.000123
      3          1           0       -1.740569   -0.200844    0.870621
      4          1           0        1.948390   -0.200798   -0.000377
      5          1           0       -1.743172   -0.203669   -0.867935
      6          1           0       -1.079937    1.231093   -0.001737
      7          8           0        1.106747    0.275417    0.000050
 ---------------------------------------------------------------------

 SCF Done:  E(RB3LYP) =  -153.800951840     A.U. after   11 cycles

 The electronic state is 1-A.
 Alpha  occ. eigenvalues --  -19.20201 -10.23950 -10.17033  -1.10940  -0.76250
 Alpha  occ. eigenvalues --   -0.62978  -0.49240  -0.44807  -0.44789  -0.39781
 Alpha  occ. eigenvalues --   -0.39247  -0.21999
 Alpha virt. eigenvalues --   -0.04890  -0.01254   0.00610   0.03363   0.03516
 Alpha virt. eigenvalues --    0.06713   0.07707   0.09137   0.09152   0.09644
 Alpha virt. eigenvalues --    0.11186   0.12838   0.15090   0.16438   0.17776

 Mulliken charges:
               1
     1  C   -0.246468
     2  C   -0.372943
     3  H    0.165650
     4  H    0.318503
     5  H    0.165537
     6  H    0.103121
     7  O   -0.133400
 Sum of Mulliken charges =  -0.00000

 Dipole moment (field-independent basis, Debye):
    X=              0.4781    Y=              0.9038    Z=              0.0000  Tot=              1.0225
 Quadrupole moment (field-independent basis, Debye-Ang):
   XX=            -13.3523   YY=            -23.8354   ZZ=            -18.9050
   XY=             -0.7921   XZ=             -0.0024   YZ=              0.0008

  Exact polarizability:  39.528  -0.803  33.113   0.003  -0.009  26.829
 Approx polarizability:  50.701   1.407  41.245  -0.006  -0.000  37.402

                      1                      2                      3
                      A                      A                      A
 Frequencies --    100.8792               510.1314               734.2850
 Red. masses --      1.2808                 2.5372                 1.0940
 Frc consts  --      0.0077                 0.3890                 0.3475
 IR Inten    --      8.2167                 8.6078                48.6455

                      4                      5                      6
                      A                      A                      A
 Frequencies --    917.2278               974.7973              1056.0753
 Red. masses --      2.3267                 1.3409                 1.6914
 Frc consts  --      1.1533                 0.7507                 1.1114
 IR Inten    --      5.2128                40.6222                80.5196

                      7                      8                      9
                      A                      A                      A
 Frequencies --   1283.2766              1335.5152              1371.4540
 Red. masses --      6.1617                 1.2538                 1.3578
 Frc consts  --      5.9785                 1.3175                 1.5047
 IR Inten    --    202.5375                32.4045                27.7180

                     10                     11                     12
                      A                      A                      A
 Frequencies --   1443.0716              1464.9202              2988.0060
 Red. masses --      1.0506                 1.1490                 1.0363
 Frc consts  --      1.2891                 1.4527                 5.4514
 IR Inten    --     17.9200                 2.4041                19.2114

                     13                     14                     15
                      A                      A                      A
 Frequencies --   3065.5071              3075.2317              3759.9855
 Red. masses --      1.0950                 1.1024                 1.0664
 Frc consts  --      6.0625                 6.1424                 8.8828
 IR Inten    --      1.1596                31.1739               107.5783

 - Thermochemistry -
 -------------------
 Temperature   298.150 Kelvin.  Pressure   1.00000 Atm.
 Atom     1 has atomic number  6 and mass  12.00000

 Molecular mass:    44.02621 amu.
 Principal axes and moments of inertia in atomic units:
                           1         2         3
     Eigenvalues --    32.23033 173.61423 194.96624
           X            0.99965  -0.02636  -0.00003
           Y            0.02636   0.99965  -0.00002
           Z            0.00003   0.00002   1.00000
 This molecule is an asymmetric top.
 Rotational symmetry number  1.
 Rotational temperatures (Kelvin)      2.68734     0.49889     0.44425
 Rotational constants (GHZ):          55.99512    10.39512     9.25669
 Zero-point vibrational energy     144032.6 (Joules/Mol)
                                   34.42461 (Kcal/Mol)
 Warning -- explicit consideration of   2 degrees of freedom as
           vibrations may cause significant error
 Vibrational temperatures:    145.14   733.96  1056.47  1319.68  1402.51
          (Kelvin)           1519.45  1846.35  1921.51  1973.21  2076.26
                             2107.69  4299.07  4410.58  4424.57  5409.77

 Zero-point correction=                           0.054859 (Hartree/Particle)
 Thermal correction to Energy=                    0.058904
 Thermal correction to Enthalpy=                  0.059848
 Thermal correction to Gibbs Free Energy=         0.029611
 Sum of electronic and zero-point Energies=           -153.746093
 Sum of electronic and thermal Energies=              -153.742048
 Sum of electronic and thermal Enthalpies=            -153.741104
 Sum of electronic and thermal Free Energies=         -153.771340

                     E (Thermal)             CV                S
                      KCal/Mol        Cal/Mol-Kelvin    Cal/Mol-Kelvin
 Total                   36.963             11.686             63.638
 Electronic               0.000              0.000              0.000
 Translational            0.889              2.981             37.273
 Rotational               0.889              2.981             21.617
 Vibrational             35.185              5.724              4.749
 Vibration     1          0.604              1.948              3.437
 Vibration     2          0.865              1.228              0.633

 Optimization completed.
    -- Stationary point found.
 Normal termination of Gaussian 09 at Sun Mar  4 21:08:58 2018.
