 Gaussian 09, Revision D.01,
 Gaussian 09:  ES64L-G09RevD.01 24-Apr-2013

 ---------------------------
 #p b3lyp/6-311++g(d,p) freq
 ---------------------------

 ---
 min
 ---
 Symbolic Z-matrix:
 Charge =  1 Multiplicity = 2

                         Standard orientation:
 ---------------------------------------------------------------------
 Center     Atomic      Atomic             Coordinates (Angstroms)
 Number     Number       Type             X           Y           Z
 ---------------------------------------------------------------------
      1          6           0        0.000000    0.000000    0.696197
      2          6           0        0.000000   -0.000000   -0.696197
      3          1           0       -0.228686    0.905421    1.260580
      4          1           0        0.228686   -0.905421    1.260580
      5          1           0       -0.228686   -0.905421   -1.260580
      6          1           0        0.228686    0.905421   -1.260580
 ---------------------------------------------------------------------

 SCF Done:  E(UB3LYP) =  -78.2353378124     A.U. after    9 cycles

 The electronic state is 2-B3.
 Alpha  occ. eigenvalues --  -10.52861 -10.52803  -1.09339  -0.89676  -0.77495
 Alpha  occ. eigenvalues --   -0.73629  -0.68286  -0.59475
 Alpha virt. eigenvalues --   -0.35163  -0.18086  -0.15342  -0.14984  -0.11497
 Alpha virt. eigenvalues --   -0.09045  -0.08299  -0.08074  -0.05688  -0.05147
 Alpha virt. eigenvalues --   -0.04825  -0.02300  -0.02102  -0.01275   0.00060

  Beta  occ. eigenvalues --  -10.52142 -10.52089  -1.06176  -0.87832  -0.76246
  Beta  occ. eigenvalues --   -0.72572  -0.67447
  Beta virt. eigenvalues --   -0.46667  -0.29553  -0.17818  -0.14813  -0.14762
  Beta virt. eigenvalues --   -0.11089  -0.09019  -0.07813  -0.07229  -0.05577
  Beta virt. eigenvalues --   -0.04580  -0.04378  -0.02079  -0.01317  -0.01224

 Mulliken charges and spin densities:
               1          2
     1  C    0.012626   0.515987
     2  C    0.012626   0.515987
     3  H    0.243687  -0.007993
     4  H    0.243687  -0.007993
     5  H    0.243687  -0.007993
     6  H    0.243687  -0.007993
 Sum of Mulliken charges =   1.00000   1.00000

 Dipole moment (field-independent basis, Debye):
    X=             -0.0000    Y=              0.0000    Z=              0.0000  Tot=              0.0000
 Quadrupole moment (field-independent basis, Debye-Ang):
   XX=            -11.4373   YY=             -8.4592   ZZ=             -5.3444
   XY=              0.0000   XZ=             -0.0000   YZ=              0.0000

  Exact polarizability:  11.573  -0.000  17.332  -0.000   0.000  27.852
 Approx polarizability:  15.435   0.000  21.922  -0.000  -0.000  37.459

                      1                      2                      3
                      A                     B2                     B3
 Frequencies --    603.5198               790.1176               889.8891
 Red. masses --      1.0523                 1.0543                 1.1660
 Frc consts  --      0.2258                 0.3878                 0.5440
 IR Inten    --      0.0000                 6.7607                46.8633

                      4                      5                      6
                     B2                     B3                      A
 Frequencies --   1074.6432              1201.4313              1271.3604
 Red. masses --      1.4836                 1.4679                 1.8889
 Frc consts  --      1.0095                 1.2483                 1.7989
 IR Inten    --      0.5154                13.1015                 0.0000

                      7                      8                      9
                     B1                      A                      A
 Frequencies --   1426.2126              1500.7953              3082.5618
 Red. masses --      1.1118                 1.5766                 1.0570
 Frc consts  --      1.3324                 2.0922                 5.9178
 IR Inten    --     56.8530                 0.0000                 0.0000

                     10                     11                     12
                     B1                     B3                     B2
 Frequencies --   3085.1832              3179.6619              3199.1673
 Red. masses --      1.0479                 1.1191                 1.1187
 Frc consts  --      5.8765                 6.6662                 6.7459
 IR Inten    --     84.6947                 3.0118                80.9317

 - Thermochemistry -
 -------------------
 Temperature   298.150 Kelvin.  Pressure   1.00000 Atm.
 Atom     1 has atomic number  6 and mass  12.00000

 Molecular mass:    28.03130 amu.
 Principal axes and moments of inertia in atomic units:
                           1         2         3
     Eigenvalues --    12.55456  65.16969  76.21850
           X           -0.00000  -0.00000   1.00000
           Y            0.00000   1.00000   0.00000
           Z            1.00000  -0.00000   0.00000
 This molecule is an asymmetric top.
 Rotational symmetry number  4.
 Rotational temperatures (Kelvin)      6.89899     1.32905     1.13639
 Rotational constants (GHZ):         143.75180    27.69295    23.67852
 Zero-point vibrational energy     127429.5 (Joules/Mol)
                                   30.45637 (Kcal/Mol)
 Warning -- explicit consideration of   1 degrees of freedom as
           vibrations may cause significant error
 Vibrational temperatures:    868.33  1136.80  1280.35  1546.17  1728.59
          (Kelvin)           1829.20  2052.00  2159.31  4435.11  4438.88
                             4574.82  4602.88

 Zero-point correction=                           0.048535 (Hartree/Particle)
 Thermal correction to Energy=                    0.051732
 Thermal correction to Enthalpy=                  0.052676
 Thermal correction to Gibbs Free Energy=         0.026878
 Sum of electronic and zero-point Energies=            -78.186802
 Sum of electronic and thermal Energies=               -78.183606
 Sum of electronic and thermal Enthalpies=             -78.182662
 Sum of electronic and thermal Free Energies=          -78.208460

                     E (Thermal)             CV                S
                      KCal/Mol        Cal/Mol-Kelvin    Cal/Mol-Kelvin
 Total                   32.462              9.008             54.296
 Electronic               0.000              0.000              1.377
 Translational            0.889              2.981             35.927
 Rotational               0.889              2.981             16.018
 Vibrational             30.685              3.046              0.973
 Vibration     1          0.962              1.024              0.444

 Optimization completed.
    -- Stationary point found.
 Normal termination of Gaussian 09 at Thu Jan 24 15:44:13 2019.
