 Gaussian 09, Revision D.01,
 Gaussian 09:  ES64L-G09RevD.01 24-Apr-2013

 ---------------------------
 #p b3lyp/6-311++g(d,p) freq
 ---------------------------

 ---
 min
 ---
 Symbolic Z-matrix:
 Charge =  0 Multiplicity = 3

                         Standard orientation:
 ---------------------------------------------------------------------
 Center     Atomic      Atomic             Coordinates (Angstroms)
 Number     Number       Type             X           Y           Z
 ---------------------------------------------------------------------
      1          6           0       -0.000000   -0.000000    0.723770
      2          6           0        0.000000    0.000000   -0.723770
      3          1           0        0.924859   -0.000000   -1.296674
      4          1           0        0.000000    0.924859    1.296674
      5          1           0       -0.924859   -0.000000   -1.296674
      6          1           0       -0.000000   -0.924859    1.296674
 ---------------------------------------------------------------------

 SCF Done:  E(UB3LYP) =  -78.5133339098     A.U. after   10 cycles

 The electronic state is 3-A1.
 Alpha  occ. eigenvalues --  -10.18875 -10.18839  -0.76657  -0.61143  -0.44289
 Alpha  occ. eigenvalues --   -0.44289  -0.42512  -0.21913  -0.21913
 Alpha virt. eigenvalues --   -0.00105   0.01588   0.02975   0.02975   0.08402
 Alpha virt. eigenvalues --    0.08996   0.09199   0.09199   0.13545   0.14660
 Alpha virt. eigenvalues --    0.15093   0.15093   0.15274   0.19182   0.21562

  Beta  occ. eigenvalues --  -10.17572 -10.17534  -0.72158  -0.57318  -0.41918
  Beta  occ. eigenvalues --   -0.41918  -0.40669
  Beta virt. eigenvalues --   -0.07206  -0.07206   0.00077   0.01895   0.03117
  Beta virt. eigenvalues --    0.03117   0.08356   0.09187   0.10589   0.10589
  Beta virt. eigenvalues --    0.14071   0.15240   0.15240   0.15470   0.16631

 Mulliken charges and spin densities:
               1          2
     1  C   -0.261181   0.999793
     2  C   -0.261181   0.999793
     3  H    0.130590   0.000103
     4  H    0.130590   0.000103
     5  H    0.130590   0.000103
     6  H    0.130590   0.000103
 Sum of Mulliken charges =  -0.00000   2.00000

 Dipole moment (field-independent basis, Debye):
    X=              0.0000    Y=              0.0000    Z=             -0.0000  Tot=              0.0000
 Quadrupole moment (field-independent basis, Debye-Ang):
   XX=            -14.3087   YY=            -14.3087   ZZ=            -13.2880
   XY=              0.0000   XZ=              0.0000   YZ=             -0.0000

  Exact polarizability:  21.839  -0.000  21.839   0.000   0.000  32.258
 Approx polarizability:  26.517   0.000  26.517  -0.000   0.000  38.300

                      1                      2                      3
                      E                      E                     B1
 Frequencies --    434.1102               434.1102               708.9237
 Red. masses --      1.2126                 1.2126                 1.0078
 Frc consts  --      0.1346                 0.1346                 0.2984
 IR Inten    --     69.1170                69.1170                 0.0000

                      4                      5                      6
                      E                      E                     A1
 Frequencies --    923.5187               923.5187              1132.2893
 Red. masses --      1.3200                 1.3200                 3.5360
 Frc consts  --      0.6633                 0.6633                 2.6710
 IR Inten    --      0.5601                 0.5601                 0.0000

                      7                      8                      9
                     B2                     A1                     A1
 Frequencies --   1420.8674              1440.0961              3080.1804
 Red. masses --      1.1129                 1.2014                 1.0497
 Frc consts  --      1.3238                 1.4680                 5.8677
 IR Inten    --      1.1894                 0.0000                 0.0000

                     10                     11                     12
                     B2                      E                      E
 Frequencies --   3085.8243              3161.5400              3161.5400
 Red. masses --      1.0469                 1.1147                 1.1147
 Frc consts  --      5.8733                 6.5646                 6.5646
 IR Inten    --     22.6535                 8.2488                 8.2488

 - Thermochemistry -
 -------------------
 Temperature   298.150 Kelvin.  Pressure   1.00000 Atm.
 Atom     1 has atomic number  6 and mass  12.00000

 Molecular mass:    28.03130 amu.
 Principal axes and moments of inertia in atomic units:
                           1         2         3
     Eigenvalues --    12.31386  75.25819  75.25819
           X           -0.00000   0.89082  -0.45437
           Y           -0.00000   0.45437   0.89082
           Z            1.00000   0.00000  -0.00000
 This molecule is a prolate symmetric top.
 Rotational symmetry number  4.
 Rotational temperatures (Kelvin)      7.03385     1.15089     1.15089
 Rotational constants (GHZ):         146.56180    23.98066    23.98066
 Zero-point vibrational energy     119067.4 (Joules/Mol)
                                   28.45780 (Kcal/Mol)
 Warning -- explicit consideration of   2 degrees of freedom as
           vibrations may cause significant error
 Vibrational temperatures:    624.59   624.59  1019.98  1328.74  1328.74
          (Kelvin)           1629.11  2044.31  2071.97  4431.69  4439.81
                             4548.75  4548.75

 Zero-point correction=                           0.045350 (Hartree/Particle)
 Thermal correction to Energy=                    0.048981
 Thermal correction to Enthalpy=                  0.049925
 Thermal correction to Gibbs Free Energy=         0.023049
 Sum of electronic and zero-point Energies=            -78.467984
 Sum of electronic and thermal Energies=               -78.464353
 Sum of electronic and thermal Enthalpies=             -78.463409
 Sum of electronic and thermal Free Energies=          -78.490285

                     E (Thermal)             CV                S
                      KCal/Mol        Cal/Mol-Kelvin    Cal/Mol-Kelvin
 Total                   30.736             10.948             56.566
 Electronic               0.000              0.000              2.183
 Translational            0.889              2.981             35.927
 Rotational               0.889              2.981             16.129
 Vibrational             28.959              4.986              2.327
 Vibration     1          0.795              1.396              0.845
 Vibration     2          0.795              1.396              0.845

 Optimization completed.
    -- Stationary point found.
 Normal termination of Gaussian 09 at Sun Mar  4 21:07:11 2018.
