 Gaussian 09, Revision D.01,
 Gaussian 09:  ES64L-G09RevD.01 24-Apr-2013

 ---------------------------
 #p b3lyp/6-311++g(d,p) freq
 ---------------------------

 ---
 min
 ---
 Symbolic Z-matrix:
 Charge =  0 Multiplicity = 1

                         Standard orientation:
 ---------------------------------------------------------------------
 Center     Atomic      Atomic             Coordinates (Angstroms)
 Number     Number       Type             X           Y           Z
 ---------------------------------------------------------------------
      1          6           0       -0.000000    0.442037    0.000000
      2          6           0        1.214553   -0.103714    0.000000
      3          1           0        2.090598    0.529719    0.000000
      4          1           0       -1.039235   -1.168134   -0.000000
      5          1           0       -0.160514    1.513797   -0.000000
      6          1           0        1.368455   -1.178073    0.000000
      7          8           0       -1.193328   -0.215906   -0.000000
 ---------------------------------------------------------------------

 SCF Done:  E(RB3LYP) =  -153.865659867     A.U. after   10 cycles

 The electronic state is 1-A'.
 Alpha  occ. eigenvalues --  -19.16281 -10.23664 -10.16250  -1.07151  -0.76022
 Alpha  occ. eigenvalues --   -0.63138  -0.50683  -0.49090  -0.40196  -0.39468
 Alpha  occ. eigenvalues --   -0.37980  -0.24663
 Alpha virt. eigenvalues --   -0.01111   0.00767   0.00988   0.02097   0.04648
 Alpha virt. eigenvalues --    0.06509   0.07426   0.09267   0.11214   0.11714
 Alpha virt. eigenvalues --    0.12311   0.14079   0.15003   0.15755   0.17774

 Mulliken charges:
               1
     1  C   -0.145679
     2  C   -0.234891
     3  H    0.114135
     4  H    0.240599
     5  H    0.153541
     6  H    0.089957
     7  O   -0.217661
 Sum of Mulliken charges =  -0.00000

 Dipole moment (field-independent basis, Debye):
    X=              0.6700    Y=             -0.8506    Z=              0.0000  Tot=              1.0828
 Quadrupole moment (field-independent basis, Debye-Ang):
   XX=            -20.6908   YY=            -14.5256   ZZ=            -21.3050
   XY=              1.3082   XZ=             -0.0000   YZ=             -0.0000

  Exact polarizability:  40.051  -2.562  28.619  -0.001   0.001  22.021
 Approx polarizability:  58.808  -6.786  38.356   0.000   0.000  27.595

                      1                      2                      3
                     A"                     A'                     A"
 Frequencies --    453.5164               490.1058               708.4770
 Red. masses --      1.1256                 2.0563                 1.5029
 Frc consts  --      0.1364                 0.2910                 0.4445
 IR Inten    --    107.7128                12.8367                 1.6669

                      4                      5                      6
                     A"                     A'                     A"
 Frequencies --    825.0967               956.9648               990.9431
 Red. masses --      1.3725                 1.7398                 1.1429
 Frc consts  --      0.5505                 0.9387                 0.6612
 IR Inten    --     72.3012                15.2650                40.5473

                      7                      8                      9
                     A'                     A'                     A'
 Frequencies --   1118.3286              1314.7477              1349.0658
 Red. masses --      2.0809                 1.5462                 1.2254
 Frc consts  --      1.5333                 1.5747                 1.3140
 IR Inten    --    198.6809                 1.2502                12.7571

                     10                     11                     12
                     A'                     A'                     A'
 Frequencies --   1444.6810              1691.9730              3140.1291
 Red. masses --      1.1611                 4.2618                 1.0626
 Frc consts  --      1.4277                 7.1883                 6.1733
 IR Inten    --     14.1495               182.4092                 6.0279

                     13                     14                     15
                     A'                     A'                     A'
 Frequencies --   3191.6314              3239.2610              3808.4600
 Red. masses --      1.0935                 1.1130                 1.0655
 Frc consts  --      6.5630                 6.8806                 9.1055
 IR Inten    --      4.8658                 8.3600                36.9321

 - Thermochemistry -
 -------------------
 Temperature   298.150 Kelvin.  Pressure   1.00000 Atm.
 Atom     1 has atomic number  6 and mass  12.00000

 Molecular mass:    44.02621 amu.
 Principal axes and moments of inertia in atomic units:
                           1         2         3
     Eigenvalues --    29.78533 171.46410 201.24943
           X            0.99693  -0.07824  -0.00000
           Y            0.07824   0.99693  -0.00000
           Z            0.00000  -0.00000   1.00000
 This molecule is an asymmetric top.
 Rotational symmetry number  1.
 Rotational temperatures (Kelvin)      2.90794     0.50514     0.43038
 Rotational constants (GHZ):          60.59161    10.52548     8.96768
 Zero-point vibrational energy     147878.7 (Joules/Mol)
                                   35.34385 (Kcal/Mol)
 Warning -- explicit consideration of   2 degrees of freedom as
           vibrations may cause significant error
 Vibrational temperatures:    652.51   705.15  1019.34  1187.13  1376.86
          (Kelvin)           1425.74  1609.02  1891.63  1941.00  2078.57
                             2434.37  4517.94  4592.04  4660.57  5479.52

 Zero-point correction=                           0.056324 (Hartree/Particle)
 Thermal correction to Energy=                    0.059963
 Thermal correction to Enthalpy=                  0.060907
 Thermal correction to Gibbs Free Energy=         0.031868
 Sum of electronic and zero-point Energies=           -153.809336
 Sum of electronic and thermal Energies=              -153.805697
 Sum of electronic and thermal Enthalpies=            -153.804753
 Sum of electronic and thermal Free Energies=         -153.833792

                     E (Thermal)             CV                S
                      KCal/Mol        Cal/Mol-Kelvin    Cal/Mol-Kelvin
 Total                   37.627             11.484             61.117
 Electronic               0.000              0.000              0.000
 Translational            0.889              2.981             37.273
 Rotational               0.889              2.981             21.557
 Vibrational             35.850              5.523              2.287
 Vibration     1          0.812              1.353              0.785
 Vibration     2          0.846              1.272              0.683

 Optimization completed.
    -- Stationary point found.
 Normal termination of Gaussian 09 at Sun Mar  4 21:08:40 2018.
