 Gaussian 09, Revision D.01,
 Gaussian 09:  ES64L-G09RevD.01 24-Apr-2013

 ---------------------------
 #p b3lyp/6-311++g(d,p) freq
 ---------------------------

 ---
 min
 ---
 Symbolic Z-matrix:
 Charge =  1 Multiplicity = 2

                         Standard orientation:
 ---------------------------------------------------------------------
 Center     Atomic      Atomic             Coordinates (Angstroms)
 Number     Number       Type             X           Y           Z
 ---------------------------------------------------------------------
      1          6           0       -0.024300    1.070830   -0.000000
      2          6           0       -0.024300   -0.644004    0.000000
      3          1           0        0.290262   -0.065152    0.955594
      4          1           0        0.290262   -0.065152   -0.955594
      5          1           0       -1.052068   -1.008791    0.000000
      6          1           0        0.763142   -1.421860    0.000000
 ---------------------------------------------------------------------

 SCF Done:  E(UB3LYP) =  -78.0570608540     A.U. after   12 cycles

 The electronic state is 2-A'.
 Alpha  occ. eigenvalues --  -10.60929 -10.53212  -1.12669  -0.87198  -0.78231
 Alpha  occ. eigenvalues --   -0.75401  -0.65292  -0.54185
 Alpha virt. eigenvalues --   -0.40539  -0.29231  -0.20635  -0.14461  -0.13469
 Alpha virt. eigenvalues --   -0.13386  -0.11069  -0.10765  -0.08645  -0.07055
 Alpha virt. eigenvalues --   -0.04974  -0.03764  -0.02080  -0.01331  -0.01166

  Beta  occ. eigenvalues --  -10.59346 -10.53240  -1.11379  -0.84657  -0.78116
  Beta  occ. eigenvalues --   -0.74305  -0.62738
  Beta virt. eigenvalues --   -0.39048  -0.36776  -0.27548  -0.20390  -0.14300
  Beta virt. eigenvalues --   -0.13345  -0.13332  -0.10871  -0.10447  -0.08230
  Beta virt. eigenvalues --   -0.05676  -0.04929  -0.03588  -0.01783  -0.01092

 Mulliken charges and spin densities:
               1          2
     1  C    0.302452   0.945780
     2  C   -0.405168   0.008678
     3  H    0.259303  -0.008389
     4  H    0.259303  -0.008389
     5  H    0.290595   0.038670
     6  H    0.293514   0.023651
 Sum of Mulliken charges =   1.00000   1.00000

 Dipole moment (field-independent basis, Debye):
    X=              0.4196    Y=             -1.6583    Z=             -0.0000  Tot=              1.7105
 Quadrupole moment (field-independent basis, Debye-Ang):
   XX=            -11.0959   YY=             -9.3234   ZZ=             -9.2484
   XY=             -0.2182   XZ=             -0.0000   YZ=              0.0000

  Exact polarizability:  17.865  -0.856  30.210   0.000  -0.000  17.300
 Approx polarizability:  22.490  -2.404  48.354   0.000  -0.000  27.860

                      1                      2                      3
                     A'                     A'                     A"
 Frequencies --    327.7286               516.7191               621.6118
 Red. masses --      1.6521                 1.9510                 1.1707
 Frc consts  --      0.1045                 0.3069                 0.2665
 IR Inten    --     69.3086               137.8637                22.3639

                      4                      5                      6
                     A'                     A'                     A"
 Frequencies --    934.9396              1118.6105              1209.9782
 Red. masses --      1.1430                 1.2457                 1.0949
 Frc consts  --      0.5886                 0.9183                 0.9444
 IR Inten    --     19.0418                17.3757                14.5217

                      7                      8                      9
                     A'                     A"                     A'
 Frequencies --   1400.1632              1491.4056              2515.9739
 Red. masses --      1.0562                 1.0500                 1.0371
 Frc consts  --      1.2200                 1.3760                 3.8680
 IR Inten    --     22.2686                39.6118                58.8519

                     10                     11                     12
                     A"                     A'                     A'
 Frequencies --   2591.4606              2954.9938              3146.8312
 Red. masses --      1.0996                 1.0589                 1.1045
 Frc consts  --      4.3507                 5.4479                 6.4439
 IR Inten    --    214.9682                63.5724                45.0702

 - Thermochemistry -
 -------------------
 Temperature   298.150 Kelvin.  Pressure   1.00000 Atm.
 Atom     1 has atomic number  6 and mass  12.00000

 Molecular mass:    28.03130 amu.
 Principal axes and moments of inertia in atomic units:
                           1         2         3
     Eigenvalues --    13.29424  83.63536  83.78371
           X           -0.00814   0.99997   0.00000
           Y            0.99997   0.00814   0.00000
           Z           -0.00000  -0.00000   1.00000
 This molecule is an asymmetric top.
 Rotational symmetry number  1.
 Rotational temperatures (Kelvin)      6.51514     1.03561     1.03378
 Rotational constants (GHZ):         135.75361    21.57869    21.54048
 Zero-point vibrational energy     112630.9 (Joules/Mol)
                                   26.91943 (Kcal/Mol)
 Warning -- explicit consideration of   2 degrees of freedom as
           vibrations may cause significant error
 Vibrational temperatures:    471.53   743.44   894.36  1345.17  1609.43
          (Kelvin)           1740.89  2014.52  2145.80  3619.92  3728.53
                             4251.57  4527.58

 Zero-point correction=                           0.042899 (Hartree/Particle)
 Thermal correction to Energy=                    0.046578
 Thermal correction to Enthalpy=                  0.047522
 Thermal correction to Gibbs Free Energy=         0.019476
 Sum of electronic and zero-point Energies=            -78.014162
 Sum of electronic and thermal Energies=               -78.010483
 Sum of electronic and thermal Enthalpies=             -78.009539
 Sum of electronic and thermal Free Energies=          -78.037585

                     E (Thermal)             CV                S
                      KCal/Mol        Cal/Mol-Kelvin    Cal/Mol-Kelvin
 Total                   29.228             10.884             59.028
 Electronic               0.000              0.000              1.377
 Translational            0.889              2.981             35.927
 Rotational               0.889              2.981             19.172
 Vibrational             27.450              4.922              2.552
 Vibration     1          0.711              1.620              1.271
 Vibration     2          0.872              1.213              0.618

 Optimization completed.
    -- Stationary point found.
 Normal termination of Gaussian 09 at Thu Jan 24 15:44:28 2019.
