 Gaussian 09, Revision D.01,
 Gaussian 09:  ES64L-G09RevD.01 24-Apr-2013

 ---------------------------
 #p b3lyp/6-311++g(d,p) freq
 ---------------------------

 ---
 min
 ---
 Symbolic Z-matrix:
 Charge =  0 Multiplicity = 3

                         Standard orientation:
 ---------------------------------------------------------------------
 Center     Atomic      Atomic             Coordinates (Angstroms)
 Number     Number       Type             X           Y           Z
 ---------------------------------------------------------------------
      1          6           0        0.046867    0.852209    0.000000
      2          6           0        0.046867   -0.611855   -0.000000
      3          1           0       -0.456448   -1.027097    0.887201
      4          1           0        1.069975   -1.004469   -0.000000
      5          1           0       -0.456448   -1.027097   -0.887201
      6          1           0       -0.719488    1.616539    0.000000
 ---------------------------------------------------------------------

 SCF Done:  E(UB3LYP) =  -78.5023416802     A.U. after   12 cycles

 The electronic state is 3-A".
 Alpha  occ. eigenvalues --  -10.20098 -10.18334  -0.77046  -0.60378  -0.44631
 Alpha  occ. eigenvalues --   -0.43228  -0.41327  -0.24938  -0.21272
 Alpha virt. eigenvalues --   -0.00484   0.01637   0.03176   0.03524   0.07657
 Alpha virt. eigenvalues --    0.08660   0.09584   0.09610   0.10618   0.12413
 Alpha virt. eigenvalues --    0.13560   0.15088   0.16575   0.17813   0.19214

  Beta  occ. eigenvalues --  -10.18393 -10.17281  -0.74497  -0.55292  -0.42631
  Beta  occ. eigenvalues --   -0.41517  -0.39895
  Beta virt. eigenvalues --   -0.07527  -0.04698  -0.00329   0.01885   0.03271
  Beta virt. eigenvalues --    0.03656   0.07748   0.09496   0.10223   0.10380
  Beta virt. eigenvalues --    0.11744   0.12599   0.14161   0.15811   0.17570

 Mulliken charges and spin densities:
               1          2
     1  C   -0.080599   1.959899
     2  C   -0.488633  -0.101361
     3  H    0.141490   0.070830
     4  H    0.157472   0.029621
     5  H    0.141490   0.070830
     6  H    0.128779  -0.029819
 Sum of Mulliken charges =   0.00000   2.00000

 Dipole moment (field-independent basis, Debye):
    X=             -0.6132    Y=             -0.7931    Z=             -0.0000  Tot=              1.0025
 Quadrupole moment (field-independent basis, Debye-Ang):
   XX=            -13.8160   YY=            -13.9667   ZZ=            -14.6755
   XY=             -1.3108   XZ=              0.0000   YZ=              0.0000

  Exact polarizability:  21.818  -0.715  29.856  -0.000  -0.000  22.155
 Approx polarizability:  27.180  -0.923  34.759  -0.000   0.000  27.287

                      1                      2                      3
                     A"                     A'                     A"
 Frequencies --    187.2690               755.6561               992.4291
 Red. masses --      1.1170                 1.0627                 1.3182
 Frc consts  --      0.0231                 0.3575                 0.7649
 IR Inten    --     38.0004                12.8163                 1.6845

                      4                      5                      6
                     A'                     A'                     A'
 Frequencies --   1066.3827              1100.0697              1387.6420
 Red. masses --      1.4977                 4.3690                 1.2124
 Frc consts  --      1.0035                 3.1151                 1.3755
 IR Inten    --      2.2998                 0.0611                 2.3758

                      7                      8                      9
                     A"                     A'                     A'
 Frequencies --   1451.6052              1451.7801              2943.6207
 Red. masses --      1.0449                 1.0410                 1.0391
 Frc consts  --      1.2973                 1.2927                 5.3051
 IR Inten    --      7.8756                 6.9934                25.7274

                     10                     11                     12
                     A"                     A'                     A'
 Frequencies --   2978.8613              3044.7614              3209.5028
 Red. masses --      1.0982                 1.0895                 1.0911
 Frc consts  --      5.7417                 5.9509                 6.6221
 IR Inten    --     21.9954                12.3460                 5.2948

 - Thermochemistry -
 -------------------
 Temperature   298.150 Kelvin.  Pressure   1.00000 Atm.
 Atom     1 has atomic number  6 and mass  12.00000

 Molecular mass:    28.03130 amu.
 Principal axes and moments of inertia in atomic units:
                           1         2         3
     Eigenvalues --    12.99051  73.50632  75.16535
           X           -0.07121   0.99746   0.00000
           Y            0.99746   0.07121   0.00000
           Z           -0.00000  -0.00000   1.00000
 This molecule is an asymmetric top.
 Rotational symmetry number  1.
 Rotational temperatures (Kelvin)      6.66747     1.17832     1.15231
 Rotational constants (GHZ):         138.92770    24.55219    24.01028
 Zero-point vibrational energy     123033.4 (Joules/Mol)
                                   29.40569 (Kcal/Mol)
 Warning -- explicit consideration of   1 degrees of freedom as
           vibrations may cause significant error
 Vibrational temperatures:    269.44  1087.22  1427.88  1534.28  1582.75
          (Kelvin)           1996.50  2088.53  2088.79  4235.21  4285.91
                             4380.73  4617.75

 Zero-point correction=                           0.046861 (Hartree/Particle)
 Thermal correction to Energy=                    0.050478
 Thermal correction to Enthalpy=                  0.051422
 Thermal correction to Gibbs Free Energy=         0.023008
 Sum of electronic and zero-point Energies=            -78.455481
 Sum of electronic and thermal Energies=               -78.451864
 Sum of electronic and thermal Enthalpies=             -78.450920
 Sum of electronic and thermal Free Energies=          -78.479334

                     E (Thermal)             CV                S
                      KCal/Mol        Cal/Mol-Kelvin    Cal/Mol-Kelvin
 Total                   31.675              9.809             59.802
 Electronic               0.000              0.000              2.183
 Translational            0.889              2.981             35.927
 Rotational               0.889              2.981             18.913
 Vibrational             29.898              3.848              2.779
 Vibration     1          0.632              1.857              2.255

 Optimization completed.
    -- Stationary point found.
 Normal termination of Gaussian 09 at Sun Mar  4 21:07:27 2018.
