 Gaussian 09, Revision D.01,
 Gaussian 09:  ES64L-G09RevD.01 24-Apr-2013

 ---------------------------
 #p b3lyp/6-311++g(d,p) freq
 ---------------------------

 ---
 min
 ---
 Symbolic Z-matrix:
 Charge =  0 Multiplicity = 1

                         Standard orientation:
 ---------------------------------------------------------------------
 Center     Atomic      Atomic             Coordinates (Angstroms)
 Number     Number       Type             X           Y           Z
 ---------------------------------------------------------------------
      1          6           0       -0.847751   -0.190947   -0.037774
      2          6           0        0.591638    0.021517   -0.031471
      3          1           0        1.205196   -0.843009   -0.293677
      4          1           0        0.615686    0.076319    1.091770
      5          1           0        1.027247    0.966362   -0.385026
      6          1           0       -1.311447    0.816903    0.002406
 ---------------------------------------------------------------------

 SCF Done:  E(RB3LYP) =  -78.4945280208     A.U. after   11 cycles

 The electronic state is 1-A.
 Alpha  occ. eigenvalues --  -10.21537 -10.19394  -0.78919  -0.58630  -0.45830
 Alpha  occ. eigenvalues --   -0.43730  -0.38123  -0.22526
 Alpha virt. eigenvalues --   -0.09293  -0.01118   0.01646   0.02485   0.03650
 Alpha virt. eigenvalues --    0.06792   0.08101   0.09059   0.10654   0.11679
 Alpha virt. eigenvalues --    0.12157   0.13709   0.15239   0.15705   0.17640

 Mulliken charges:
               1
     1  C   -0.183413
     2  C   -0.386174
     3  H    0.181419
     4  H    0.157628
     5  H    0.116609
     6  H    0.113930
 Sum of Mulliken charges =  -0.00000

 Dipole moment (field-independent basis, Debye):
    X=              1.8489    Y=              1.7742    Z=              0.2616  Tot=              2.5758
 Quadrupole moment (field-independent basis, Debye-Ang):
   XX=            -16.3182   YY=            -15.5439   ZZ=            -13.1185
   XY=             -2.7133   XZ=              0.3111   YZ=              0.0743

  Exact polarizability:  33.321   0.894  26.941  -0.096   0.236  22.611
 Approx polarizability:  41.642   0.304  33.474   1.022   0.812  32.374

                      1                      2                      3
                      A                      A                      A
 Frequencies --    470.5924               615.4876               957.9913
 Red. masses --      1.3121                 1.0820                 1.0644
 Frc consts  --      0.1712                 0.2415                 0.5756
 IR Inten    --      6.2641                44.4273                21.3745

                      4                      5                      6
                      A                      A                      A
 Frequencies --   1125.1959              1259.6784              1304.1525
 Red. masses --      3.1046                 1.3094                 1.3162
 Frc consts  --      2.3159                 1.2242                 1.3189
 IR Inten    --      6.9277                17.6037                42.6365

                      7                      8                      9
                      A                      A                      A
 Frequencies --   1344.7594              1511.8715              2822.1561
 Red. masses --      1.0566                 1.1316                 1.0625
 Frc consts  --      1.1258                 1.5240                 4.9857
 IR Inten    --     10.5674                 3.7420                14.6322

                     10                     11                     12
                      A                      A                      A
 Frequencies --   2916.4197              2988.9296              3085.4409
 Red. masses --      1.0822                 1.0682                 1.0979
 Frc consts  --      5.4235                 5.6224                 6.1581
 IR Inten    --     87.3987                55.2378                21.3684

 - Thermochemistry -
 -------------------
 Temperature   298.150 Kelvin.  Pressure   1.00000 Atm.
 Atom     1 has atomic number  6 and mass  12.00000

 Molecular mass:    28.03130 amu.
 Principal axes and moments of inertia in atomic units:
                           1         2         3
     Eigenvalues --    14.77364  67.53084  71.87687
           X            0.99776  -0.06685  -0.00256
           Y            0.06680   0.99763  -0.01680
           Z            0.00368   0.01659   0.99986
 This molecule is an asymmetric top.
 Rotational symmetry number  1.
 Rotational temperatures (Kelvin)      5.86273     1.28258     1.20503
 Rotational constants (GHZ):         122.15951    26.72470    25.10879
 Zero-point vibrational energy     122035.1 (Joules/Mol)
                                   29.16709 (Kcal/Mol)
 Warning -- explicit consideration of   2 degrees of freedom as
           vibrations may cause significant error
 Vibrational temperatures:    677.08   885.55  1378.33  1618.90  1812.39
          (Kelvin)           1876.38  1934.81  2175.24  4060.45  4196.07
                             4300.40  4439.26

 Zero-point correction=                           0.046481 (Hartree/Particle)
 Thermal correction to Energy=                    0.049816
 Thermal correction to Enthalpy=                  0.050760
 Thermal correction to Gibbs Free Energy=         0.024030
 Sum of electronic and zero-point Energies=            -78.448047
 Sum of electronic and thermal Energies=               -78.444712
 Sum of electronic and thermal Enthalpies=             -78.443768
 Sum of electronic and thermal Free Energies=          -78.470498

                     E (Thermal)             CV                S
                      KCal/Mol        Cal/Mol-Kelvin    Cal/Mol-Kelvin
 Total                   31.260              9.476             56.258
 Electronic               0.000              0.000              0.000
 Translational            0.889              2.981             35.927
 Rotational               0.889              2.981             18.912
 Vibrational             29.482              3.515              1.420
 Vibration     1          0.828              1.315              0.736
 Vibration     2          0.975              0.999              0.424

 1\1\ CITASK-GV1321\Freq\RB3LYP\6-311++G(d,p)\C2H4\EERD\04-Mar-2018\0\\
 #p b3lyp/6-311++g(d,p) freq\\min\\0,1\C,0.419217,0.486863,-0.160393\C,
 -0.636761,-0.512539,-0.104475\H,-0.893809,-0.883532,0.88996\H,0.032,-1
 .297651,-0.553484\H,-1.511138,-0.451768,-0.767242\H,0.380782,0.923738,
 -1.180223\\Version=ES64L-G09RevD.01\State=1-A\HF=-78.494528\RMSD=3.827
 e-09\RMSF=1.230e-04\ZeroPoint=0.0464807\Thermal=0.0498158\Dipole=-0.69
 33173,-0.4948636,-0.5489806\DipoleDeriv=-0.1383202,0.4024789,0.2584473
 ,0.2978445,-0.0285159,-0.1752711,0.1188073,-0.1433336,0.037013,0.20510

 Normal termination of Gaussian 09 at Sun Mar  4 21:07:23 2018.
