 Gaussian 09, Revision D.01,
 Gaussian 09:  ES64L-G09RevD.01 24-Apr-2013

 ---------------------------
 #p b3lyp/6-311++g(d,p) freq
 ---------------------------

 ---
 min
 ---
 Symbolic Z-matrix:
 Charge =  1 Multiplicity = 4

                         Standard orientation:
 ---------------------------------------------------------------------
 Center     Atomic      Atomic             Coordinates (Angstroms)
 Number     Number       Type             X           Y           Z
 ---------------------------------------------------------------------
      1          6           0        0.970876   -0.487742   -0.000000
      2          6           0        0.000000    0.817773    0.000000
      3          6           0       -0.669244   -0.481731    0.000000
      4          1           0        0.123683    1.358609    0.938375
      5          1           0        0.123683    1.358609   -0.938375
      6          1           0       -1.028579   -0.903506    0.938404
      7          1           0       -1.028579   -0.903506   -0.938404
 ---------------------------------------------------------------------

 SCF Done:  E(UB3LYP) =  -116.171718938     A.U. after   12 cycles

 The electronic state is 4-A".
 Alpha  occ. eigenvalues --  -10.56456 -10.51135 -10.51032  -1.16207  -0.90306
 Alpha  occ. eigenvalues --   -0.85977  -0.77837  -0.72540  -0.66271  -0.60610
 Alpha  occ. eigenvalues --   -0.60051  -0.51646
 Alpha virt. eigenvalues --   -0.21152  -0.17629  -0.16734  -0.15393  -0.14987
 Alpha virt. eigenvalues --   -0.09945  -0.08559  -0.07167  -0.06857  -0.05697
 Alpha virt. eigenvalues --   -0.05657  -0.04340  -0.03394  -0.02031  -0.01819

  Beta  occ. eigenvalues --  -10.52410 -10.50602 -10.50515  -1.12198  -0.87708
  Beta  occ. eigenvalues --   -0.77990  -0.76193  -0.68010  -0.65287
  Beta virt. eigenvalues --   -0.44762  -0.42735  -0.31020  -0.17115  -0.14902
  Beta virt. eigenvalues --   -0.14735  -0.14451  -0.13553  -0.09686  -0.08476
  Beta virt. eigenvalues --   -0.06238  -0.05782  -0.04690  -0.04150  -0.02413

 Mulliken charges and spin densities:
               1          2
     1  C    0.384867   2.270227
     2  C   -0.225311   0.316227
     3  C   -0.216731   0.333189
     4  H    0.264569   0.021783
     5  H    0.264569   0.021783
     6  H    0.264018   0.018395
     7  H    0.264018   0.018395
 Sum of Mulliken charges =   1.00000   3.00000

 Dipole moment (field-independent basis, Debye):
    X=             -0.6708    Y=              0.3219    Z=             -0.0000  Tot=              0.7440
 Quadrupole moment (field-independent basis, Debye-Ang):
   XX=            -13.9020   YY=            -11.9873   ZZ=            -14.1582
   XY=              1.3475   XZ=             -0.0000   YZ=             -0.0000

  Exact polarizability:  29.076   0.101  29.049  -0.000   0.000  22.702
 Approx polarizability:  45.722  -2.483  41.709   0.000  -0.000  30.067

                      1                      2                      3
                     A'                     A"                     A'
 Frequencies --    129.5838               691.1882               746.8963
 Red. masses --      8.4298                 1.1680                 6.5007
 Frc consts  --      0.0834                 0.3288                 2.1366
 IR Inten    --     16.9466                 3.9847                 2.0326

                      4                      5                      6
                     A"                     A"                     A'
 Frequencies --    840.7140               910.0485              1066.4024
 Red. masses --      1.0670                 1.0117                 1.2449
 Frc consts  --      0.4443                 0.4937                 0.8341
 IR Inten    --      3.7669                 0.0301                26.2583

                      7                      8                      9
                     A'                     A'                     A"
 Frequencies --   1092.1485              1168.8537              1184.9854
 Red. masses --      1.3415                 2.6142                 1.4228
 Frc consts  --      0.9427                 2.1043                 1.1771
 IR Inten    --     29.2923                39.0206                 0.0001

                     10                     11                     12
                     A'                     A'                     A'
 Frequencies --   1426.5860              1485.6244              3074.6677
 Red. masses --      1.1078                 1.2154                 1.0467
 Frc consts  --      1.3283                 1.5805                 5.8303
 IR Inten    --     15.4654                 1.5285                39.0068

                     13                     14                     15
                     A'                     A"                     A"
 Frequencies --   3079.6662              3187.7833              3193.0452
 Red. masses --      1.0532                 1.1254                 1.1221
 Frc consts  --      5.8851                 6.7379                 6.7404
 IR Inten    --     13.5702                25.7356                50.3337

 - Thermochemistry -
 -------------------
 Temperature   298.150 Kelvin.  Pressure   1.00000 Atm.
 Atom     1 has atomic number  6 and mass  12.00000

 Molecular mass:    40.03130 amu.
 Principal axes and moments of inertia in atomic units:
                           1         2         3
     Eigenvalues --    78.50709  81.75686 134.91039
           X            0.60610   0.79539   0.00000
           Y            0.79539  -0.60610   0.00000
           Z           -0.00000  -0.00000   1.00000
 This molecule is an asymmetric top.
 Rotational symmetry number  1.
 Rotational temperatures (Kelvin)      1.10326     1.05941     0.64201
 Rotational constants (GHZ):          22.98826    22.07449    13.37733
 Zero-point vibrational energy     139234.5 (Joules/Mol)
                                   33.27785 (Kcal/Mol)
 Warning -- explicit consideration of   1 degrees of freedom as
           vibrations may cause significant error
 Vibrational temperatures:    186.44   994.46  1074.62  1209.60  1309.36
          (Kelvin)           1534.31  1571.36  1681.72  1704.93  2052.54
                             2137.48  4423.76  4430.95  4586.50  4594.07

 Zero-point correction=                           0.053032 (Hartree/Particle)
 Thermal correction to Energy=                    0.056977
 Thermal correction to Enthalpy=                  0.057922
 Thermal correction to Gibbs Free Energy=         0.026933
 Sum of electronic and zero-point Energies=           -116.118687
 Sum of electronic and thermal Energies=              -116.114742
 Sum of electronic and thermal Enthalpies=            -116.113797
 Sum of electronic and thermal Free Energies=         -116.144786

                     E (Thermal)             CV                S
                      KCal/Mol        Cal/Mol-Kelvin    Cal/Mol-Kelvin
 Total                   35.754             11.760             65.221
 Electronic               0.000              0.000              2.755
 Translational            0.889              2.981             36.989
 Rotational               0.889              2.981             21.387
 Vibrational             33.976              5.798              4.090
 Vibration     1          0.612              1.924              2.952

 Normal termination of Gaussian 09 at Thu Jan 24 15:55:24 2019.
