 Gaussian 09, Revision D.01,
 Gaussian 09:  ES64L-G09RevD.01 24-Apr-2013

 ---------------------------
 #p b3lyp/6-311++g(d,p) freq
 ---------------------------

 ---
 min
 ---
 Symbolic Z-matrix:
 Charge =  0 Multiplicity = 3

                         Standard orientation:
 ---------------------------------------------------------------------
 Center     Atomic      Atomic             Coordinates (Angstroms)
 Number     Number       Type             X           Y           Z
 ---------------------------------------------------------------------
      1          6           0       -1.084468   -0.409879    0.000000
      2          6           0        0.000000    0.456772   -0.000000
      3          6           0        1.314626    0.089838   -0.000000
      4          1           0        1.878348   -0.832720   -0.000000
      5          1           0       -2.098091   -0.029201    0.000000
      6          1           0       -0.948593   -1.484965    0.000000
      7          1           0       -0.212615    1.526497   -0.000000
 ---------------------------------------------------------------------

 SCF Done:  E(UB3LYP) =  -116.612282896     A.U. after   13 cycles

 The electronic state is 3-A".
 Alpha  occ. eigenvalues --  -10.20940 -10.19276 -10.18920  -0.81082  -0.68768
 Alpha  occ. eigenvalues --   -0.57024  -0.47571  -0.45892  -0.38732  -0.34002
 Alpha  occ. eigenvalues --   -0.25976  -0.21447
 Alpha virt. eigenvalues --   -0.00153   0.01179   0.01243   0.02092   0.04504
 Alpha virt. eigenvalues --    0.06606   0.07177   0.09617   0.09769   0.11450
 Alpha virt. eigenvalues --    0.11928   0.12755   0.12757   0.13270   0.14252

  Beta  occ. eigenvalues --  -10.19622 -10.18574 -10.17899  -0.79101  -0.64561
  Beta  occ. eigenvalues --   -0.55135  -0.46197  -0.44325  -0.37884  -0.30564
  Beta virt. eigenvalues --   -0.08724  -0.08582  -0.00028   0.01296   0.02394
  Beta virt. eigenvalues --    0.02679   0.04511   0.07932   0.07963   0.10097
  Beta virt. eigenvalues --    0.10697   0.12008   0.12162   0.12870   0.13731

 Mulliken charges and spin densities:
               1          2
     1  C   -0.388603   0.741107
     2  C    0.011210  -0.311311
     3  C   -0.170656   1.599978
     4  H    0.144503  -0.014240
     5  H    0.119785  -0.017959
     6  H    0.135583  -0.040796
     7  H    0.148178   0.043221
 Sum of Mulliken charges =  -0.00000   2.00000

 Dipole moment (field-independent basis, Debye):
    X=             -0.4961    Y=             -0.4619    Z=              0.0000  Tot=              0.6779
 Quadrupole moment (field-independent basis, Debye-Ang):
   XX=            -18.6010   YY=            -17.3883   ZZ=            -21.8257
   XY=             -1.7208   XZ=              0.0000   YZ=              0.0000

  Exact polarizability:  53.896   2.964  33.190   0.004   0.005  25.193
 Approx polarizability:  76.200   4.995  43.704  -0.000  -0.000  32.015

                      1                      2                      3
                     A'                     A"                     A"
 Frequencies --    400.0490               505.9043               638.1188
 Red. masses --      1.9244                 1.0386                 1.7792
 Frc consts  --      0.1815                 0.1566                 0.4268
 IR Inten    --      2.6724                26.9216                 2.1982

                      4                      5                      6
                     A"                     A'                     A"
 Frequencies --    790.6168               837.5559               945.1336
 Red. masses --      1.3418                 1.2483                 1.1741
 Frc consts  --      0.4942                 0.5159                 0.6179
 IR Inten    --     59.1309                17.0437                29.5560

                      7                      8                      9
                     A'                     A'                     A'
 Frequencies --   1019.0356              1202.3275              1231.1276
 Red. masses --      1.6360                 2.2727                 2.2289
 Frc consts  --      1.0009                 1.9357                 1.9904
 IR Inten    --      1.7883                 1.6660                 1.8259

                     10                     11                     12
                     A'                     A'                     A'
 Frequencies --   1408.7060              1491.5677              3098.7317
 Red. masses --      2.1018                 1.2751                 1.0840
 Frc consts  --      2.4575                 1.6713                 6.1324
 IR Inten    --      0.6365                 2.8858                 6.2809

                     13                     14                     15
                     A'                     A'                     A'
 Frequencies --   3140.1606              3223.7429              3238.2297
 Red. masses --      1.0532                 1.0937                 1.1180
 Frc consts  --      6.1189                 6.6968                 6.9070
 IR Inten    --      5.8786                 0.1411                 8.6439

 - Thermochemistry -
 -------------------
 Temperature   298.150 Kelvin.  Pressure   1.00000 Atm.
 Atom     1 has atomic number  6 and mass  12.00000

 Molecular mass:    40.03130 amu.
 Principal axes and moments of inertia in atomic units:
                           1         2         3
     Eigenvalues --    31.19848 160.28215 191.48063
           X            0.98419  -0.17712   0.00000
           Y            0.17712   0.98419   0.00000
           Z           -0.00000  -0.00000   1.00000
 This molecule is an asymmetric top.
 Rotational symmetry number  1.
 Rotational temperatures (Kelvin)      2.77622     0.54038     0.45234
 Rotational constants (GHZ):          57.84710    11.25978     9.42519
 Zero-point vibrational energy     138593.4 (Joules/Mol)
                                   33.12462 (Kcal/Mol)
 Warning -- explicit consideration of   2 degrees of freedom as
           vibrations may cause significant error
 Vibrational temperatures:    575.58   727.88   918.11  1137.52  1205.05
          (Kelvin)           1359.83  1466.16  1729.88  1771.32  2026.81
                             2146.03  4458.38  4517.99  4638.24  4659.08

 Zero-point correction=                           0.052787 (Hartree/Particle)
 Thermal correction to Energy=                    0.056562
 Thermal correction to Enthalpy=                  0.057506
 Thermal correction to Gibbs Free Energy=         0.027403
 Sum of electronic and zero-point Energies=           -116.559495
 Sum of electronic and thermal Energies=              -116.555721
 Sum of electronic and thermal Enthalpies=            -116.554777
 Sum of electronic and thermal Free Energies=         -116.584880

                     E (Thermal)             CV                S
                      KCal/Mol        Cal/Mol-Kelvin    Cal/Mol-Kelvin
 Total                   35.493             12.245             63.358
 Electronic               0.000              0.000              2.183
 Translational            0.889              2.981             36.989
 Rotational               0.889              2.981             21.487
 Vibrational             33.716              6.283              2.699
 Vibration     1          0.766              1.470              0.962
 Vibration     2          0.861              1.237              0.644

 Optimization completed.
    -- Stationary point found.
 Normal termination of Gaussian 09 at Sun Mar  4 21:09:51 2018.
