 Gaussian 09, Revision D.01,
 Gaussian 09:  ES64L-G09RevD.01 24-Apr-2013

 ---------------------------
 #p b3lyp/6-311++g(d,p) freq
 ---------------------------

 ---
 min
 ---
 Symbolic Z-matrix:
 Charge =  1 Multiplicity = 2

                         Standard orientation:
 ---------------------------------------------------------------------
 Center     Atomic      Atomic             Coordinates (Angstroms)
 Number     Number       Type             X           Y           Z
 ---------------------------------------------------------------------
      1          6           0       -0.000000    0.649437   -0.000000
      2          6           0       -0.639042   -0.567255    0.000000
      3          6           0        0.545943    1.810805   -0.000000
      4          1           0        0.944220   -1.653152    0.000000
      5          1           0        0.791028    2.326684    0.932252
      6          1           0       -1.723433   -0.646607   -0.000000
      7          1           0        0.791028    2.326684   -0.932252
      8          8           0       -0.030531   -1.713941    0.000000
 ---------------------------------------------------------------------

 SCF Done:  E(UB3LYP) =  -191.613095447     A.U. after   15 cycles

 The electronic state is 2-A".
 Alpha  occ. eigenvalues --  -19.45698 -10.54069 -10.47799 -10.43538  -1.37284
 Alpha  occ. eigenvalues --   -1.06327  -0.97362  -0.88176  -0.75995  -0.74048
 Alpha  occ. eigenvalues --   -0.71606  -0.68217  -0.64649  -0.54481  -0.51337
 Alpha virt. eigenvalues --   -0.26214  -0.25586  -0.18309  -0.15181  -0.12309
 Alpha virt. eigenvalues --   -0.11239  -0.08741  -0.08459  -0.07308  -0.06945
 Alpha virt. eigenvalues --   -0.04625  -0.03617  -0.02245  -0.01560  -0.00848

  Beta  occ. eigenvalues --  -19.44954 -10.53731 -10.47036 -10.43644  -1.35837
  Beta  occ. eigenvalues --   -1.04340  -0.96406  -0.87271  -0.75396  -0.73218
  Beta  occ. eigenvalues --   -0.68552  -0.65279  -0.63805  -0.54030
  Beta virt. eigenvalues --   -0.40518  -0.25227  -0.21764  -0.18067  -0.14982
  Beta virt. eigenvalues --   -0.12221  -0.11033  -0.08621  -0.08141  -0.07029
  Beta virt. eigenvalues --   -0.06941  -0.04393  -0.03415  -0.02082  -0.01319

 Mulliken charges and spin densities:
               1          2
     1  C    0.988704   0.517987
     2  C   -0.561661   0.247312
     3  C   -0.464890  -0.074182
     4  H    0.306093  -0.008365
     5  H    0.231378   0.048295
     6  H    0.250859  -0.013542
     7  H    0.231378   0.048295
     8  O    0.018137   0.234201
 Sum of Mulliken charges =   1.00000   1.00000

 Dipole moment (field-independent basis, Debye):
    X=              1.0329    Y=              1.5002    Z=              0.0000  Tot=              1.8214
 Quadrupole moment (field-independent basis, Debye-Ang):
   XX=            -16.3891   YY=            -10.2808   ZZ=            -20.2307
   XY=              1.5939   XZ=              0.0000   YZ=              0.0000

  Exact polarizability:  30.017   9.527  59.764   0.000   0.000  21.283
 Approx polarizability:  42.360  16.195  89.765   0.000   0.000  28.651

                      1                      2                      3
                     A"                     A'                     A"
 Frequencies --    208.6243               210.3787               287.9263
 Red. masses --      1.1949                 4.0269                 1.9364
 Frc consts  --      0.0306                 0.1050                 0.0946
 IR Inten    --      0.0418                 0.5963                 0.0169

                      4                      5                      6
                     A'                     A"                     A"
 Frequencies --    595.3501               659.9786               853.0892
 Red. masses --      4.8633                 1.5321                 1.5482
 Frc consts  --      1.0156                 0.3932                 0.6639
 IR Inten    --     27.4959               109.6153                 0.3001

                      7                      8                      9
                     A'                     A"                     A'
 Frequencies --    940.3511               963.7441               982.4124
 Red. masses --      1.3159                 1.2417                 3.1009
 Frc consts  --      0.6856                 0.6795                 1.7633
 IR Inten    --     44.9422                67.2292                59.5219

                     10                     11                     12
                     A'                     A'                     A'
 Frequencies --   1227.0295              1339.1687              1372.2439
 Red. masses --      1.2370                 1.2231                 1.6579
 Frc consts  --      1.0973                 1.2924                 1.8394
 IR Inten    --    152.2611                22.5958                25.2837

                     13                     14                     15
                     A'                     A'                     A'
 Frequencies --   1482.9548              1961.1655              3056.1391
 Red. masses --      2.4956                 9.6772                 1.0600
 Frc consts  --      3.2336                21.9294                 5.8330
 IR Inten    --    173.6315                 0.1385               118.7006

                     16                     17                     18
                     A"                     A'                     A'
 Frequencies --   3128.2982              3176.7855              3666.1499
 Red. masses --      1.1108                 1.0926                 1.0672
 Frc consts  --      6.4045                 6.4963                 8.4510
 IR Inten    --     61.9136                25.6974               199.9080

 - Thermochemistry -
 -------------------
 Temperature   298.150 Kelvin.  Pressure   1.00000 Atm.
 Atom     1 has atomic number  6 and mass  12.00000

 Molecular mass:    56.02621 amu.
 Principal axes and moments of inertia in atomic units:
                           1         2         3
     Eigenvalues --    40.22239 411.10849 438.81937
           X            0.19923   0.97995  -0.00000
           Y            0.97995  -0.19923   0.00000
           Z           -0.00000   0.00000   1.00000
 This molecule is an asymmetric top.
 Rotational symmetry number  1.
 Rotational temperatures (Kelvin)      2.15337     0.21068     0.19738
 Rotational constants (GHZ):          44.86907     4.38994     4.11272
 Zero-point vibrational energy     156183.2 (Joules/Mol)
                                   37.32868 (Kcal/Mol)
 Warning -- explicit consideration of   4 degrees of freedom as
           vibrations may cause significant error
 Vibrational temperatures:    300.16   302.69   414.26   856.57   949.56
          (Kelvin)           1227.40  1352.95  1386.61  1413.47  1765.42
                             1926.76  1974.35  2133.64  2821.68  4397.10
                             4500.92  4570.68  5274.77

 Zero-point correction=                           0.059487 (Hartree/Particle)
 Thermal correction to Energy=                    0.064371
 Thermal correction to Enthalpy=                  0.065315
 Thermal correction to Gibbs Free Energy=         0.032124
 Sum of electronic and zero-point Energies=           -191.553608
 Sum of electronic and thermal Energies=              -191.548725
 Sum of electronic and thermal Enthalpies=            -191.547780
 Sum of electronic and thermal Free Energies=         -191.580971

                     E (Thermal)             CV                S
                      KCal/Mol        Cal/Mol-Kelvin    Cal/Mol-Kelvin
 Total                   40.393             15.618             69.855
 Electronic               0.000              0.000              1.377
 Translational            0.889              2.981             37.991
 Rotational               0.889              2.981             23.499
 Vibrational             38.616              9.656              6.987
 Vibration     1          0.642              1.828              2.056
 Vibration     2          0.643              1.825              2.040
 Vibration     3          0.685              1.696              1.486
 Vibration     4          0.953              1.042              0.458

 Optimization completed.
    -- Stationary point found.
 Normal termination of Gaussian 09 at Thu Jan 24 15:58:42 2019.
