 Gaussian 09, Revision D.01,
 Gaussian 09:  ES64L-G09RevD.01 24-Apr-2013

 ---------------------------
 #p b3lyp/6-311++g(d,p) freq
 ---------------------------

 ---
 min
 ---
 Symbolic Z-matrix:
 Charge =  1 Multiplicity = 4

                         Standard orientation:
 ---------------------------------------------------------------------
 Center     Atomic      Atomic             Coordinates (Angstroms)
 Number     Number       Type             X           Y           Z
 ---------------------------------------------------------------------
      1          6           0       -1.079769   -0.477867    0.000000
      2          1           0       -0.745738   -1.532605    0.000000
      3          1           0       -1.733521   -0.288929    0.873880
      4          1           0       -1.733521   -0.288929   -0.873880
      5          6           0       -0.000000    0.435606   -0.000000
      6          6           0        1.405635    0.240899   -0.000000
      7          1           0        2.257579    0.918631   -0.000000
 ---------------------------------------------------------------------

 SCF Done:  E(UB3LYP) =  -116.192247743     A.U. after   12 cycles

 The electronic state is 4-A".
 Alpha  occ. eigenvalues --  -10.54532 -10.54167 -10.43329  -1.10136  -0.98390
 Alpha  occ. eigenvalues --   -0.81359  -0.72893  -0.69205  -0.69030  -0.62058
 Alpha  occ. eigenvalues --   -0.57846  -0.47977
 Alpha virt. eigenvalues --   -0.32311  -0.16823  -0.13802  -0.11783  -0.11595
 Alpha virt. eigenvalues --   -0.11425  -0.09052  -0.09015  -0.07189  -0.06046
 Alpha virt. eigenvalues --   -0.05404  -0.03194  -0.01938  -0.01245  -0.00793

  Beta  occ. eigenvalues --  -10.52426 -10.51518 -10.43221  -1.05043  -0.94035
  Beta  occ. eigenvalues --   -0.77773  -0.69791  -0.66472  -0.65881
  Beta virt. eigenvalues --   -0.44001  -0.43367  -0.28855  -0.24035  -0.16016
  Beta virt. eigenvalues --   -0.13053  -0.11223  -0.11222  -0.10147  -0.08347
  Beta virt. eigenvalues --   -0.07996  -0.06654  -0.05606  -0.04461  -0.01991

 Mulliken charges and spin densities:
               1          2
     1  C   -0.626918  -0.010679
     2  H    0.233045   0.094911
     3  H    0.266660   0.052470
     4  H    0.266660   0.052470
     5  C    0.528871   1.230481
     6  C    0.070260   1.588236
     7  H    0.261421  -0.007888
 Sum of Mulliken charges =   1.00000   3.00000

 Dipole moment (field-independent basis, Debye):
    X=              0.6305    Y=              0.2909    Z=              0.0000  Tot=              0.6944
 Quadrupole moment (field-independent basis, Debye-Ang):
   XX=             -5.6550   YY=            -14.8957   ZZ=            -15.5471
   XY=              4.2605   XZ=             -0.0000   YZ=             -0.0000

  Exact polarizability:  47.087   7.129  26.227  -0.000  -0.000  20.472
 Approx polarizability:  63.498   8.828  35.528  -0.000  -0.000  28.422

                      1                      2                      3
                     A"                     A'                     A"
 Frequencies --    129.0463               314.7807               602.9202
 Red. masses --      1.4977                 2.3639                 1.1139
 Frc consts  --      0.0147                 0.1380                 0.2386
 IR Inten    --      7.2377                 6.7143                10.4804

                      4                      5                      6
                     A"                     A'                     A'
 Frequencies --    837.8719               848.9387               875.8728
 Red. masses --      1.4655                 1.3126                 1.8118
 Frc consts  --      0.6062                 0.5574                 0.8189
 IR Inten    --     11.5036                26.5576                35.3902

                      7                      8                      9
                     A'                     A'                     A"
 Frequencies --   1128.0730              1288.5436              1302.8791
 Red. masses --      2.5391                 1.1485                 1.0440
 Frc consts  --      1.9037                 1.1235                 1.0442
 IR Inten    --     11.3201               121.1837                24.2184

                     10                     11                     12
                     A'                     A'                     A'
 Frequencies --   1334.4797              1509.0502              2895.7424
 Red. masses --      1.1954                 7.0258                 1.0341
 Frc consts  --      1.2542                 9.4266                 5.1089
 IR Inten    --     33.2235                43.2535               159.8063

                     13                     14                     15
                     A"                     A'                     A'
 Frequencies --   2946.7394              2967.2605              3169.1666
 Red. masses --      1.0878                 1.0977                 1.0934
 Frc consts  --      5.5653                 5.6944                 6.4704
 IR Inten    --     50.5963                70.9480                67.2272

 - Thermochemistry -
 -------------------
 Temperature   298.150 Kelvin.  Pressure   1.00000 Atm.
 Atom     1 has atomic number  6 and mass  12.00000

 Molecular mass:    40.03130 amu.
 Principal axes and moments of inertia in atomic units:
                           1         2         3
     Eigenvalues --    21.27761 198.35755 208.64139
           X            0.95200  -0.30608   0.00000
           Y            0.30608   0.95200   0.00000
           Z           -0.00000  -0.00000   1.00000
 This molecule is an asymmetric top.
 Rotational symmetry number  1.
 Rotational temperatures (Kelvin)      4.07065     0.43665     0.41513
 Rotational constants (GHZ):          84.81878     9.09842     8.64997
 Zero-point vibrational energy     132494.6 (Joules/Mol)
                                   31.66697 (Kcal/Mol)
 Warning -- explicit consideration of   3 degrees of freedom as
           vibrations may cause significant error
 Vibrational temperatures:    185.67   452.90   867.47  1205.51  1221.43
          (Kelvin)           1260.18  1623.04  1853.92  1874.55  1920.02
                             2171.18  4166.32  4239.70  4269.22  4559.72

 Zero-point correction=                           0.050465 (Hartree/Particle)
 Thermal correction to Energy=                    0.054790
 Thermal correction to Enthalpy=                  0.055734
 Thermal correction to Gibbs Free Energy=         0.024120
 Sum of electronic and zero-point Energies=           -116.141783
 Sum of electronic and thermal Energies=              -116.137458
 Sum of electronic and thermal Enthalpies=            -116.136513
 Sum of electronic and thermal Free Energies=         -116.168128

                     E (Thermal)             CV                S
                      KCal/Mol        Cal/Mol-Kelvin    Cal/Mol-Kelvin
 Total                   34.381             13.017             66.539
 Electronic               0.000              0.000              2.755
 Translational            0.889              2.981             36.989
 Rotational               0.889              2.981             21.404
 Vibrational             32.604              7.056              5.391
 Vibration     1          0.612              1.924              2.960
 Vibration     2          0.702              1.645              1.337
 Vibration     3          0.961              1.026              0.445

 Optimization completed.
    -- Stationary point found.
 Normal termination of Gaussian 09 at Thu Jan 24 15:54:24 2019.
