 Gaussian 09, Revision D.01,
 Gaussian 09:  ES64L-G09RevD.01 24-Apr-2013

 ---------------------------
 #p b3lyp/6-311++g(d,p) freq
 ---------------------------

 ---
 min
 ---
 Symbolic Z-matrix:
 Charge =  1 Multiplicity = 2

                         Standard orientation:
 ---------------------------------------------------------------------
 Center     Atomic      Atomic             Coordinates (Angstroms)
 Number     Number       Type             X           Y           Z
 ---------------------------------------------------------------------
      1          6           0       -1.093369   -0.399834    0.000000
      2          1           0       -0.962091   -1.478775   -0.000000
      3          1           0       -2.109005   -0.011411    0.000000
      4          6           0       -0.000000    0.450361    0.000000
      5          1           0        2.288097    0.214094   -0.000000
      6          1           0       -0.129850    1.535226    0.000000
      7          6           0        1.245510   -0.093716   -0.000000
 ---------------------------------------------------------------------

 SCF Done:  E(UB3LYP) =  -116.307276542     A.U. after   14 cycles

 The electronic state is 2-A'.
 Alpha  occ. eigenvalues --  -10.52202 -10.50039 -10.45905  -1.09004  -0.95268
 Alpha  occ. eigenvalues --   -0.82048  -0.76542  -0.70693  -0.65816  -0.59256
 Alpha  occ. eigenvalues --   -0.52490
 Alpha virt. eigenvalues --   -0.39778  -0.22447  -0.15990  -0.14234  -0.13084
 Alpha virt. eigenvalues --   -0.11594  -0.09890  -0.08540  -0.07825  -0.05307
 Alpha virt. eigenvalues --   -0.05261  -0.04922  -0.03163  -0.03000  -0.00643

  Beta  occ. eigenvalues --  -10.50471 -10.50067 -10.45956  -1.07929  -0.93481
  Beta  occ. eigenvalues --   -0.80544  -0.75572  -0.69727  -0.65140  -0.58799
  Beta virt. eigenvalues --   -0.38567  -0.35027  -0.21826  -0.15673  -0.13988
  Beta virt. eigenvalues --   -0.12799  -0.11327  -0.09825  -0.08471  -0.07321
  Beta virt. eigenvalues --   -0.05176  -0.05105  -0.04458  -0.03110  -0.02599

 Mulliken charges and spin densities:
               1          2
     1  C   -0.123784  -0.065240
     2  H    0.242429   0.010879
     3  H    0.237570   0.008074
     4  C    0.057450  -0.058752
     5  H    0.275377   0.007877
     6  H    0.273211   0.062124
     7  C    0.037746   1.035039
 Sum of Mulliken charges =   1.00000   1.00000

 Dipole moment (field-independent basis, Debye):
    X=              0.0497    Y=              0.0292    Z=              0.0000  Tot=              0.0576
 Quadrupole moment (field-independent basis, Debye-Ang):
   XX=             -4.5019   YY=            -13.3834   ZZ=            -17.2434
   XY=              1.9350   XZ=             -0.0000   YZ=             -0.0000

  Exact polarizability:  47.104   2.811  26.590   0.000  -0.000  16.898
 Approx polarizability:  82.337   4.955  36.352  -0.000   0.000  23.371

                      1                      2                      3
                     A"                     A'                     A"
 Frequencies --    322.7359               409.8681               771.7317
 Red. masses --      1.2095                 2.1862                 1.1730
 Frc consts  --      0.0742                 0.2164                 0.4116
 IR Inten    --     33.0610                 8.2971                31.5457

                      4                      5                      6
                     A'                     A"                     A'
 Frequencies --    798.8954               974.7710              1015.1207
 Red. masses --      1.2513                 1.2977                 1.4217
 Frc consts  --      0.4705                 0.7265                 0.8631
 IR Inten    --     24.7618                20.2694                 2.5066

                      7                      8                      9
                     A"                     A'                     A'
 Frequencies --   1154.3835              1272.4880              1278.5211
 Red. masses --      1.3703                 1.4155                 2.1623
 Frc consts  --      1.0759                 1.3504                 2.0825
 IR Inten    --      7.8359                 0.4544                29.0819

                     10                     11                     12
                     A'                     A'                     A'
 Frequencies --   1487.9219              1574.1185              3092.3631
 Red. masses --      1.6658                 2.8621                 1.0869
 Frc consts  --      2.1729                 4.1784                 6.1235
 IR Inten    --    127.9059               189.1182                21.6500

                     13                     14                     15
                     A'                     A'                     A'
 Frequencies --   3133.1777              3204.0648              3241.2136
 Red. masses --      1.0601                 1.1033                 1.1220
 Frc consts  --      6.1314                 6.6733                 6.9448
 IR Inten    --      7.4432                45.8397                19.9752

 - Thermochemistry -
 -------------------
 Temperature   298.150 Kelvin.  Pressure   1.00000 Atm.
 Atom     1 has atomic number  6 and mass  12.00000

 Molecular mass:    40.03130 amu.
 Principal axes and moments of inertia in atomic units:
                           1         2         3
     Eigenvalues --    29.27001 159.03610 188.30610
           X            0.98775  -0.15608   0.00000
           Y            0.15608   0.98775   0.00000
           Z            0.00000  -0.00000   1.00000
 This molecule is an asymmetric top.
 Rotational symmetry number  1.
 Rotational temperatures (Kelvin)      2.95913     0.54462     0.45996
 Rotational constants (GHZ):          61.65838    11.34800     9.58408
 Zero-point vibrational energy     141945.1 (Joules/Mol)
                                   33.92570 (Kcal/Mol)
 Warning -- explicit consideration of   2 degrees of freedom as
           vibrations may cause significant error
 Vibrational temperatures:    464.34   589.71  1110.35  1149.43  1402.48
          (Kelvin)           1460.53  1660.90  1830.82  1839.50  2140.79
                             2264.80  4449.22  4507.94  4609.93  4663.38

 Zero-point correction=                           0.054064 (Hartree/Particle)
 Thermal correction to Energy=                    0.057884
 Thermal correction to Enthalpy=                  0.058828
 Thermal correction to Gibbs Free Energy=         0.029012
 Sum of electronic and zero-point Energies=           -116.253212
 Sum of electronic and thermal Energies=              -116.249393
 Sum of electronic and thermal Enthalpies=            -116.248449
 Sum of electronic and thermal Free Energies=         -116.278264

                     E (Thermal)             CV                S
                      KCal/Mol        Cal/Mol-Kelvin    Cal/Mol-Kelvin
 Total                   36.323             11.852             62.752
 Electronic               0.000              0.000              1.377
 Translational            0.889              2.981             36.989
 Rotational               0.889              2.981             21.399
 Vibrational             34.545              5.890              2.986
 Vibration     1          0.708              1.630              1.296
 Vibration     2          0.774              1.449              0.927

 Normal termination of Gaussian 09 at Thu Jan 24 15:53:51 2019.
