 Gaussian 09, Revision D.01,
 Gaussian 09:  ES64L-G09RevD.01 24-Apr-2013

 ---------------------------
 #p b3lyp/6-311++g(d,p) freq
 ---------------------------

 ---
 min
 ---
 Symbolic Z-matrix:
 Charge =  1 Multiplicity = 4

                         Standard orientation:
 ---------------------------------------------------------------------
 Center     Atomic      Atomic             Coordinates (Angstroms)
 Number     Number       Type             X           Y           Z
 ---------------------------------------------------------------------
      1          6           0       -0.418767   -0.991220    0.000000
      2          1           0       -1.485034   -0.781710    0.000000
      3          1           0       -0.128239   -1.635821   -0.856651
      4          1           0       -0.128239   -1.635821    0.856651
      5          6           0        0.452234    0.163362   -0.000000
      6          6           0       -0.000000    1.498154   -0.000000
      7          1           0        1.540711    0.031578   -0.000000
 ---------------------------------------------------------------------

 SCF Done:  E(UB3LYP) =  -116.183520712     A.U. after   13 cycles

 The electronic state is 4-A".
 Alpha  occ. eigenvalues --  -10.56411 -10.54577 -10.43015  -1.10967  -0.97157
 Alpha  occ. eigenvalues --   -0.82013  -0.72829  -0.68654  -0.67836  -0.63259
 Alpha  occ. eigenvalues --   -0.58103  -0.51542
 Alpha virt. eigenvalues --   -0.32628  -0.17101  -0.14215  -0.12296  -0.11810
 Alpha virt. eigenvalues --   -0.10241  -0.09104  -0.08771  -0.07101  -0.06124
 Alpha virt. eigenvalues --   -0.04403  -0.03063  -0.02309  -0.01245  -0.01223

  Beta  occ. eigenvalues --  -10.53839 -10.52210 -10.42837  -1.06797  -0.92657
  Beta  occ. eigenvalues --   -0.78018  -0.69805  -0.65922  -0.64049
  Beta virt. eigenvalues --   -0.44638  -0.43882  -0.31190  -0.23849  -0.16565
  Beta virt. eigenvalues --   -0.13836  -0.12012  -0.10794  -0.09483  -0.08404
  Beta virt. eigenvalues --   -0.08362  -0.06327  -0.05706  -0.03643  -0.02519

 Mulliken charges and spin densities:
               1          2
     1  C   -0.633812   0.066909
     2  H    0.227350   0.009918
     3  H    0.263201   0.057935
     4  H    0.263201   0.057935
     5  C    0.238728   0.466632
     6  C    0.359743   2.290820
     7  H    0.281589   0.049850
 Sum of Mulliken charges =   1.00000   3.00000

 Dipole moment (field-independent basis, Debye):
    X=              0.6920    Y=             -0.0155    Z=             -0.0000  Tot=              0.6921
 Quadrupole moment (field-independent basis, Debye-Ang):
   XX=            -13.7892   YY=             -8.8348   ZZ=            -15.6732
   XY=              0.5720   XZ=              0.0000   YZ=              0.0000

  Exact polarizability:  25.573   1.401  45.503   0.000  -0.000  20.009
 Approx polarizability:  34.126  -0.208  68.327   0.000   0.000  28.144

                      1                      2                      3
                     A"                     A'                     A"
 Frequencies --    107.9647               459.4715               739.3080
 Red. masses --      1.2339                 3.3375                 1.0830
 Frc consts  --      0.0085                 0.4151                 0.3488
 IR Inten    --      7.9164                 0.3042                14.5586

                      4                      5                      6
                     A'                     A"                     A'
 Frequencies --    893.9857               969.9214              1141.5716
 Red. masses --      1.7941                 1.8469                 2.4491
 Frc consts  --      0.8448                 1.0237                 1.8804
 IR Inten    --     50.6562                 0.0004                 2.7560

                      7                      8                      9
                     A'                     A'                     A"
 Frequencies --   1237.8063              1266.0499              1365.0206
 Red. masses --      1.0885                 1.5230                 1.0524
 Frc consts  --      0.9827                 1.4383                 1.1554
 IR Inten    --    105.0462                50.1671                30.1227

                     10                     11                     12
                     A'                     A'                     A"
 Frequencies --   1366.8089              1456.4793              2903.0580
 Red. masses --      2.1020                 1.3968                 1.0834
 Frc consts  --      2.3137                 1.7458                 5.3797
 IR Inten    --     30.9215                17.5656                40.4770

                     13                     14                     15
                     A'                     A'                     A'
 Frequencies --   2903.8359              3071.5788              3170.1378
 Red. masses --      1.0476                 1.0878                 1.0962
 Frc consts  --      5.2044                 6.0468                 6.4906
 IR Inten    --    197.8154                22.3600                12.8427

 - Thermochemistry -
 -------------------
 Temperature   298.150 Kelvin.  Pressure   1.00000 Atm.
 Atom     1 has atomic number  6 and mass  12.00000

 Molecular mass:    40.03130 amu.
 Principal axes and moments of inertia in atomic units:
                           1         2         3
     Eigenvalues --    32.73786 170.17333 192.34665
           X            0.19856   0.98009   0.00000
           Y            0.98009  -0.19856   0.00000
           Z            0.00000   0.00000   1.00000
 This molecule is an asymmetric top.
 Rotational symmetry number  1.
 Rotational temperatures (Kelvin)      2.64568     0.50897     0.45030
 Rotational constants (GHZ):          55.12704    10.60531     9.38275
 Zero-point vibrational energy     137887.5 (Joules/Mol)
                                   32.95592 (Kcal/Mol)
 Warning -- explicit consideration of   2 degrees of freedom as
           vibrations may cause significant error
 Vibrational temperatures:    155.34   661.08  1063.70  1286.24  1395.50
          (Kelvin)           1642.46  1780.92  1821.56  1963.96  1966.53
                             2095.55  4176.85  4177.97  4419.31  4561.12

 Zero-point correction=                           0.052519 (Hartree/Particle)
 Thermal correction to Energy=                    0.056592
 Thermal correction to Enthalpy=                  0.057537
 Thermal correction to Gibbs Free Energy=         0.026129
 Sum of electronic and zero-point Energies=           -116.131002
 Sum of electronic and thermal Energies=              -116.126928
 Sum of electronic and thermal Enthalpies=            -116.125984
 Sum of electronic and thermal Free Energies=         -116.157391

                     E (Thermal)             CV                S
                      KCal/Mol        Cal/Mol-Kelvin    Cal/Mol-Kelvin
 Total                   35.512             11.839             66.102
 Electronic               0.000              0.000              2.755
 Translational            0.889              2.981             36.989
 Rotational               0.889              2.981             21.599
 Vibrational             33.735              5.877              4.759
 Vibration     1          0.606              1.943              3.305
 Vibration     2          0.817              1.340              0.768

 Optimization completed.
    -- Stationary point found.
 Normal termination of Gaussian 09 at Thu Jan 24 15:55:00 2019.
