 Gaussian 09, Revision D.01,
 Gaussian 09:  ES64L-G09RevD.01 24-Apr-2013

 ---------------------------
 #p b3lyp/6-311++g(d,p) freq
 ---------------------------

 ---
 min
 ---
 Symbolic Z-matrix:
 Charge =  0 Multiplicity = 1

                         Standard orientation:
 ---------------------------------------------------------------------
 Center     Atomic      Atomic             Coordinates (Angstroms)
 Number     Number       Type             X           Y           Z
 ---------------------------------------------------------------------
      1          6           0       -1.083823   -0.661309   -0.000016
      2          6           0        0.208173    0.047923   -0.000120
      3          6           0       -0.798530    0.857981    0.000064
      4          1           0        2.007177    0.628744   -0.000398
      5          1           0       -1.440122   -1.140104    0.914796
      6          1           0       -1.440496   -1.139961   -0.914753
      7          1           0       -1.247284    1.833450    0.000114
      8          8           0        1.520726   -0.206212    0.000084
 ---------------------------------------------------------------------

 SCF Done:  E(RB3LYP) =  -191.902115699     A.U. after   11 cycles

 The electronic state is 1-A.
 Alpha  occ. eigenvalues --  -19.18287 -10.24486 -10.18643 -10.17663  -1.09023
 Alpha  occ. eigenvalues --   -0.87371  -0.62536  -0.60628  -0.52882  -0.46381
 Alpha  occ. eigenvalues --   -0.45764  -0.38892  -0.34168  -0.31174  -0.23635
 Alpha virt. eigenvalues --   -0.01928   0.01006   0.01401   0.01613   0.03974
 Alpha virt. eigenvalues --    0.06225   0.06878   0.07344   0.08503   0.09483
 Alpha virt. eigenvalues --    0.10596   0.11455   0.12741   0.14141   0.15224

 Mulliken charges:
               1
     1  C   -0.306172
     2  C   -0.098499
     3  C    0.020633
     4  H    0.269027
     5  H    0.105388
     6  H    0.105376
     7  H    0.157069
     8  O   -0.252822
 Sum of Mulliken charges =  -0.00000

 Dipole moment (field-independent basis, Debye):
    X=              0.5591    Y=              1.6691    Z=             -0.0008  Tot=              1.7602
 Quadrupole moment (field-independent basis, Debye-Ang):
   XX=            -22.2395   YY=            -22.7707   ZZ=            -25.0977
   XY=              2.9671   XZ=             -0.0020   YZ=             -0.0006

  Exact polarizability:  45.481   0.422  41.669  -0.001  -0.004  29.056
 Approx polarizability:  66.881  -6.020  61.063  -0.003   0.001  38.938

                      1                      2                      3
                      A                      A                      A
 Frequencies --    336.7258               419.7670               467.4673
 Red. masses --      1.6434                 3.4173                 1.3779
 Frc consts  --      0.1098                 0.3548                 0.1774
 IR Inten    --     88.1324                19.8297                63.4010

                      4                      5                      6
                      A                      A                      A
 Frequencies --    675.3422               689.8818               949.5120
 Red. masses --      1.6761                 3.4037                 1.3518
 Frc consts  --      0.4504                 0.9544                 0.7181
 IR Inten    --     46.3207                 3.7238                20.7080

                      7                      8                      9
                      A                      A                      A
 Frequencies --   1001.5926              1019.8843              1066.5039
 Red. masses --      1.1119                 4.8883                 1.3764
 Frc consts  --      0.6572                 2.9958                 0.9224
 IR Inten    --      0.6217               111.9210                 6.9310

                     10                     11                     12
                      A                      A                      A
 Frequencies --   1107.4288              1161.6706              1376.0526
 Red. masses --      1.2967                 2.1540                 2.0608
 Frc consts  --      0.9370                 1.7126                 2.2991
 IR Inten    --      0.6653               108.1625                 5.7560

                     13                     14                     15
                      A                      A                      A
 Frequencies --   1521.0267              1868.5317              3018.4434
 Red. masses --      1.0969                 7.2534                 1.0469
 Frc consts  --      1.4951                14.9208                 5.6197
 IR Inten    --     10.7280               219.9719                80.4826

                     16                     17                     18
                      A                      A                      A
 Frequencies --   3079.6756              3301.6930              3782.8955
 Red. masses --      1.1175                 1.1175                 1.0655
 Frc consts  --      6.2444                 7.1775                 8.9839
 IR Inten    --     51.6542                 9.5474                52.4775

 - Thermochemistry -
 -------------------
 Temperature   298.150 Kelvin.  Pressure   1.00000 Atm.
 Atom     1 has atomic number  6 and mass  12.00000

 Molecular mass:    56.02621 amu.
 Principal axes and moments of inertia in atomic units:
                           1         2         3
     Eigenvalues --    81.33893 252.75959 322.05174
           X            0.99891   0.04657  -0.00001
           Y           -0.04657   0.99891  -0.00001
           Z            0.00001   0.00001   1.00000
 This molecule is an asymmetric top.
 Rotational symmetry number  1.
 Rotational temperatures (Kelvin)      1.06485     0.34267     0.26894
 Rotational constants (GHZ):          22.18791     7.14015     5.60389
 Zero-point vibrational energy     160563.3 (Joules/Mol)
                                   38.37556 (Kcal/Mol)
 Warning -- explicit consideration of   3 degrees of freedom as
           vibrations may cause significant error
 Vibrational temperatures:    484.47   603.95   672.58   971.67   992.58
          (Kelvin)           1366.13  1441.07  1467.38  1534.46  1593.34
                             1671.38  1979.83  2188.42  2688.40  4342.86
                             4430.96  4750.39  5442.74

 Zero-point correction=                           0.061155 (Hartree/Particle)
 Thermal correction to Energy=                    0.065345
 Thermal correction to Enthalpy=                  0.066289
 Thermal correction to Gibbs Free Energy=         0.035203
 Sum of electronic and zero-point Energies=           -191.840960
 Sum of electronic and thermal Energies=              -191.836770
 Sum of electronic and thermal Enthalpies=            -191.835826
 Sum of electronic and thermal Free Energies=         -191.866913

                     E (Thermal)             CV                S
                      KCal/Mol        Cal/Mol-Kelvin    Cal/Mol-Kelvin
 Total                   41.005             14.226             65.427
 Electronic               0.000              0.000              0.000
 Translational            0.889              2.981             37.991
 Rotational               0.889              2.981             23.408
 Vibrational             39.227              8.264              4.027
 Vibration     1          0.717              1.602              1.228
 Vibration     2          0.782              1.427              0.893
 Vibration     3          0.825              1.322              0.745

 Optimization completed.
    -- Stationary point found.
 Normal termination of Gaussian 09 at Sun Mar  4 21:19:11 2018.
