 Gaussian 09, Revision D.01,
 Gaussian 09:  ES64L-G09RevD.01 24-Apr-2013

 ---------------------------
 #p b3lyp/6-311++g(d,p) freq
 ---------------------------

 ---
 min
 ---
 Symbolic Z-matrix:
 Charge =  1 Multiplicity = 4

                         Standard orientation:
 ---------------------------------------------------------------------
 Center     Atomic      Atomic             Coordinates (Angstroms)
 Number     Number       Type             X           Y           Z
 ---------------------------------------------------------------------
      1          6           0        1.708007   -0.369515   -0.330387
      2          6           0       -0.575189    0.686275   -0.210311
      3          6           0        0.720133    0.249312    0.406162
      4          1           0       -1.552568   -0.780412    0.779862
      5          1           0       -1.120716    1.428090    0.371101
      6          1           0       -0.529271    0.928711   -1.267630
      7          1           0        0.827726    0.272727    1.494602
      8          8           0       -1.092860   -0.655693   -0.071340
 ---------------------------------------------------------------------

 SCF Done:  E(UB3LYP) =  -191.419055120     A.U. after   16 cycles

 The electronic state is 4-A.
 Alpha  occ. eigenvalues --  -19.43971 -10.53631 -10.51524 -10.48289  -1.32510
 Alpha  occ. eigenvalues --   -1.07938  -0.95035  -0.82507  -0.78131  -0.72805
 Alpha  occ. eigenvalues --   -0.70222  -0.64666  -0.61221  -0.60817  -0.55615
 Alpha  occ. eigenvalues --   -0.49119
 Alpha virt. eigenvalues --   -0.29896  -0.18968  -0.15190  -0.13731  -0.11630
 Alpha virt. eigenvalues --   -0.10201  -0.09476  -0.08048  -0.07218  -0.05174
 Alpha virt. eigenvalues --   -0.04931  -0.04006  -0.02816  -0.02249  -0.01682

  Beta  occ. eigenvalues --  -19.42925 -10.50971 -10.49507 -10.48138  -1.30269
  Beta  occ. eigenvalues --   -1.03718  -0.91789  -0.79860  -0.75737  -0.70486
  Beta  occ. eigenvalues --   -0.67886  -0.60513  -0.56437
  Beta virt. eigenvalues --   -0.42184  -0.41663  -0.29570  -0.22607  -0.18336
  Beta virt. eigenvalues --   -0.14683  -0.13444  -0.10907  -0.09855  -0.08806
  Beta virt. eigenvalues --   -0.07349  -0.06529  -0.04710  -0.04434  -0.03524

 Mulliken charges and spin densities:
               1          2
     1  C    0.377726   2.247490
     2  C   -0.402297   0.078032
     3  C   -0.010021   0.274733
     4  H    0.318601  -0.007157
     5  H    0.248295   0.011835
     6  H    0.264547   0.003129
     7  H    0.258776   0.057999
     8  O   -0.055627   0.333939
 Sum of Mulliken charges =   1.00000   3.00000

 Dipole moment (field-independent basis, Debye):
    X=              0.3954    Y=              1.1483    Z=              1.7103  Tot=              2.0976
 Quadrupole moment (field-independent basis, Debye-Ang):
   XX=            -12.4018   YY=            -19.8654   ZZ=            -17.5880
   XY=             -0.9590   XZ=             -2.6458   YZ=             -1.1451

  Exact polarizability:  57.610   0.250  29.734  -1.375   1.786  29.575
 Approx polarizability:  89.027   4.678  44.314  -3.372   5.671  41.979

                      1                      2                      3
                      A                      A                      A
 Frequencies --    169.1002               316.4308               449.7927
 Red. masses --      3.9750                 4.2989                 2.9539
 Frc consts  --      0.0670                 0.2536                 0.3521
 IR Inten    --      2.0241                25.6213                 4.3544

                      4                      5                      6
                      A                      A                      A
 Frequencies --    535.4553               822.0378               912.5306
 Red. masses --      1.1250                 1.7503                 3.0081
 Frc consts  --      0.1900                 0.6969                 1.4758
 IR Inten    --     82.1469                23.9138                 7.5094

                      7                      8                      9
                      A                      A                      A
 Frequencies --    985.5077              1044.1508              1127.7081
 Red. masses --      1.7622                 1.6327                 1.5437
 Frc consts  --      1.0084                 1.0488                 1.1567
 IR Inten    --      0.6171                64.3613                14.9368

                     10                     11                     12
                      A                      A                      A
 Frequencies --   1263.2142              1309.1160              1327.0348
 Red. masses --      1.2878                 1.2566                 1.2820
 Frc consts  --      1.2108                 1.2688                 1.3302
 IR Inten    --      1.5540                52.5961                16.0600

                     13                     14                     15
                      A                      A                      A
 Frequencies --   1382.2874              1495.8761              3086.6298
 Red. masses --      3.4755                 1.0918                 1.0875
 Frc consts  --      3.9126                 1.4395                 6.1043
 IR Inten    --     34.8481                 4.1969                16.5857

                     16                     17                     18
                      A                      A                      A
 Frequencies --   3105.7116              3196.2610              3686.8663
 Red. masses --      1.0585                 1.1161                 1.0683
 Frc consts  --      6.0153                 6.7177                 8.5558
 IR Inten    --      1.5614                 5.8227               311.1808

 - Thermochemistry -
 -------------------
 Temperature   298.150 Kelvin.  Pressure   1.00000 Atm.
 Atom     1 has atomic number  6 and mass  12.00000

 Molecular mass:    56.02621 amu.
 Principal axes and moments of inertia in atomic units:
                           1         2         3
     Eigenvalues --    96.22619 276.07851 312.12302
           X            0.99989  -0.01396   0.00461
           Y            0.01429   0.99674  -0.07944
           Z           -0.00349   0.07949   0.99683
 This molecule is an asymmetric top.
 Rotational symmetry number  1.
 Rotational temperatures (Kelvin)      0.90011     0.31373     0.27750
 Rotational constants (GHZ):          18.75520     6.53706     5.78215
 Zero-point vibrational energy     156804.8 (Joules/Mol)
                                   37.47724 (Kcal/Mol)
 Warning -- explicit consideration of   4 degrees of freedom as
           vibrations may cause significant error
 Vibrational temperatures:    243.30   455.27   647.15   770.40  1182.73
          (Kelvin)           1312.93  1417.92  1502.30  1622.52  1817.48
                             1883.52  1909.30  1988.80  2152.23  4440.97
                             4468.42  4598.70  5304.57

 Zero-point correction=                           0.059724 (Hartree/Particle)
 Thermal correction to Energy=                    0.064293
 Thermal correction to Enthalpy=                  0.065237
 Thermal correction to Gibbs Free Energy=         0.031886
 Sum of electronic and zero-point Energies=           -191.359331
 Sum of electronic and thermal Energies=              -191.354762
 Sum of electronic and thermal Enthalpies=            -191.353818
 Sum of electronic and thermal Free Energies=         -191.387169

                     E (Thermal)             CV                S
                      KCal/Mol        Cal/Mol-Kelvin    Cal/Mol-Kelvin
 Total                   40.345             14.732             70.193
 Electronic               0.000              0.000              2.755
 Translational            0.889              2.981             37.991
 Rotational               0.889              2.981             23.632
 Vibrational             38.567              8.771              5.815
 Vibration     1          0.625              1.881              2.445
 Vibration     2          0.703              1.642              1.328
 Vibration     3          0.809              1.361              0.796
 Vibration     4          0.890              1.172              0.575

 Normal termination of Gaussian 09 at Thu Jan 24 15:59:57 2019.
