 Gaussian 09, Revision D.01,
 Gaussian 09:  ES64L-G09RevD.01 24-Apr-2013

 ---------------------------
 #p b3lyp/6-311++g(d,p) freq
 ---------------------------

 ---
 min
 ---
 Symbolic Z-matrix:
 Charge =  0 Multiplicity = 3

                         Standard orientation:
 ---------------------------------------------------------------------
 Center     Atomic      Atomic             Coordinates (Angstroms)
 Number     Number       Type             X           Y           Z
 ---------------------------------------------------------------------
      1          6           0       -1.187437   -0.178481    0.000107
      2          1           0       -1.326425   -1.252686    0.000002
      3          1           0       -2.069328    0.448563    0.000271
      4          6           0        0.080409    0.378085    0.000034
      5          1           0        2.312026   -0.047584   -0.000252
      6          1           0        0.148370    1.471897    0.000148
      7          6           0        1.262921   -0.302969   -0.000169
 ---------------------------------------------------------------------

 SCF Done:  E(UB3LYP) =  -116.613019559     A.U. after   13 cycles

 The electronic state is 3-A.
 Alpha  occ. eigenvalues --  -10.20898 -10.19293 -10.18631  -0.80937  -0.69099
 Alpha  occ. eigenvalues --   -0.55827  -0.49712  -0.43705  -0.39549  -0.33932
 Alpha  occ. eigenvalues --   -0.25662  -0.21336
 Alpha virt. eigenvalues --   -0.00213   0.01436   0.01445   0.01961   0.04383
 Alpha virt. eigenvalues --    0.06656   0.07597   0.09537   0.09659   0.10388
 Alpha virt. eigenvalues --    0.11722   0.12627   0.12769   0.13636   0.14500

  Beta  occ. eigenvalues --  -10.19642 -10.18559 -10.17670  -0.79021  -0.65120
  Beta  occ. eigenvalues --   -0.53485  -0.48477  -0.42374  -0.38414  -0.30543
  Beta virt. eigenvalues --   -0.08857  -0.08600   0.00030   0.01598   0.02143
  Beta virt. eigenvalues --    0.03039   0.04397   0.07935   0.08540   0.09887
  Beta virt. eigenvalues --    0.10568   0.10619   0.11910   0.13014   0.13758

 Mulliken charges and spin densities:
               1          2
     1  C   -0.307619   0.691121
     2  H    0.135200  -0.025462
     3  H    0.118085  -0.032819
     4  C    0.014139  -0.297913
     5  H    0.150402  -0.020555
     6  H    0.148566   0.086751
     7  C   -0.258772   1.598878
 Sum of Mulliken charges =  -0.00000   2.00000

 Dipole moment (field-independent basis, Debye):
    X=              0.0218    Y=              0.7578    Z=              0.0001  Tot=              0.7581
 Quadrupole moment (field-independent basis, Debye-Ang):
   XX=            -16.4839   YY=            -18.4711   ZZ=            -21.8509
   XY=              0.8020   XZ=             -0.0005   YZ=              0.0003

  Exact polarizability:  55.882  -1.192  32.308  -0.003   0.001  25.690
 Approx polarizability:  78.196  -2.555  42.496  -0.005   0.001  32.347

                      1                      2                      3
                      A                      A                      A
 Frequencies --    422.6325               525.6894               562.5034
 Red. masses --      2.1360                 1.1965                 1.2978
 Frc consts  --      0.2248                 0.1948                 0.2419
 IR Inten    --      4.3801                41.2981                 6.9535

                      4                      5                      6
                      A                      A                      A
 Frequencies --    799.2286               819.3627               904.0478
 Red. masses --      1.3197                 1.2193                 1.2797
 Frc consts  --      0.4967                 0.4823                 0.6162
 IR Inten    --     52.7673                16.0122                 7.5030

                      7                      8                      9
                      A                      A                      A
 Frequencies --   1012.5208              1210.3798              1232.9697
 Red. masses --      1.5404                 1.7074                 2.9050
 Frc consts  --      0.9305                 1.4738                 2.6019
 IR Inten    --      0.3763                 3.2133                 2.2587

                     10                     11                     12
                      A                      A                      A
 Frequencies --   1415.2154              1499.5708              3032.2003
 Red. masses --      2.1496                 1.3634                 1.0818
 Frc consts  --      2.5366                 1.8063                 5.8604
 IR Inten    --      1.2759                 3.6255                10.1145

                     13                     14                     15
                      A                      A                      A
 Frequencies --   3146.8224              3240.3040              3245.6204
 Red. masses --      1.0535                 1.0953                 1.1181
 Frc consts  --      6.1466                 6.7754                 6.9396
 IR Inten    --      4.5968                 1.1481                 6.3616

 - Thermochemistry -
 -------------------
 Temperature   298.150 Kelvin.  Pressure   1.00000 Atm.
 Atom     1 has atomic number  6 and mass  12.00000

 Molecular mass:    40.03130 amu.
 Principal axes and moments of inertia in atomic units:
                           1         2         3
     Eigenvalues --    25.50819 170.09241 195.60060
           X            0.99979   0.02028   0.00011
           Y           -0.02028   0.99979  -0.00011
           Z           -0.00011   0.00011   1.00000
 This molecule is an asymmetric top.
 Rotational symmetry number  1.
 Rotational temperatures (Kelvin)      3.39553     0.50922     0.44281
 Rotational constants (GHZ):          70.75145    10.61036     9.22667
 Zero-point vibrational energy     137983.7 (Joules/Mol)
                                   32.97889 (Kcal/Mol)
 Warning -- explicit consideration of   3 degrees of freedom as
           vibrations may cause significant error
 Vibrational temperatures:    608.07   756.35   809.32  1149.91  1178.88
          (Kelvin)           1300.72  1456.79  1741.46  1773.97  2036.18
                             2157.55  4362.65  4527.57  4662.07  4669.72

 Zero-point correction=                           0.052555 (Hartree/Particle)
 Thermal correction to Energy=                    0.056346
 Thermal correction to Enthalpy=                  0.057290
 Thermal correction to Gibbs Free Energy=         0.027229
 Sum of electronic and zero-point Energies=           -116.560464
 Sum of electronic and thermal Energies=              -116.556674
 Sum of electronic and thermal Enthalpies=            -116.555729
 Sum of electronic and thermal Free Energies=         -116.585791

                     E (Thermal)             CV                S
                      KCal/Mol        Cal/Mol-Kelvin    Cal/Mol-Kelvin
 Total                   35.358             12.376             63.269
 Electronic               0.000              0.000              2.183
 Translational            0.889              2.981             36.989
 Rotational               0.889              2.981             21.367
 Vibrational             33.580              6.415              2.730
 Vibration     1          0.785              1.421              0.883
 Vibration     2          0.881              1.193              0.597
 Vibration     3          0.918              1.112              0.519

 Optimization completed.
    -- Stationary point found.
 Normal termination of Gaussian 09 at Sun Mar  4 21:09:55 2018.
