 Gaussian 09, Revision D.01,
 Gaussian 09:  ES64L-G09RevD.01 24-Apr-2013

 ---------------------------
 #p b3lyp/6-311++g(d,p) freq
 ---------------------------

 ---
 min
 ---
 Symbolic Z-matrix:
 Charge =  0 Multiplicity = 3

                         Standard orientation:
 ---------------------------------------------------------------------
 Center     Atomic      Atomic             Coordinates (Angstroms)
 Number     Number       Type             X           Y           Z
 ---------------------------------------------------------------------
      1          6           0       -1.282044   -0.085224   -0.000017
      2          1           0       -2.125473    0.596478   -0.000108
      3          1           0       -1.512705   -1.152978    0.000094
      4          6           0        0.000000    0.355948   -0.000039
      5          6           0        1.282044   -0.085224    0.000036
      6          1           0        1.512705   -1.152978    0.000156
      7          1           0        2.125473    0.596478   -0.000021
 ---------------------------------------------------------------------

 SCF Done:  E(UB3LYP) =  -116.616721184     A.U. after   11 cycles

 The electronic state is 3-A.
 Alpha  occ. eigenvalues --  -10.20188 -10.19467 -10.19462  -0.80909  -0.71140
 Alpha  occ. eigenvalues --   -0.54671  -0.47583  -0.46285  -0.42198  -0.34351
 Alpha  occ. eigenvalues --   -0.22616  -0.21782
 Alpha virt. eigenvalues --   -0.00291   0.01476   0.02081   0.02223   0.04426
 Alpha virt. eigenvalues --    0.05909   0.07268   0.09379   0.10036   0.11392
 Alpha virt. eigenvalues --    0.12368   0.13198   0.13671   0.14313   0.15131

  Beta  occ. eigenvalues --  -10.19040 -10.18625 -10.18618  -0.77639  -0.68265
  Beta  occ. eigenvalues --   -0.52249  -0.45038  -0.44636  -0.40873  -0.30028
  Beta virt. eigenvalues --   -0.10493  -0.08153   0.00034   0.01593   0.02375
  Beta virt. eigenvalues --    0.03662   0.04486   0.06150   0.09392   0.10235
  Beta virt. eigenvalues --    0.10366   0.11350   0.13051   0.13751   0.14588

 Mulliken charges and spin densities:
               1          2
     1  C   -0.459486   0.632879
     2  H    0.149123  -0.009766
     3  H    0.124790   0.058823
     4  C    0.371144   0.636127
     5  C   -0.459486   0.632879
     6  H    0.124790   0.058823
     7  H    0.149123  -0.009766
 Sum of Mulliken charges =  -0.00000   2.00000

 Dipole moment (field-independent basis, Debye):
    X=              0.0000    Y=             -0.6561    Z=              0.0001  Tot=              0.6561
 Quadrupole moment (field-independent basis, Debye-Ang):
   XX=            -16.2122   YY=            -18.5145   ZZ=            -21.8144
   XY=              0.0000   XZ=              0.0001   YZ=             -0.0004

  Exact polarizability:  62.449   0.000  31.741   0.001  -0.001  25.862
 Approx polarizability:  92.337   0.000  41.316   0.001  -0.001  32.533

                      1                      2                      3
                      A                      A                      A
 Frequencies --    305.2575               442.6169               741.9516
 Red. masses --      2.0649                 1.7381                 1.0627
 Frc consts  --      0.1134                 0.2006                 0.3447
 IR Inten    --      2.8742                15.1058                 0.0000

                      4                      5                      6
                      A                      A                      A
 Frequencies --    766.3736               767.9314               900.5086
 Red. masses --      1.2362                 1.4370                 1.2286
 Frc consts  --      0.4278                 0.4993                 0.5870
 IR Inten    --      0.0000                92.4221                 0.1538

                      7                      8                      9
                      A                      A                      A
 Frequencies --   1017.2690              1135.0448              1393.0458
 Red. masses --      1.8586                 2.7283                 1.4529
 Frc consts  --      1.1332                 2.0709                 1.6612
 IR Inten    --      0.6685                 3.3297                12.0228

                     10                     11                     12
                      A                      A                      A
 Frequencies --   1456.2482              1470.9140              3050.9078
 Red. masses --      1.2397                 2.9589                 1.0588
 Frc consts  --      1.5489                 3.7718                 5.8069
 IR Inten    --      1.3957                 0.0517                 5.8011

                     13                     14                     15
                      A                      A                      A
 Frequencies --   3059.8115              3180.4188              3181.2999
 Red. masses --      1.0612                 1.1013                 1.1034
 Frc consts  --      5.8539                 6.5634                 6.5796
 IR Inten    --     17.1709                 0.4447                 4.6993

 - Thermochemistry -
 -------------------
 Temperature   298.150 Kelvin.  Pressure   1.00000 Atm.
 Atom     1 has atomic number  6 and mass  12.00000

 Molecular mass:    40.03130 amu.
 Principal axes and moments of inertia in atomic units:
                           1         2         3
     Eigenvalues --    18.07282 189.85776 207.93058
           X            1.00000   0.00000  -0.00002
           Y            0.00000   1.00000   0.00011
           Z            0.00002  -0.00011   1.00000
 This molecule is an asymmetric top.
 Rotational symmetry number  1.
 Rotational temperatures (Kelvin)      4.79249     0.45620     0.41655
 Rotational constants (GHZ):          99.85944     9.50575     8.67954
 Zero-point vibrational energy     136790.6 (Joules/Mol)
                                   32.69373 (Kcal/Mol)
 Warning -- explicit consideration of   2 degrees of freedom as
           vibrations may cause significant error
 Vibrational temperatures:    439.20   636.83  1067.50  1102.64  1104.88
          (Kelvin)           1295.63  1463.62  1633.07  2004.28  2095.21
                             2116.31  4389.57  4402.38  4575.91  4577.18

 Zero-point correction=                           0.052101 (Hartree/Particle)
 Thermal correction to Energy=                    0.056020
 Thermal correction to Enthalpy=                  0.056964
 Thermal correction to Gibbs Free Energy=         0.026731
 Sum of electronic and zero-point Energies=           -116.564620
 Sum of electronic and thermal Energies=              -116.560701
 Sum of electronic and thermal Enthalpies=            -116.559757
 Sum of electronic and thermal Free Energies=         -116.589990

                     E (Thermal)             CV                S
                      KCal/Mol        Cal/Mol-Kelvin    Cal/Mol-Kelvin
 Total                   35.153             12.555             63.631
 Electronic               0.000              0.000              2.183
 Translational            0.889              2.981             36.989
 Rotational               0.889              2.981             21.195
 Vibrational             33.376              6.593              3.265
 Vibration     1          0.696              1.664              1.388
 Vibration     2          0.802              1.377              0.818

 Optimization completed.
    -- Stationary point found.
 Normal termination of Gaussian 09 at Sun Mar  4 21:10:12 2018.
