 Gaussian 09, Revision D.01,
 Gaussian 09:  ES64L-G09RevD.01 24-Apr-2013

 ---------------------------
 #p b3lyp/6-311++g(d,p) freq
 ---------------------------

 ---
 min
 ---
 Symbolic Z-matrix:
 Charge =  1 Multiplicity = 2

                         Standard orientation:
 ---------------------------------------------------------------------
 Center     Atomic      Atomic             Coordinates (Angstroms)
 Number     Number       Type             X           Y           Z
 ---------------------------------------------------------------------
      1          6           0       -0.776149   -0.756471   -0.000000
      2          1           0       -0.178033   -1.664415    0.000000
      3          1           0       -1.465886   -0.725299    0.865844
      4          1           0       -1.465886   -0.725299   -0.865844
      5          6           0       -0.000000    0.490068   -0.000000
      6          6           0        1.378532    0.540440    0.000000
      7          1           0       -0.504487    1.470788   -0.000000
 ---------------------------------------------------------------------

 SCF Done:  E(UB3LYP) =  -116.236378526     A.U. after   16 cycles

 The electronic state is 2-A".
 Alpha  occ. eigenvalues --  -10.58007 -10.52754 -10.44987  -1.12163  -0.97738
 Alpha  occ. eigenvalues --   -0.81837  -0.72396  -0.69867  -0.66361  -0.58928
 Alpha  occ. eigenvalues --   -0.58866
 Alpha virt. eigenvalues --   -0.39699  -0.31309  -0.17600  -0.15069  -0.12865
 Alpha virt. eigenvalues --   -0.11719  -0.10639  -0.09414  -0.09247  -0.06608
 Alpha virt. eigenvalues --   -0.06572  -0.05138  -0.03179  -0.02335  -0.01415

  Beta  occ. eigenvalues --  -10.57241 -10.52183 -10.44937  -1.09728  -0.96200
  Beta  occ. eigenvalues --   -0.80905  -0.71587  -0.67217  -0.65957  -0.57623
  Beta virt. eigenvalues --   -0.47178  -0.38756  -0.25563  -0.17438  -0.14918
  Beta virt. eigenvalues --   -0.12608  -0.11538  -0.10351  -0.09165  -0.08899
  Beta virt. eigenvalues --   -0.06479  -0.06230  -0.04838  -0.03114  -0.02254

 Mulliken charges and spin densities:
               1          2
     1  C   -0.630781  -0.003315
     2  H    0.234244  -0.002283
     3  H    0.266140   0.055136
     4  H    0.266140   0.055136
     5  C    0.212584   0.442089
     6  C    0.336228   0.472555
     7  H    0.315446  -0.019318
 Sum of Mulliken charges =   1.00000   1.00000

 Dipole moment (field-independent basis, Debye):
    X=             -1.6575    Y=              0.6466    Z=              0.0000  Tot=              1.7791
 Quadrupole moment (field-independent basis, Debye-Ang):
   XX=            -14.1848   YY=            -11.3498   ZZ=            -15.9088
   XY=              1.2054   XZ=             -0.0000   YZ=             -0.0000

  Exact polarizability:  40.138   7.323  30.939  -0.000  -0.000  29.526
 Approx polarizability:  60.738  10.447  44.099   0.000  -0.000  32.493

                      1                      2                      3
                     A"                     A'                     A"
 Frequencies --    129.8146               180.8122               454.0033
 Red. masses --      1.2653                 4.6036                 1.6733
 Frc consts  --      0.0126                 0.0887                 0.2032
 IR Inten    --      0.4461                 6.9872               125.4200

                      4                      5                      6
                     A"                     A'                     A'
 Frequencies --    770.9616               893.9564               963.5960
 Red. masses --      1.1267                 1.3567                 2.3441
 Frc consts  --      0.3946                 0.6388                 1.2824
 IR Inten    --     54.6177                63.3667                22.7482

                      7                      8                      9
                     A'                     A'                     A"
 Frequencies --   1143.4932              1235.0983              1366.8914
 Red. masses --      1.5398                 1.1452                 1.0545
 Frc consts  --      1.1862                 1.0292                 1.1608
 IR Inten    --      2.9201                77.1204                16.7896

                     10                     11                     12
                     A'                     A'                     A'
 Frequencies --   1435.3434              1477.1917              2922.9891
 Red. masses --      1.5619                 2.0823                 1.0432
 Frc consts  --      1.8958                 2.6771                 5.2515
 IR Inten    --     24.1947                94.0208               177.0486

                     13                     14                     15
                     A"                     A'                     A'
 Frequencies --   2928.6714              3018.6029              3165.7977
 Red. masses --      1.0834                 1.0819                 1.0979
 Frc consts  --      5.4752                 5.8085                 6.4828
 IR Inten    --    109.9021                86.6307                17.5628

 - Thermochemistry -
 -------------------
 Temperature   298.150 Kelvin.  Pressure   1.00000 Atm.
 Atom     1 has atomic number  6 and mass  12.00000

 Molecular mass:    40.03130 amu.
 Principal axes and moments of inertia in atomic units:
                           1         2         3
     Eigenvalues --    32.83425 169.19391 191.23564
           X            0.83539  -0.54966   0.00000
           Y            0.54966   0.83539   0.00000
           Z           -0.00000   0.00000   1.00000
 This molecule is an asymmetric top.
 Rotational symmetry number  1.
 Rotational temperatures (Kelvin)      2.63791     0.51192     0.45292
 Rotational constants (GHZ):          54.96521    10.66670     9.43726
 Zero-point vibrational energy     132110.9 (Joules/Mol)
                                   31.57527 (Kcal/Mol)
 Warning -- explicit consideration of   3 degrees of freedom as
           vibrations may cause significant error
 Vibrational temperatures:    186.77   260.15   653.21  1109.24  1286.20
          (Kelvin)           1386.40  1645.23  1777.03  1966.65  2065.14
                             2125.35  4205.52  4213.70  4343.09  4554.87

 Zero-point correction=                           0.050318 (Hartree/Particle)
 Thermal correction to Energy=                    0.054923
 Thermal correction to Enthalpy=                  0.055867
 Thermal correction to Gibbs Free Energy=         0.024209
 Sum of electronic and zero-point Energies=           -116.186060
 Sum of electronic and thermal Energies=              -116.181456
 Sum of electronic and thermal Enthalpies=            -116.180512
 Sum of electronic and thermal Free Energies=         -116.212170

                     E (Thermal)             CV                S
                      KCal/Mol        Cal/Mol-Kelvin    Cal/Mol-Kelvin
 Total                   34.465             13.452             66.630
 Electronic               0.000              0.000              1.377
 Translational            0.889              2.981             36.989
 Rotational               0.889              2.981             21.590
 Vibrational             32.687              7.490              6.673
 Vibration     1          0.612              1.923              2.949
 Vibration     2          0.630              1.866              2.320
 Vibration     3          0.812              1.352              0.784

 Optimization completed.
    -- Stationary point found.
 Normal termination of Gaussian 09 at Thu Jan 24 15:54:00 2019.
