 Gaussian 09, Revision D.01,
 Gaussian 09:  ES64L-G09RevD.01 24-Apr-2013

 ---------------------------
 #p b3lyp/6-311++g(d,p) freq
 ---------------------------

 ---
 min
 ---
 Symbolic Z-matrix:
 Charge =  1 Multiplicity = 2

                         Standard orientation:
 ---------------------------------------------------------------------
 Center     Atomic      Atomic             Coordinates (Angstroms)
 Number     Number       Type             X           Y           Z
 ---------------------------------------------------------------------
      1          6           0        1.531049   -0.758532   -0.143250
      2          6           0       -0.434004    0.093112    0.484538
      3          6           0        0.845837    0.538237   -0.102424
      4          1           0       -1.487655    0.096543   -1.118737
      5          1           0        0.827136    1.096635   -1.049847
      6          1           0       -0.499753   -0.179817    1.534825
      7          1           0        1.455124    1.102626    0.635523
      8          8           0       -1.494018   -0.169111   -0.179368
 ---------------------------------------------------------------------

 SCF Done:  E(UB3LYP) =  -191.495197598     A.U. after   20 cycles

 The electronic state is 2-A.
 Alpha  occ. eigenvalues --  -19.46478 -10.55848 -10.52045 -10.45631  -1.38706
 Alpha  occ. eigenvalues --   -1.08993  -0.94972  -0.83255  -0.79649  -0.77156
 Alpha  occ. eigenvalues --   -0.69674  -0.68101  -0.63904  -0.54592  -0.47224
 Alpha virt. eigenvalues --   -0.35232  -0.31605  -0.20070  -0.16123  -0.14719
 Alpha virt. eigenvalues --   -0.12067  -0.11340  -0.10386  -0.06716  -0.06324
 Alpha virt. eigenvalues --   -0.05802  -0.05401  -0.04108  -0.03201  -0.02551

  Beta  occ. eigenvalues --  -19.46225 -10.55498 -10.50909 -10.45712  -1.38194
  Beta  occ. eigenvalues --   -1.07921  -0.94329  -0.81027  -0.78785  -0.76699
  Beta  occ. eigenvalues --   -0.68366  -0.67298  -0.63415  -0.52852
  Beta virt. eigenvalues --   -0.35555  -0.33820  -0.26736  -0.19933  -0.16070
  Beta virt. eigenvalues --   -0.14540  -0.11833  -0.10997  -0.10054  -0.06374
  Beta virt. eigenvalues --   -0.06098  -0.05662  -0.05183  -0.03860  -0.03106

 Mulliken charges and spin densities:
               1          2
     1  C    0.266536   0.731687
     2  C   -0.003975   0.257362
     3  C   -0.383438  -0.100295
     4  H    0.320539   0.000144
     5  H    0.249114   0.042076
     6  H    0.261955  -0.010124
     7  H    0.289092   0.007940
     8  O    0.000178   0.071211
 Sum of Mulliken charges =   1.00000   1.00000

 Dipole moment (field-independent basis, Debye):
    X=              0.1439    Y=              2.4595    Z=             -0.5954  Tot=              2.5346
 Quadrupole moment (field-independent basis, Debye-Ang):
   XX=            -17.8504   YY=            -22.1688   ZZ=            -15.4387
   XY=              2.5141   XZ=              2.7301   YZ=             -0.5142

  Exact polarizability:  53.856  -5.139  30.877  -2.355   0.437  31.485
 Approx polarizability:  88.055 -13.389  47.260  -4.321   4.021  46.154

                      1                      2                      3
                      A                      A                      A
 Frequencies --    153.6086               320.7448               429.5029
 Red. masses --      6.5688                 2.3012                 1.4594
 Frc consts  --      0.0913                 0.1395                 0.1586
 IR Inten    --     23.4663                22.3510                 2.8594

                      4                      5                      6
                      A                      A                      A
 Frequencies --    514.4221               679.7204               855.1885
 Red. masses --      2.2478                 1.5782                 3.6528
 Frc consts  --      0.3505                 0.4296                 1.5740
 IR Inten    --      2.6129                57.3091                24.6238

                      7                      8                      9
                      A                      A                      A
 Frequencies --    965.2449              1017.5465              1051.8802
 Red. masses --      1.2836                 1.9133                 1.2756
 Frc consts  --      0.7046                 1.1672                 0.8316
 IR Inten    --     86.1244                15.5179                13.2964

                     10                     11                     12
                      A                      A                      A
 Frequencies --   1140.5451              1269.8495              1313.6036
 Red. masses --      1.4155                 1.4290                 1.1219
 Frc consts  --      1.0849                 1.3576                 1.1406
 IR Inten    --    134.0904               136.2249                36.6402

                     13                     14                     15
                      A                      A                      A
 Frequencies --   1414.6902              1551.6689              2922.6207
 Red. masses --      1.3838                 4.2360                 1.0657
 Frc consts  --      1.6317                 6.0091                 5.3631
 IR Inten    --     18.8886               285.5197                92.9027

                     16                     17                     18
                      A                      A                      A
 Frequencies --   3020.7356              3186.7694              3665.3442
 Red. masses --      1.0929                 1.0936                 1.0667
 Frc consts  --      5.8759                 6.5434                 8.4433
 IR Inten    --     20.4650                28.8989               218.5470

 - Thermochemistry -
 -------------------
 Temperature   298.150 Kelvin.  Pressure   1.00000 Atm.
 Atom     1 has atomic number  6 and mass  12.00000

 Molecular mass:    56.02621 amu.
 Principal axes and moments of inertia in atomic units:
                           1         2         3
     Eigenvalues --    78.90985 317.07644 333.80764
           X            0.99923   0.03867   0.00718
           Y           -0.03686   0.98440  -0.17206
           Z           -0.01372   0.17166   0.98506
 This molecule is an asymmetric top.
 Rotational symmetry number  1.
 Rotational temperatures (Kelvin)      1.09763     0.27316     0.25947
 Rotational constants (GHZ):          22.87092     5.69182     5.40653
 Zero-point vibrational energy     152366.5 (Joules/Mol)
                                   36.41646 (Kcal/Mol)
 Warning -- explicit consideration of   4 degrees of freedom as
           vibrations may cause significant error
 Vibrational temperatures:    221.01   461.48   617.96   740.14   977.96
          (Kelvin)           1230.42  1388.77  1464.02  1513.42  1640.99
                             1827.03  1889.98  2035.42  2232.50  4204.99
                             4346.16  4585.04  5273.61

 Zero-point correction=                           0.058033 (Hartree/Particle)
 Thermal correction to Energy=                    0.062740
 Thermal correction to Enthalpy=                  0.063684
 Thermal correction to Gibbs Free Energy=         0.030744
 Sum of electronic and zero-point Energies=           -191.437164
 Sum of electronic and thermal Energies=              -191.432457
 Sum of electronic and thermal Enthalpies=            -191.431513
 Sum of electronic and thermal Free Energies=         -191.464453

                     E (Thermal)             CV                S
                      KCal/Mol        Cal/Mol-Kelvin    Cal/Mol-Kelvin
 Total                   39.370             15.366             69.329
 Electronic               0.000              0.000              1.377
 Translational            0.889              2.981             37.991
 Rotational               0.889              2.981             23.639
 Vibrational             37.593              9.404              6.321
 Vibration     1          0.619              1.899              2.627
 Vibration     2          0.706              1.634              1.306
 Vibration     3          0.791              1.406              0.860
 Vibration     4          0.869              1.218              0.623

 Normal termination of Gaussian 09 at Thu Jan 24 16:00:10 2019.
