 Gaussian 09, Revision D.01,
 Gaussian 09:  ES64L-G09RevD.01 24-Apr-2013

 ---------------------------
 #p b3lyp/6-311++g(d,p) freq
 ---------------------------

 ---
 min
 ---
 Symbolic Z-matrix:
 Charge =  1 Multiplicity = 4

                         Standard orientation:
 ---------------------------------------------------------------------
 Center     Atomic      Atomic             Coordinates (Angstroms)
 Number     Number       Type             X           Y           Z
 ---------------------------------------------------------------------
      1          6           0        2.032434   -0.004830    0.000149
      2          6           0       -0.497297    0.436228   -0.000397
      3          6           0        0.637186   -0.416442   -0.000400
      4          1           0       -1.824504   -0.978063    0.001806
      5          1           0        0.465723   -1.495702   -0.000948
      6          1           0       -0.426211    1.517770   -0.000983
      7          1           0        2.576942    0.931139    0.002041
      8          8           0       -1.728236   -0.008110    0.000247
 ---------------------------------------------------------------------

 SCF Done:  E(UB3LYP) =  -191.492289638     A.U. after   13 cycles

 The electronic state is 4-A.
 Alpha  occ. eigenvalues --  -19.45055 -10.51605 -10.51432 -10.46802  -1.36251
 Alpha  occ. eigenvalues --   -1.07587  -0.94592  -0.87420  -0.79480  -0.74243
 Alpha  occ. eigenvalues --   -0.70096  -0.67398  -0.64054  -0.59497  -0.50678
 Alpha  occ. eigenvalues --   -0.44039
 Alpha virt. eigenvalues --   -0.26122  -0.19451  -0.14598  -0.14520  -0.11725
 Alpha virt. eigenvalues --   -0.10383  -0.09288  -0.07193  -0.05902  -0.05122
 Alpha virt. eigenvalues --   -0.04622  -0.04360  -0.03386  -0.02817  -0.01488

  Beta  occ. eigenvalues --  -19.44196 -10.50961 -10.50612 -10.43939  -1.34485
  Beta  occ. eigenvalues --   -1.03191  -0.91716  -0.83312  -0.77973  -0.72518
  Beta  occ. eigenvalues --   -0.65772  -0.64596  -0.62686
  Beta virt. eigenvalues --   -0.44827  -0.31353  -0.29097  -0.19118  -0.18297
  Beta virt. eigenvalues --   -0.14251  -0.14134  -0.10762  -0.09626  -0.08551
  Beta virt. eigenvalues --   -0.06593  -0.05388  -0.04414  -0.03745  -0.02735

 Mulliken charges and spin densities:
               1          2
     1  C   -0.072883   1.792361
     2  C   -0.285035   0.381895
     3  C    0.301262   0.629180
     4  H    0.309443  -0.008219
     5  H    0.244955  -0.008828
     6  H    0.266584  -0.026052
     7  H    0.233781  -0.028117
     8  O    0.001893   0.267780
 Sum of Mulliken charges =   1.00000   3.00000

 Dipole moment (field-independent basis, Debye):
    X=              0.9220    Y=             -1.0285    Z=              0.0028  Tot=              1.3813
 Quadrupole moment (field-independent basis, Debye-Ang):
   XX=            -13.1312   YY=            -15.0422   ZZ=            -22.6818
   XY=              4.8209   XZ=             -0.0013   YZ=             -0.0020

  Exact polarizability:  63.144  -0.220  30.275   0.003  -0.004  19.405
 Approx polarizability:  90.134  -3.406  40.801  -0.001  -0.002  26.134

                      1                      2                      3
                      A                      A                      A
 Frequencies --    175.5162               290.2438               302.4599
 Red. masses --      2.0677                 1.4391                 2.9425
 Frc consts  --      0.0375                 0.0714                 0.1586
 IR Inten    --      4.2942                34.6056                17.8818

                      4                      5                      6
                      A                      A                      A
 Frequencies --    500.0768               522.6679               812.2726
 Red. masses --      1.4139                 3.3454                 1.6294
 Frc consts  --      0.2083                 0.5385                 0.6334
 IR Inten    --     66.4031                 2.7968                14.8823

                      7                      8                      9
                      A                      A                      A
 Frequencies --    832.8131               893.0689              1087.7509
 Red. masses --      1.4696                 1.1875                 2.2708
 Frc consts  --      0.6005                 0.5580                 1.5830
 IR Inten    --     15.6619                86.9566                76.9806

                     10                     11                     12
                      A                      A                      A
 Frequencies --   1159.1826              1262.5130              1308.1122
 Red. masses --      1.9915                 2.0888                 1.6434
 Frc consts  --      1.5766                 1.9616                 1.6568
 IR Inten    --    291.3393                16.3937                60.2367

                     13                     14                     15
                      A                      A                      A
 Frequencies --   1387.7731              1550.6581              3112.3186
 Red. masses --      1.3422                 3.3253                 1.0880
 Frc consts  --      1.5230                 4.7110                 6.2092
 IR Inten    --     14.0764                 2.0216                12.5570

                     16                     17                     18
                      A                      A                      A
 Frequencies --   3209.9402              3229.5914              3688.5464
 Red. masses --      1.0929                 1.0934                 1.0674
 Frc consts  --      6.6346                 6.7192                 8.5566
 IR Inten    --     31.8963                60.6979               222.0432

 - Thermochemistry -
 -------------------
 Temperature   298.150 Kelvin.  Pressure   1.00000 Atm.
 Atom     1 has atomic number  6 and mass  12.00000

 Molecular mass:    56.02621 amu.
 Principal axes and moments of inertia in atomic units:
                           1         2         3
     Eigenvalues --    38.22631 413.16112 451.38733
           X            0.99964   0.02685   0.00002
           Y           -0.02685   0.99964   0.00001
           Z           -0.00002  -0.00001   1.00000
 This molecule is an asymmetric top.
 Rotational symmetry number  1.
 Rotational temperatures (Kelvin)      2.26582     0.20964     0.19188
 Rotational constants (GHZ):          47.21202     4.36813     3.99821
 Zero-point vibrational energy     151480.2 (Joules/Mol)
                                   36.20463 (Kcal/Mol)
 Warning -- explicit consideration of   5 degrees of freedom as
           vibrations may cause significant error
 Vibrational temperatures:    252.53   417.60   435.17   719.50   752.00
          (Kelvin)           1168.68  1198.23  1284.93  1565.03  1667.80
                             1816.47  1882.08  1996.69  2231.05  4477.93
                             4618.38  4646.66  5306.99

 Zero-point correction=                           0.057696 (Hartree/Particle)
 Thermal correction to Energy=                    0.062691
 Thermal correction to Enthalpy=                  0.063635
 Thermal correction to Gibbs Free Energy=         0.029680
 Sum of electronic and zero-point Energies=           -191.434594
 Sum of electronic and thermal Energies=              -191.429598
 Sum of electronic and thermal Enthalpies=            -191.428654
 Sum of electronic and thermal Free Energies=         -191.462610

                     E (Thermal)             CV                S
                      KCal/Mol        Cal/Mol-Kelvin    Cal/Mol-Kelvin
 Total                   39.339             16.392             71.465
 Electronic               0.000              0.000              2.755
 Translational            0.889              2.981             37.991
 Rotational               0.889              2.981             23.482
 Vibrational             37.562             10.430              7.238
 Vibration     1          0.627              1.873              2.376
 Vibration     2          0.686              1.692              1.473
 Vibration     3          0.694              1.669              1.403
 Vibration     4          0.855              1.250              0.658
 Vibration     5          0.878              1.200              0.604

 Normal termination of Gaussian 09 at Thu Jan 24 15:59:37 2019.
