 Gaussian 09, Revision D.01,
 Gaussian 09:  ES64L-G09RevD.01 24-Apr-2013

 ---------------------------
 #p b3lyp/6-311++g(d,p) freq
 ---------------------------

 ---
 min
 ---
 Symbolic Z-matrix:
 Charge =  0 Multiplicity = 3

                         Standard orientation:
 ---------------------------------------------------------------------
 Center     Atomic      Atomic             Coordinates (Angstroms)
 Number     Number       Type             X           Y           Z
 ---------------------------------------------------------------------
      1          6           0        0.000000   -0.000000    0.927639
      2          6           0       -0.000000    0.814823   -0.257693
      3          6           0       -0.000000   -0.814823   -0.257693
      4          1           0       -0.914431    1.286147   -0.618378
      5          1           0        0.914431    1.286147   -0.618378
      6          1           0       -0.914431   -1.286147   -0.618378
      7          1           0        0.914431   -1.286147   -0.618378
 ---------------------------------------------------------------------

 SCF Done:  E(UB3LYP) =  -116.562935339     A.U. after   12 cycles

 The electronic state is 3-B1.
 Alpha  occ. eigenvalues --  -10.20960 -10.20945 -10.20582  -0.87859  -0.63698
 Alpha  occ. eigenvalues --   -0.57192  -0.49777  -0.41186  -0.40023  -0.35861
 Alpha  occ. eigenvalues --   -0.25396  -0.20613
 Alpha virt. eigenvalues --   -0.00501   0.00945   0.01796   0.04036   0.05360
 Alpha virt. eigenvalues --    0.06656   0.07093   0.09319   0.09956   0.10132
 Alpha virt. eigenvalues --    0.12241   0.13323   0.13688   0.13962   0.15420

  Beta  occ. eigenvalues --  -10.20744 -10.20732 -10.17978  -0.85436  -0.62514
  Beta  occ. eigenvalues --   -0.54308  -0.48052  -0.39148  -0.35249  -0.33718
  Beta virt. eigenvalues --   -0.11651  -0.04957  -0.00269   0.01040   0.01988
  Beta virt. eigenvalues --    0.04435   0.05382   0.07141   0.07168   0.10048
  Beta virt. eigenvalues --    0.10940   0.11156   0.12344   0.13644   0.13856

 Mulliken charges and spin densities:
               1          2
     1  C   -0.045845   1.582279
     2  C   -0.247464   0.133561
     3  C   -0.247464   0.133561
     4  H    0.135193   0.037650
     5  H    0.135193   0.037650
     6  H    0.135193   0.037650
     7  H    0.135193   0.037650
 Sum of Mulliken charges =  -0.00000   2.00000

 Dipole moment (field-independent basis, Debye):
    X=              0.0000    Y=              0.0000    Z=             -1.7370  Tot=              1.7370
 Quadrupole moment (field-independent basis, Debye-Ang):
   XX=            -18.3707   YY=            -18.3671   ZZ=            -21.6875
   XY=             -0.0000   XZ=              0.0000   YZ=              0.0000

  Exact polarizability:  29.893   0.000  38.277   0.000   0.000  37.849
 Approx polarizability:  38.981   0.000  51.474   0.000   0.000  54.817

                      1                      2                      3
                     A1                     B1                     A2
 Frequencies --    661.8425               789.6629               801.3452
 Red. masses --      6.3647                 1.0196                 1.0435
 Frc consts  --      1.6426                 0.3746                 0.3948
 IR Inten    --      1.5624                 1.1906                 0.0000

                      4                      5                      6
                     A1                     B2                     B2
 Frequencies --    978.7410              1028.7513              1041.7669
 Red. masses --      1.1271                 2.4078                 2.1580
 Frc consts  --      0.6361                 1.5014                 1.3799
 IR Inten    --     67.0170                20.7968                 0.3110

                      7                      8                      9
                     B1                     A2                     A1
 Frequencies --   1045.3286              1046.9797              1270.3524
 Red. masses --      1.3846                 1.2971                 3.5514
 Frc consts  --      0.8914                 0.8377                 3.3767
 IR Inten    --      0.7731                 0.0000                 8.9970

                     10                     11                     12
                     B2                     A1                     B2
 Frequencies --   1452.1094              1484.3077              3050.2330
 Red. masses --      1.0896                 1.2897                 1.0459
 Frc consts  --      1.3537                 1.6741                 5.7332
 IR Inten    --      0.3517                 0.1301                19.6904

                     13                     14                     15
                     A1                     A2                     B1
 Frequencies --   3052.4157              3114.9377              3122.3234
 Red. masses --      1.0521                 1.1159                 1.1148
 Frc consts  --      5.7754                 6.3795                 6.4030
 IR Inten    --     14.7273                 0.0000                32.4173

 - Thermochemistry -
 -------------------
 Temperature   298.150 Kelvin.  Pressure   1.00000 Atm.
 Atom     1 has atomic number  6 and mass  12.00000

 Molecular mass:    40.03130 amu.
 Principal axes and moments of inertia in atomic units:
                           1         2         3
     Eigenvalues --    59.57210  92.75426 128.25092
           X            0.00000   0.00000   1.00000
           Y            1.00000   0.00000  -0.00000
           Z            0.00000   1.00000   0.00000
 This molecule is an asymmetric top.
 Rotational symmetry number  2.
 Rotational temperatures (Kelvin)      1.45393     0.93380     0.67535
 Rotational constants (GHZ):          30.29507    19.45723    14.07196
 Zero-point vibrational energy     143199.6 (Joules/Mol)
                                   34.22552 (Kcal/Mol)
 Vibrational temperatures:    952.24  1136.15  1152.96  1408.19  1480.14
          (Kelvin)           1498.87  1503.99  1506.37  1827.75  2089.26
                             2135.59  4388.60  4391.74  4481.69  4492.32

 Zero-point correction=                           0.054542 (Hartree/Particle)
 Thermal correction to Energy=                    0.057853
 Thermal correction to Enthalpy=                  0.058797
 Thermal correction to Gibbs Free Energy=         0.030176
 Sum of electronic and zero-point Energies=           -116.508394
 Sum of electronic and thermal Energies=              -116.505083
 Sum of electronic and thermal Enthalpies=            -116.504139
 Sum of electronic and thermal Free Energies=         -116.532759

                     E (Thermal)             CV                S
                      KCal/Mol        Cal/Mol-Kelvin    Cal/Mol-Kelvin
 Total                   36.303             10.254             60.237
 Electronic               0.000              0.000              2.183
 Translational            0.889              2.981             36.989
 Rotational               0.889              2.981             19.810
 Vibrational             34.526              4.292              1.254

 Optimization completed.
    -- Stationary point found.
 Normal termination of Gaussian 09 at Sun Mar  4 21:09:23 2018.
