 Gaussian 09, Revision D.01,
 Gaussian 09:  ES64L-G09RevD.01 24-Apr-2013

 ---------------------------
 #p b3lyp/6-311++g(d,p) freq
 ---------------------------

 ---
 min
 ---
 Symbolic Z-matrix:
 Charge =  0 Multiplicity = 3

                         Standard orientation:
 ---------------------------------------------------------------------
 Center     Atomic      Atomic             Coordinates (Angstroms)
 Number     Number       Type             X           Y           Z
 ---------------------------------------------------------------------
      1          6           0        0.064227   -0.488230    0.748135
      2          6           0        0.064227    0.792618    0.000000
      3          6           0        0.064227   -0.488230   -0.748135
      4          1           0       -0.687105   -0.847417   -1.444193
      5          1           0       -0.687105   -0.847417    1.444193
      6          1           0       -0.797532    1.460785    0.000000
      7          1           0        1.015662    1.337101    0.000000
 ---------------------------------------------------------------------

 SCF Done:  E(UB3LYP) =  -116.552291422     A.U. after   13 cycles

 The electronic state is 3-A".
 Alpha  occ. eigenvalues --  -10.20834 -10.20807 -10.19198  -0.87863  -0.61119
 Alpha  occ. eigenvalues --   -0.58808  -0.50932  -0.45416  -0.33891  -0.33371
 Alpha  occ. eigenvalues --   -0.28712  -0.19438
 Alpha virt. eigenvalues --   -0.00240   0.01237   0.01665   0.02740   0.07326
 Alpha virt. eigenvalues --    0.07582   0.07772   0.08672   0.09515   0.10016
 Alpha virt. eigenvalues --    0.13053   0.13386   0.13469   0.14341   0.15476

  Beta  occ. eigenvalues --  -10.19311 -10.19279 -10.19244  -0.85514  -0.59272
  Beta  occ. eigenvalues --   -0.55323  -0.49515  -0.42647  -0.32528  -0.31108
  Beta virt. eigenvalues --   -0.13562  -0.03164  -0.00106   0.01373   0.01833
  Beta virt. eigenvalues --    0.02899   0.07471   0.07717   0.07921   0.09310
  Beta virt. eigenvalues --    0.10842   0.11105   0.13423   0.13565   0.13837

 Mulliken charges and spin densities:
               1          2
     1  C   -0.102938   0.973900
     2  C   -0.339115  -0.070848
     3  C   -0.102938   0.973900
     4  H    0.128304  -0.005701
     5  H    0.128304  -0.005701
     6  H    0.130327   0.042993
     7  H    0.158057   0.091456
 Sum of Mulliken charges =  -0.00000   2.00000

 Dipole moment (field-independent basis, Debye):
    X=             -1.0820    Y=              0.8602    Z=              0.0000  Tot=              1.3823
 Quadrupole moment (field-independent basis, Debye-Ang):
   XX=            -18.7589   YY=            -19.2572   ZZ=            -19.8310
   XY=              1.5002   XZ=             -0.0000   YZ=             -0.0000

  Exact polarizability:  29.132   0.884  36.378  -0.000  -0.000  36.168
 Approx polarizability:  37.691   1.204  48.958  -0.000   0.000  47.704

                      1                      2                      3
                     A"                     A'                     A'
 Frequencies --    471.3509               711.5288               742.0322
 Red. masses --      1.0552                 1.1450                 1.0825
 Frc consts  --      0.1381                 0.3415                 0.3512
 IR Inten    --     34.5793                 6.6497                 5.6319

                      4                      5                      6
                     A"                     A'                     A"
 Frequencies --    863.6179               922.1092               937.2559
 Red. masses --      5.3915                 2.4388                 1.0573
 Frc consts  --      2.3692                 1.2218                 0.5472
 IR Inten    --     13.7768                37.3277                11.0459

                      7                      8                      9
                     A"                     A'                     A"
 Frequencies --   1024.9391              1067.2167              1094.8873
 Red. masses --      1.3839                 1.8795                 1.4648
 Frc consts  --      0.8565                 1.2612                 1.0346
 IR Inten    --      4.5882                 2.0265                 6.7916

                     10                     11                     12
                     A'                     A'                     A'
 Frequencies --   1261.8720              1398.2339              3006.1826
 Red. masses --      3.8617                 1.2224                 1.0583
 Frc consts  --      3.6229                 1.4080                 5.6350
 IR Inten    --      1.5887                13.1762                 0.1660

                     13                     14                     15
                     A'                     A"                     A'
 Frequencies --   3091.7261              3142.1505              3158.8993
 Red. masses --      1.0978                 1.0853                 1.0990
 Frc consts  --      6.1824                 6.3134                 6.4612
 IR Inten    --      8.3255                26.8200                 9.1657

 - Thermochemistry -
 -------------------
 Temperature   298.150 Kelvin.  Pressure   1.00000 Atm.
 Atom     1 has atomic number  6 and mass  12.00000

 Molecular mass:    40.03130 amu.
 Principal axes and moments of inertia in atomic units:
                           1         2         3
     Eigenvalues --    72.44225  76.34096 129.86426
           X            0.07847  -0.00000   0.99692
           Y            0.99692  -0.00000  -0.07847
           Z            0.00000   1.00000   0.00000
 This molecule is an asymmetric top.
 Rotational symmetry number  1.
 Rotational temperatures (Kelvin)      1.19563     1.13457     0.66696
 Rotational constants (GHZ):          24.91283    23.64053    13.89714
 Zero-point vibrational energy     136936.5 (Joules/Mol)
                                   32.72862 (Kcal/Mol)
 Warning -- explicit consideration of   1 degrees of freedom as
           vibrations may cause significant error
 Vibrational temperatures:    678.17  1023.73  1067.62  1242.55  1326.71
          (Kelvin)           1348.50  1474.66  1535.48  1575.30  1815.55
                             2011.74  4325.22  4448.30  4520.85  4544.95

 Zero-point correction=                           0.052156 (Hartree/Particle)
 Thermal correction to Energy=                    0.055706
 Thermal correction to Enthalpy=                  0.056651
 Thermal correction to Gibbs Free Energy=         0.027031
 Sum of electronic and zero-point Energies=           -116.500135
 Sum of electronic and thermal Energies=              -116.496585
 Sum of electronic and thermal Enthalpies=            -116.495641
 Sum of electronic and thermal Free Energies=         -116.525260

                     E (Thermal)             CV                S
                      KCal/Mol        Cal/Mol-Kelvin    Cal/Mol-Kelvin
 Total                   34.956             11.526             62.339
 Electronic               0.000              0.000              2.183
 Translational            0.889              2.981             36.989
 Rotational               0.889              2.981             21.201
 Vibrational             33.179              5.564              1.966
 Vibration     1          0.828              1.314              0.734

 Optimization completed.
    -- Stationary point found.
 Normal termination of Gaussian 09 at Sun Mar  4 21:09:55 2018.
