 Gaussian 09, Revision D.01,
 Gaussian 09:  ES64L-G09RevD.01 24-Apr-2013

 ---------------------------
 #p b3lyp/6-311++g(d,p) freq
 ---------------------------

 ---
 min
 ---
 Symbolic Z-matrix:
 Charge =  0 Multiplicity = 1

                         Standard orientation:
 ---------------------------------------------------------------------
 Center     Atomic      Atomic             Coordinates (Angstroms)
 Number     Number       Type             X           Y           Z
 ---------------------------------------------------------------------
      1          6           0       -0.000000   -0.744839   -0.312467
      2          6           0       -0.000000    0.000000    0.984796
      3          6           0        0.000000    0.744839   -0.312467
      4          1           0        0.907288   -1.299673   -0.539794
      5          1           0       -0.907288    1.299673   -0.539794
      6          1           0       -0.907288   -1.299673   -0.539794
      7          1           0        0.907288    1.299673   -0.539794
 ---------------------------------------------------------------------

 SCF Done:  E(RB3LYP) =  -116.584029557     A.U. after   10 cycles

 The electronic state is 1-A1.
 Alpha  occ. eigenvalues --  -10.23507 -10.19160 -10.19132  -0.88474  -0.62957
 Alpha  occ. eigenvalues --   -0.55755  -0.49949  -0.41320  -0.39218  -0.31285
 Alpha  occ. eigenvalues --   -0.24283
 Alpha virt. eigenvalues --   -0.10647  -0.00488   0.01077   0.01550   0.03838
 Alpha virt. eigenvalues --    0.05157   0.06791   0.08202   0.09524   0.10264
 Alpha virt. eigenvalues --    0.11024   0.11946   0.13171   0.13443   0.14004

 Mulliken charges:
               1
     1  C   -0.274002
     2  C   -0.087553
     3  C   -0.274002
     4  H    0.158889
     5  H    0.158889
     6  H    0.158889
     7  H    0.158889
 Sum of Mulliken charges =  -0.00000

 Dipole moment (field-independent basis, Debye):
    X=              0.0000    Y=             -0.0000    Z=             -2.2648  Tot=              2.2648
 Quadrupole moment (field-independent basis, Debye-Ang):
   XX=            -16.7654   YY=            -17.9526   ZZ=            -25.1407
   XY=             -0.0000   XZ=             -0.0000   YZ=             -0.0000

  Exact polarizability:  30.519   0.000  38.040  -0.000  -0.000  35.697
 Approx polarizability:  44.751  -0.000  53.352   0.000   0.000  48.533

                      1                      2                      3
                     B1                     A2                     B2
 Frequencies --    481.7624               522.2069               776.9466
 Red. masses --      1.0355                 1.1276                 4.5435
 Frc consts  --      0.1416                 0.1812                 1.6159
 IR Inten    --     58.6651                 0.0000                68.6008

                      4                      5                      6
                     B1                     A1                     B2
 Frequencies --    825.3349               872.5351               984.7274
 Red. masses --      1.2757                 1.9161                 1.5277
 Frc consts  --      0.5120                 0.8595                 0.8728
 IR Inten    --     16.4809                16.7219                 4.3616

                      7                      8                      9
                     A1                     A2                     A1
 Frequencies --   1045.1412              1178.9851              1234.5866
 Red. masses --      2.0563                 1.2549                 2.8068
 Frc consts  --      1.3234                 1.0277                 2.5206
 IR Inten    --     46.1538                 0.0000                23.5225

                     10                     11                     12
                     B2                     A1                     B2
 Frequencies --   1392.5560              1417.1653              3092.1579
 Red. masses --      1.0774                 1.3423                 1.0494
 Frc consts  --      1.2309                 1.5883                 5.9115
 IR Inten    --     15.4791                29.6904                 0.1833

                     13                     14                     15
                     A1                     A2                     B1
 Frequencies --   3094.2568              3152.4227              3168.9954
 Red. masses --      1.0612                 1.1107                 1.1098
 Frc consts  --      5.9861                 6.5035                 6.5668
 IR Inten    --      6.5414                 0.0000                 0.0898

 - Thermochemistry -
 -------------------
 Temperature   298.150 Kelvin.  Pressure   1.00000 Atm.
 Atom     1 has atomic number  6 and mass  12.00000

 Molecular mass:    40.03130 amu.
 Principal axes and moments of inertia in atomic units:
                           1         2         3
     Eigenvalues --    65.56326  83.71570 125.57813
           X           -0.00000  -0.00000   1.00000
           Y            1.00000  -0.00000   0.00000
           Z            0.00000   1.00000   0.00000
 This molecule is an asymmetric top.
 Rotational symmetry number  2.
 Rotational temperatures (Kelvin)      1.32107     1.03462     0.68972
 Rotational constants (GHZ):          27.52671    21.55798    14.37146
 Zero-point vibrational energy     139004.8 (Joules/Mol)
                                   33.22293 (Kcal/Mol)
 Warning -- explicit consideration of   2 degrees of freedom as
           vibrations may cause significant error
 Vibrational temperatures:    693.15   751.34  1117.85  1187.47  1255.38
          (Kelvin)           1416.80  1503.72  1696.29  1776.29  2003.57
                             2038.98  4448.92  4451.94  4535.63  4559.47

 Zero-point correction=                           0.052944 (Hartree/Particle)
 Thermal correction to Energy=                    0.056557
 Thermal correction to Enthalpy=                  0.057501
 Thermal correction to Gibbs Free Energy=         0.029494
 Sum of electronic and zero-point Energies=           -116.531085
 Sum of electronic and thermal Energies=              -116.527473
 Sum of electronic and thermal Enthalpies=            -116.526529
 Sum of electronic and thermal Free Energies=         -116.554536

                     E (Thermal)             CV                S
                      KCal/Mol        Cal/Mol-Kelvin    Cal/Mol-Kelvin
 Total                   35.490             11.627             58.946
 Electronic               0.000              0.000              0.000
 Translational            0.889              2.981             36.989
 Rotational               0.889              2.981             19.783
 Vibrational             33.712              5.665              2.174
 Vibration     1          0.838              1.291              0.705
 Vibration     2          0.877              1.201              0.605

 Optimization completed.
    -- Stationary point found.

 1\1\ CITASK-GV1229\Freq\RB3LYP\6-311++G(d,p)\C3H4\EERD\04-Mar-2018\0\\
 #p b3lyp/6-311++g(d,p) freq\\min\\0,1\C,-0.865759793,1.1346025031,0.03
 618301\C,0.5043313276,0.6072702708,-0.2509570853\C,-0.0174953211,0.627
 4691374,1.1508158459\H,-1.003140431,2.202790062,-0.114786107\H,-0.2116
 45851,-0.3447715323,1.597742492\H,-1.6917855154,0.5401272634,-0.347184
 2688\H,0.4769992334,1.3178912663,1.8301406538\\Version=ES64L-G09RevD.0
 1\State=1-A1\HF=-116.5840296\RMSD=1.621e-09\RMSF=3.879e-05\ZeroPoint=0
 .0529441\Thermal=0.0565568\Dipole=-0.6497343,0.1880366,0.5800172\Dipol

 Normal termination of Gaussian 09 at Sun Mar  4 21:08:41 2018.
