 Gaussian 09, Revision D.01,
 Gaussian 09:  ES64L-G09RevD.01 24-Apr-2013

 ---------------------------
 #p b3lyp/6-311++g(d,p) freq
 ---------------------------

 ---
 min
 ---
 Symbolic Z-matrix:
 Charge =  0 Multiplicity = 1

                         Standard orientation:
 ---------------------------------------------------------------------
 Center     Atomic      Atomic             Coordinates (Angstroms)
 Number     Number       Type             X           Y           Z
 ---------------------------------------------------------------------
      1          6           0        0.905670    0.340874    0.049936
      2          6           0       -0.576254    0.622335   -0.035829
      3          6           0        1.712416   -0.664602   -0.070851
      4          1           0       -1.236408   -1.037006    0.751570
      5          1           0       -0.857409    1.282731    0.794334
      6          1           0       -0.786158    1.155730   -0.965649
      7          1           0        1.596629    1.171500    0.288163
      8          8           0       -1.370956   -0.545575   -0.065994
 ---------------------------------------------------------------------

 SCF Done:  E(RB3LYP) =  -191.850140051     A.U. after   12 cycles

 The electronic state is 1-A.
 Alpha  occ. eigenvalues --  -19.15095 -10.26665 -10.23418 -10.19320  -1.05665
 Alpha  occ. eigenvalues --   -0.81718  -0.71382  -0.56571  -0.49690  -0.49447
 Alpha  occ. eigenvalues --   -0.46694  -0.37392  -0.32288  -0.30015  -0.29214
 Alpha virt. eigenvalues --   -0.10417  -0.01818  -0.00073   0.00298   0.02017
 Alpha virt. eigenvalues --    0.02566   0.06490   0.06795   0.07091   0.08338
 Alpha virt. eigenvalues --    0.09055   0.10871   0.11827   0.12880   0.13095

 Mulliken charges:
               1
     1  C    0.039076
     2  C   -0.403829
     3  C   -0.124987
     4  H    0.251786
     5  H    0.147820
     6  H    0.184329
     7  H    0.182688
     8  O   -0.276884
 Sum of Mulliken charges =  -0.00000

 Dipole moment (field-independent basis, Debye):
    X=             -0.9613    Y=              2.5445    Z=              1.5043  Tot=              3.1083
 Quadrupole moment (field-independent basis, Debye-Ang):
   XX=            -31.0573   YY=            -23.4337   ZZ=            -24.4279
   XY=              3.7354   XZ=             -1.1514   YZ=             -1.5677

  Exact polarizability:  45.050  -5.029  42.052  -0.623   0.335  32.238
 Approx polarizability:  59.150  -9.156  64.369  -0.588   1.642  44.212

                      1                      2                      3
                      A                      A                      A
 Frequencies --    138.0457               158.4561               343.8880
 Red. masses --      2.0412                 5.4349                 1.1198
 Frc consts  --      0.0229                 0.0804                 0.0780
 IR Inten    --      3.6430                14.8728               115.6151

                      4                      5                      6
                      A                      A                      A
 Frequencies --    464.3121               549.3956               865.9973
 Red. masses --      3.3467                 1.5083                 1.9943
 Frc consts  --      0.4251                 0.2682                 0.8812
 IR Inten    --     35.1951                32.0949                 1.7411

                      7                      8                      9
                      A                      A                      A
 Frequencies --    899.6762               986.5907              1093.3384
 Red. masses --      2.0871                 1.6058                 3.8060
 Frc consts  --      0.9953                 0.9209                 2.6806
 IR Inten    --     14.7999                46.3738                94.7234

                     10                     11                     12
                      A                      A                      A
 Frequencies --   1213.8429              1370.9013              1402.5531
 Red. masses --      1.1027                 1.2036                 1.2337
 Frc consts  --      0.9572                 1.3327                 1.4298
 IR Inten    --     18.9950                 4.9591                49.5487

                     13                     14                     15
                      A                      A                      A
 Frequencies --   1495.4878              1781.5440              2990.9478
 Red. masses --      1.0811                 8.4474                 1.0778
 Frc consts  --      1.4245                15.7966                 5.6809
 IR Inten    --      1.2629                85.5718                38.5218

                     16                     17                     18
                      A                      A                      A
 Frequencies --   3004.3454              3081.1047              3824.0157
 Red. masses --      1.0706                 1.0929                 1.0665
 Frc consts  --      5.6936                 6.1129                 9.1890
 IR Inten    --     33.7316                10.4636                37.0519

 - Thermochemistry -
 -------------------
 Temperature   298.150 Kelvin.  Pressure   1.00000 Atm.
 Atom     1 has atomic number  6 and mass  12.00000

 Molecular mass:    56.02621 amu.
 Principal axes and moments of inertia in atomic units:
                           1         2         3
     Eigenvalues --    85.09388 310.39394 378.52193
           X            0.99984   0.01696  -0.00530
           Y           -0.01709   0.99951  -0.02625
           Z            0.00485   0.02633   0.99964
 This molecule is an asymmetric top.
 Rotational symmetry number  1.
 Rotational temperatures (Kelvin)      1.01786     0.27904     0.22882
 Rotational constants (GHZ):          21.20883     5.81436     4.76786
 Zero-point vibrational energy     153507.5 (Joules/Mol)
                                   36.68916 (Kcal/Mol)
 Warning -- explicit consideration of   5 degrees of freedom as
           vibrations may cause significant error
 Vibrational temperatures:    198.62   227.98   494.78   668.04   790.46
          (Kelvin)           1245.98  1294.43  1419.48  1573.07  1746.45
                             1972.42  2017.96  2151.67  2563.24  4303.30
                             4322.58  4433.02  5501.90

 Zero-point correction=                           0.058468 (Hartree/Particle)
 Thermal correction to Energy=                    0.063622
 Thermal correction to Enthalpy=                  0.064566
 Thermal correction to Gibbs Free Energy=         0.031185
 Sum of electronic and zero-point Energies=           -191.791672
 Sum of electronic and thermal Energies=              -191.786519
 Sum of electronic and thermal Enthalpies=            -191.785574
 Sum of electronic and thermal Free Energies=         -191.818955

                     E (Thermal)             CV                S
                      KCal/Mol        Cal/Mol-Kelvin    Cal/Mol-Kelvin
 Total                   39.923             16.076             70.256
 Electronic               0.000              0.000              0.000
 Translational            0.889              2.981             37.991
 Rotational               0.889              2.981             23.818
 Vibrational             38.146             10.114              8.447
 Vibration     1          0.614              1.915              2.831
 Vibration     2          0.621              1.893              2.568
 Vibration     3          0.723              1.588              1.194
 Vibration     4          0.822              1.329              0.754
 Vibration     5          0.905              1.141              0.545

 Normal termination of Gaussian 09 at Sun Mar  4 21:19:15 2018.
