 Gaussian 09, Revision D.01,
 Gaussian 09:  ES64L-G09RevD.01 24-Apr-2013

 ---------------------------
 #p b3lyp/6-311++g(d,p) freq
 ---------------------------

 ---
 min
 ---
 Symbolic Z-matrix:
 Charge =  0 Multiplicity = 1

                         Standard orientation:
 ---------------------------------------------------------------------
 Center     Atomic      Atomic             Coordinates (Angstroms)
 Number     Number       Type             X           Y           Z
 ---------------------------------------------------------------------
      1          6           0        1.303410   -0.000205    0.000325
      2          6           0        0.000002    0.000041   -0.000225
      3          6           0       -1.303416   -0.000286   -0.000265
      4          1           0       -1.867420    0.662657   -0.648910
      5          1           0        1.867481   -0.649388   -0.662043
      6          1           0        1.867148    0.650669    0.661318
      7          1           0       -1.867182   -0.661239    0.650622
 ---------------------------------------------------------------------

 SCF Done:  E(RB3LYP) =  -116.695403386     A.U. after   10 cycles

 The electronic state is 1-A.
 Alpha  occ. eigenvalues --  -10.19742 -10.18023 -10.18018  -0.79929  -0.71251
 Alpha  occ. eigenvalues --   -0.52945  -0.46210  -0.45067  -0.45065  -0.27631
 Alpha  occ. eigenvalues --   -0.27627
 Alpha virt. eigenvalues --   -0.00501  -0.00497  -0.00409   0.01684   0.03793
 Alpha virt. eigenvalues --    0.03794   0.06095   0.08446   0.08447   0.09032
 Alpha virt. eigenvalues --    0.12196   0.12605   0.14417   0.14418   0.16336

 Mulliken charges:
               1
     1  C   -0.609090
     2  C    0.686443
     3  C   -0.609060
     4  H    0.132903
     5  H    0.132929
     6  H    0.132924
     7  H    0.132951
 Sum of Mulliken charges =  -0.00000

 Dipole moment (field-independent basis, Debye):
    X=              0.0000    Y=              0.0031    Z=              0.0008  Tot=              0.0032
 Quadrupole moment (field-independent basis, Debye-Ang):
   XX=            -15.8000   YY=            -19.6787   ZZ=            -19.6808
   XY=             -0.0010   XZ=             -0.0062   YZ=             -0.0000

  Exact polarizability:  63.083   0.000  24.971   0.007   0.000  24.970
 Approx polarizability:  98.665   0.000  31.778   0.025   0.000  31.776

                      1                      2                      3
                      A                      A                      A
 Frequencies --    373.7869               373.8132               869.8292
 Red. masses --      2.5035                 2.5035                 1.3065
 Frc consts  --      0.2061                 0.2061                 0.5824
 IR Inten    --      8.1767                 8.1758                64.9869

                      4                      5                      6
                      A                      A                      A
 Frequencies --    869.8541               881.2127              1016.5349
 Red. masses --      1.3065                 1.0078                 1.5317
 Frc consts  --      0.5824                 0.4611                 0.9326
 IR Inten    --     64.9881                 0.0001                 0.2170

                      7                      8                      9
                      A                      A                      A
 Frequencies --   1016.5547              1106.6911              1421.7479
 Red. masses --      1.5318                 2.4353                 1.0801
 Frc consts  --      0.9326                 1.7574                 1.2864
 IR Inten    --      0.2149                 0.0000                 4.2203

                     10                     11                     12
                      A                      A                      A
 Frequencies --   1477.2057              2042.7240              3117.9697
 Red. masses --      1.4042                 9.4694                 1.0583
 Frc consts  --      1.8054                23.2804                 6.0621
 IR Inten    --      0.0000                89.4477                 2.1074

                     13                     14                     15
                      A                      A                      A
 Frequencies --   3121.9912              3193.7281              3193.7679
 Red. masses --      1.0581                 1.1147                 1.1147
 Frc consts  --      6.0766                 6.6991                 6.6993
 IR Inten    --      0.0000                 1.1392                 1.1386

 - Thermochemistry -
 -------------------
 Temperature   298.150 Kelvin.  Pressure   1.00000 Atm.
 Atom     1 has atomic number  6 and mass  12.00000

 Molecular mass:    40.03130 amu.
 Principal axes and moments of inertia in atomic units:
                           1         2         3
     Eigenvalues --    12.38586 201.99105 201.99605
           X            1.00000  -0.00001  -0.00009
           Y            0.00001   1.00000   0.00009
           Z            0.00009  -0.00009   1.00000
 This molecule is an asymmetric top.
 Rotational symmetry number  1.
 Rotational temperatures (Kelvin)      6.99296     0.42880     0.42879
 Rotational constants (GHZ):         145.70978     8.93476     8.93454
 Zero-point vibrational energy     144014.9 (Joules/Mol)
                                   34.42039 (Kcal/Mol)
 Warning -- explicit consideration of   2 degrees of freedom as
           vibrations may cause significant error
 Vibrational temperatures:    537.80   537.83  1251.49  1251.52  1267.87
          (Kelvin)           1462.57  1462.59  1592.28  2045.58  2125.37
                             2939.02  4486.06  4491.84  4595.06  4595.11

 Zero-point correction=                           0.054852 (Hartree/Particle)
 Thermal correction to Energy=                    0.058641
 Thermal correction to Enthalpy=                  0.059586
 Thermal correction to Gibbs Free Energy=         0.030745
 Sum of electronic and zero-point Energies=           -116.640551
 Sum of electronic and thermal Energies=              -116.636762
 Sum of electronic and thermal Enthalpies=            -116.635818
 Sum of electronic and thermal Free Energies=         -116.664659

                     E (Thermal)             CV                S
                      KCal/Mol        Cal/Mol-Kelvin    Cal/Mol-Kelvin
 Total                   36.798             11.808             60.701
 Electronic               0.000              0.000              0.000
 Translational            0.889              2.981             36.989
 Rotational               0.889              2.981             20.852
 Vibrational             35.021              5.846              2.860
 Vibration     1          0.745              1.526              1.064
 Vibration     2          0.745              1.526              1.064

 Optimization completed.
    -- Stationary point found.

 1\1\ CITASK-GV0332\Freq\RB3LYP\6-311++G(d,p)\C3H4\EERD\04-Mar-2018\0\\
 #p b3lyp/6-311++g(d,p) freq\\min\\0,1\C,-1.469474,0.249735,0.602407\C,
 -0.234948,0.654525,0.497692\C,0.999832,1.058604,0.393114\H,1.238567,2.
 10365,0.222179\H,-1.972499,0.216774,1.563773\H,-2.035501,-0.065068,-0.
 268719\H,1.829361,0.362719,0.470385\\Version=ES64L-G09RevD.01\State=1-
 A\HF=-116.6954034\RMSD=2.725e-09\RMSF=6.114e-05\ZeroPoint=0.0548524\Th
 ermal=0.0586414\Dipole=-0.0002491,0.0004352,-0.0011347\DipoleDeriv=-0.
 4079466,-0.0222487,0.0223825,-0.0232909,-0.3309517,0.0738512,0.0225819

 Normal termination of Gaussian 09 at Sun Mar  4 21:09:13 2018.
