 Gaussian 09, Revision D.01,
 Gaussian 09:  ES64L-G09RevD.01 24-Apr-2013

 ---------------------------
 #p b3lyp/6-311++g(d,p) freq
 ---------------------------

 ---
 min
 ---
 Symbolic Z-matrix:
 Charge =  0 Multiplicity = 3

                         Standard orientation:
 ---------------------------------------------------------------------
 Center     Atomic      Atomic             Coordinates (Angstroms)
 Number     Number       Type             X           Y           Z
 ---------------------------------------------------------------------
      1          6           0        1.734689   -0.269936   -0.366280
      2          6           0       -0.658674   -0.282781    0.282957
      3          6           0        0.636625    0.532252    0.180067
      4          1           0       -0.587868   -1.190411    0.917727
      5          1           0        0.431704    1.409526   -0.442467
      6          1           0        2.429937   -0.996908    0.032658
      7          1           0        0.887387    0.890399    1.194315
      8          8           0       -1.679625    0.001273   -0.285337
 ---------------------------------------------------------------------

 SCF Done:  E(UB3LYP) =  -191.850119917     A.U. after   15 cycles

 The electronic state is 3-A.
 Alpha  occ. eigenvalues --  -19.14248 -10.28121 -10.22732 -10.21269  -1.07395
 Alpha  occ. eigenvalues --   -0.81450  -0.65305  -0.59568  -0.49792  -0.48072
 Alpha  occ. eigenvalues --   -0.46475  -0.42461  -0.39980  -0.29268  -0.27229
 Alpha  occ. eigenvalues --   -0.23241
 Alpha virt. eigenvalues --   -0.04713  -0.00916   0.00848   0.01798   0.02741
 Alpha virt. eigenvalues --    0.05631   0.07389   0.07632   0.08146   0.08447
 Alpha virt. eigenvalues --    0.11296   0.11516   0.11928   0.12782   0.13044

  Beta  occ. eigenvalues --  -19.14176 -10.27958 -10.21328 -10.19930  -1.07235
  Beta  occ. eigenvalues --   -0.79395  -0.61483  -0.57662  -0.48912  -0.46540
  Beta  occ. eigenvalues --   -0.45831  -0.41337  -0.39273  -0.27958
  Beta virt. eigenvalues --   -0.09976  -0.08188  -0.03510  -0.00747   0.01014
  Beta virt. eigenvalues --    0.02156   0.02968   0.05727   0.07582   0.08107
  Beta virt. eigenvalues --    0.08885   0.09813   0.11645   0.11788   0.12386

 Mulliken charges and spin densities:
               1          2
     1  C   -0.061221   1.934414
     2  C    0.073865   0.066812
     3  C   -0.345454  -0.124297
     4  H    0.097619   0.010531
     5  H    0.183950   0.037165
     6  H    0.140295  -0.031706
     7  H    0.150746   0.080652
     8  O   -0.239801   0.026429
 Sum of Mulliken charges =  -0.00000   2.00000

 Dipole moment (field-independent basis, Debye):
    X=              2.2098    Y=             -0.2031    Z=              1.8763  Tot=              2.9060
 Quadrupole moment (field-independent basis, Debye-Ang):
   XX=            -29.5306   YY=            -23.1392   ZZ=            -24.4464
   XY=             -0.3935   XZ=             -0.0168   YZ=             -0.4607

  Exact polarizability:  51.143  -2.390  35.715   0.828  -1.936  32.716
 Approx polarizability:  68.349  -5.467  46.188   4.613  -3.011  44.961

                      1                      2                      3
                      A                      A                      A
 Frequencies --     79.4176               176.4975               361.8475
 Red. masses --      2.8226                 1.1807                 3.1553
 Frc consts  --      0.0105                 0.0217                 0.2434
 IR Inten    --      4.1979                32.7185                24.8768

                      4                      5                      6
                      A                      A                      A
 Frequencies --    486.3217               716.2882               818.9312
 Red. masses --      2.8103                 1.2607                 1.6128
 Frc consts  --      0.3916                 0.3811                 0.6373
 IR Inten    --     10.2792                 8.5679                14.2675

                      7                      8                      9
                      A                      A                      A
 Frequencies --   1006.9283              1039.4790              1087.0789
 Red. masses --      2.5509                 2.1163                 3.3636
 Frc consts  --      1.5239                 1.3473                 2.3419
 IR Inten    --     27.3906                12.8015                 1.3549

                     10                     11                     12
                      A                      A                      A
 Frequencies --   1200.9167              1258.3670              1402.2447
 Red. masses --      1.1951                 1.4051                 1.1511
 Frc consts  --      1.0155                 1.3109                 1.3336
 IR Inten    --     10.2804                 3.0599                 5.9269

                     13                     14                     15
                      A                      A                      A
 Frequencies --   1421.2696              1800.1644              2894.8898
 Red. masses --      1.0924                10.3087                 1.0840
 Frc consts  --      1.3001                19.6823                 5.3524
 IR Inten    --      9.7377               266.8751               100.9124

                     16                     17                     18
                      A                      A                      A
 Frequencies --   2933.1392              3052.9166              3214.4962
 Red. masses --      1.0679                 1.0880                 1.0914
 Frc consts  --      5.4133                 5.9746                 6.6446
 IR Inten    --     13.6087                 3.9487                 1.8410

 - Thermochemistry -
 -------------------
 Temperature   298.150 Kelvin.  Pressure   1.00000 Atm.
 Atom     1 has atomic number  6 and mass  12.00000

 Molecular mass:    56.02621 amu.
 Principal axes and moments of inertia in atomic units:
                           1         2         3
     Eigenvalues --    61.26696 374.91917 389.22724
           X            0.99998  -0.00255   0.00598
           Y            0.00354   0.98512  -0.17184
           Z           -0.00545   0.17186   0.98511
 This molecule is an asymmetric top.
 Rotational symmetry number  1.
 Rotational temperatures (Kelvin)      1.41371     0.23102     0.22253
 Rotational constants (GHZ):          29.45700     4.81368     4.63673
 Zero-point vibrational energy     149241.3 (Joules/Mol)
                                   35.66952 (Kcal/Mol)
 Warning -- explicit consideration of   4 degrees of freedom as
           vibrations may cause significant error
 Vibrational temperatures:    114.26   253.94   520.62   699.71  1030.58
          (Kelvin)           1178.26  1448.74  1495.58  1564.06  1727.85
                             1810.51  2017.51  2044.89  2590.03  4165.10
                             4220.13  4392.46  4624.94

 Zero-point correction=                           0.056843 (Hartree/Particle)
 Thermal correction to Energy=                    0.061950
 Thermal correction to Enthalpy=                  0.062894
 Thermal correction to Gibbs Free Energy=         0.028311
 Sum of electronic and zero-point Energies=           -191.793277
 Sum of electronic and thermal Energies=              -191.788170
 Sum of electronic and thermal Enthalpies=            -191.787225
 Sum of electronic and thermal Free Energies=         -191.821808

                     E (Thermal)             CV                S
                      KCal/Mol        Cal/Mol-Kelvin    Cal/Mol-Kelvin
 Total                   38.874             15.646             72.786
 Electronic               0.000              0.000              2.183
 Translational            0.889              2.981             37.991
 Rotational               0.889              2.981             23.707
 Vibrational             37.097              9.684              8.905
 Vibration     1          0.600              1.963              3.905
 Vibration     2          0.628              1.871              2.365
 Vibration     3          0.736              1.551              1.114
 Vibration     4          0.842              1.280              0.693

 Normal termination of Gaussian 09 at Sun Mar  4 21:20:55 2018.
