 Gaussian 09, Revision D.01,
 Gaussian 09:  ES64L-G09RevD.01 24-Apr-2013

 ---------------------------
 #p b3lyp/6-311++g(d,p) freq
 ---------------------------

 ---
 min
 ---
 Symbolic Z-matrix:
 Charge =  1 Multiplicity = 4

                         Standard orientation:
 ---------------------------------------------------------------------
 Center     Atomic      Atomic             Coordinates (Angstroms)
 Number     Number       Type             X           Y           Z
 ---------------------------------------------------------------------
      1          6           0       -1.628750   -0.317518    0.065740
      2          6           0        0.750362    0.432203    0.378146
      3          6           0       -0.614936    0.518478   -0.272972
      4          1           0        1.434397    1.281582    0.199384
      5          1           0        0.776957    0.229393    1.466972
      6          1           0       -1.889807   -1.048407    0.823030
      7          1           0       -0.706147    1.150260   -1.156758
      8          8           0        1.168069   -0.676476   -0.294764
 ---------------------------------------------------------------------

 SCF Done:  E(UB3LYP) =  -191.459302687     A.U. after   16 cycles

 The electronic state is 4-A.
 Alpha  occ. eigenvalues --  -19.50227 -10.50319 -10.49594 -10.49076  -1.35365
 Alpha  occ. eigenvalues --   -1.06864  -0.94210  -0.84186  -0.77645  -0.76490
 Alpha  occ. eigenvalues --   -0.72732  -0.69707  -0.62531  -0.61162  -0.56110
 Alpha  occ. eigenvalues --   -0.50555
 Alpha virt. eigenvalues --   -0.28944  -0.16418  -0.15091  -0.13426  -0.13165
 Alpha virt. eigenvalues --   -0.11336  -0.09399  -0.07494  -0.06871  -0.05564
 Alpha virt. eigenvalues --   -0.04874  -0.04360  -0.02800  -0.02150  -0.01644

  Beta  occ. eigenvalues --  -19.46678 -10.50178 -10.48760 -10.47383  -1.28044
  Beta  occ. eigenvalues --   -1.02850  -0.90381  -0.81348  -0.73091  -0.72602
  Beta  occ. eigenvalues --   -0.69680  -0.65800  -0.55357
  Beta virt. eigenvalues --   -0.43049  -0.42702  -0.33042  -0.23777  -0.16034
  Beta virt. eigenvalues --   -0.14607  -0.12729  -0.12576  -0.10676  -0.08611
  Beta virt. eigenvalues --   -0.06923  -0.06467  -0.04909  -0.04096  -0.03759

 Mulliken charges and spin densities:
               1          2
     1  C    0.127628   1.339979
     2  C   -0.531633   0.010806
     3  C    0.111304   0.188591
     4  H    0.294873   0.100259
     5  H    0.303472   0.103603
     6  H    0.252775  -0.011592
     7  H    0.271714   0.030388
     8  O    0.169867   1.237966
 Sum of Mulliken charges =   1.00000   3.00000

 Dipole moment (field-independent basis, Debye):
    X=             -0.8879    Y=              1.4088    Z=              1.4522  Tot=              2.2096
 Quadrupole moment (field-independent basis, Debye-Ang):
   XX=            -14.2087   YY=            -18.3536   ZZ=            -18.2771
   XY=              3.4340   XZ=              0.1381   YZ=             -2.2282

  Exact polarizability:  62.767  -0.640  33.216   0.265  -1.309  27.877
 Approx polarizability:  98.810 -10.100  54.879  -5.662   1.245  38.619

                      1                      2                      3
                      A                      A                      A
 Frequencies --    115.6530               316.7779               401.1928
 Red. masses --      2.3999                 3.4700                 2.0410
 Frc consts  --      0.0189                 0.2052                 0.1936
 IR Inten    --      6.5889                11.9575                 2.2857

                      4                      5                      6
                      A                      A                      A
 Frequencies --    724.7415               759.1149               822.5267
 Red. masses --      1.2943                 1.7751                 1.7441
 Frc consts  --      0.4005                 0.6027                 0.6952
 IR Inten    --     25.0938                 4.6222                13.6668

                      7                      8                      9
                      A                      A                      A
 Frequencies --    883.0460               939.7264              1022.1149
 Red. masses --      1.3408                 2.8363                 3.2825
 Frc consts  --      0.6160                 1.4757                 2.0205
 IR Inten    --     32.7645                31.3382                18.1952

                     10                     11                     12
                      A                      A                      A
 Frequencies --   1094.1686              1264.3747              1267.3163
 Red. masses --      1.4078                 1.2401                 1.1971
 Frc consts  --      0.9930                 1.1681                 1.1328
 IR Inten    --      3.5693                34.0979                 0.9774

                     13                     14                     15
                      A                      A                      A
 Frequencies --   1323.2586              1466.7570              2908.1317
 Red. masses --      1.1122                 5.2419                 1.0606
 Frc consts  --      1.1474                 6.6445                 5.2848
 IR Inten    --     49.0385               160.0482                71.3568

                     16                     17                     18
                      A                      A                      A
 Frequencies --   2945.9686              3134.0735              3223.2690
 Red. masses --      1.0857                 1.0888                 1.1014
 Frc consts  --      5.5516                 6.3011                 6.7418
 IR Inten    --     46.2805                24.3051                47.0535

 - Thermochemistry -
 -------------------
 Temperature   298.150 Kelvin.  Pressure   1.00000 Atm.
 Atom     1 has atomic number  6 and mass  12.00000

 Molecular mass:    56.02621 amu.
 Principal axes and moments of inertia in atomic units:
                           1         2         3
     Eigenvalues --    93.44974 285.49750 321.65506
           X            0.99820   0.05982   0.00295
           Y           -0.05869   0.98677  -0.15112
           Z           -0.01195   0.15067   0.98851
 This molecule is an asymmetric top.
 Rotational symmetry number  1.
 Rotational temperatures (Kelvin)      0.92685     0.30338     0.26928
 Rotational constants (GHZ):          19.31243     6.32139     5.61080
 Zero-point vibrational energy     147213.7 (Joules/Mol)
                                   35.18492 (Kcal/Mol)
 Warning -- explicit consideration of   3 degrees of freedom as
           vibrations may cause significant error
 Vibrational temperatures:    166.40   455.77   577.23  1042.74  1092.20
          (Kelvin)           1183.43  1270.50  1352.06  1470.59  1574.26
                             1819.15  1823.38  1903.87  2110.33  4184.15
                             4238.59  4509.23  4637.56

 Zero-point correction=                           0.056071 (Hartree/Particle)
 Thermal correction to Energy=                    0.060787
 Thermal correction to Enthalpy=                  0.061732
 Thermal correction to Gibbs Free Energy=         0.027950
 Sum of electronic and zero-point Energies=           -191.403232
 Sum of electronic and thermal Energies=              -191.398515
 Sum of electronic and thermal Enthalpies=            -191.397571
 Sum of electronic and thermal Free Energies=         -191.431353

                     E (Thermal)             CV                S
                      KCal/Mol        Cal/Mol-Kelvin    Cal/Mol-Kelvin
 Total                   38.145             15.288             71.099
 Electronic               0.000              0.000              2.755
 Translational            0.889              2.981             37.991
 Rotational               0.889              2.981             23.666
 Vibrational             36.367              9.326              6.687
 Vibration     1          0.608              1.936              3.172
 Vibration     2          0.704              1.642              1.327
 Vibration     3          0.767              1.468              0.958

 Normal termination of Gaussian 09 at Thu Jan 24 15:59:56 2019.
