 Gaussian 09, Revision D.01,
 Gaussian 09:  ES64L-G09RevD.01 24-Apr-2013

 ---------------------------
 #p b3lyp/6-311++g(d,p) freq
 ---------------------------

 ---
 min
 ---
 Symbolic Z-matrix:
 Charge =  0 Multiplicity = 1

                         Standard orientation:
 ---------------------------------------------------------------------
 Center     Atomic      Atomic             Coordinates (Angstroms)
 Number     Number       Type             X           Y           Z
 ---------------------------------------------------------------------
      1          6           0        0.077073    0.465627   -0.101804
      2          6           0       -1.106550   -0.198942    0.021745
      3          6           0        1.201187   -0.384875   -0.037766
      4          1           0        2.013544    0.127739    0.510910
      5          1           0        0.099801    1.556853   -0.039727
      6          1           0       -1.122839   -1.276354   -0.094345
      7          1           0       -2.020763    0.300896    0.330109
 ---------------------------------------------------------------------

 SCF Done:  E(RB3LYP) =  -116.596211658     A.U. after   12 cycles

 The electronic state is 1-A.
 Alpha  occ. eigenvalues --  -10.22070 -10.20107 -10.20036  -0.82275  -0.67703
 Alpha  occ. eigenvalues --   -0.55709  -0.50078  -0.42611  -0.38593  -0.32922
 Alpha  occ. eigenvalues --   -0.22106
 Alpha virt. eigenvalues --   -0.11522  -0.00862   0.00223   0.01203   0.02243
 Alpha virt. eigenvalues --    0.04101   0.06549   0.08059   0.09250   0.09422
 Alpha virt. eigenvalues --    0.10237   0.11217   0.11873   0.12643   0.14022

 Mulliken charges:
               1
     1  C   -0.013402
     2  C   -0.168652
     3  C   -0.324619
     4  H    0.121141
     5  H    0.112286
     6  H    0.146997
     7  H    0.126249
 Sum of Mulliken charges =  -0.00000

 Dipole moment (field-independent basis, Debye):
    X=             -1.7538    Y=              1.8625    Z=              0.7517  Tot=              2.6664
 Quadrupole moment (field-independent basis, Debye-Ang):
   XX=            -18.2531   YY=            -20.6438   ZZ=            -20.6254
   XY=              3.1572   XZ=              0.5784   YZ=             -0.6205

  Exact polarizability:  59.552  -1.800  38.425   0.985   0.862  27.492
 Approx polarizability:  99.574  -1.529  51.421   1.875  -0.136  37.664

                      1                      2                      3
                      A                      A                      A
 Frequencies --    224.8597               537.2004               755.8982
 Red. masses --      1.9032                 1.4903                 1.1760
 Frc consts  --      0.0567                 0.2534                 0.3959
 IR Inten    --     15.7002                41.6733                91.6806

                      4                      5                      6
                      A                      A                      A
 Frequencies --    933.1220               962.3026              1008.5699
 Red. masses --      1.2999                 1.2137                 1.2979
 Frc consts  --      0.6669                 0.6622                 0.7779
 IR Inten    --     51.1571                 8.3626                38.1022

                      7                      8                      9
                      A                      A                      A
 Frequencies --   1080.5005              1170.2184              1312.1258
 Red. masses --      1.5368                 1.8715                 1.6180
 Frc consts  --      1.0571                 1.5100                 1.6413
 IR Inten    --     19.8257                 6.9048                 3.2538

                     10                     11                     12
                      A                      A                      A
 Frequencies --   1428.4743              1577.2973              2961.6516
 Red. masses --      1.4272                 2.6858                 1.0817
 Frc consts  --      1.7159                 3.9369                 5.5899
 IR Inten    --     30.2722                12.7791                61.7696

                     13                     14                     15
                      A                      A                      A
 Frequencies --   3061.4483              3127.3463              3233.3306
 Red. masses --      1.0887                 1.0597                 1.1157
 Frc consts  --      6.0121                 6.1061                 6.8719
 IR Inten    --     40.3507                 5.6731                 2.0567

 - Thermochemistry -
 -------------------
 Temperature   298.150 Kelvin.  Pressure   1.00000 Atm.
 Atom     1 has atomic number  6 and mass  12.00000

 Molecular mass:    40.03130 amu.
 Principal axes and moments of inertia in atomic units:
                           1         2         3
     Eigenvalues --    33.93533 150.30946 180.62809
           X            0.99926   0.03675   0.01163
           Y           -0.03707   0.99889   0.02905
           Z           -0.01055  -0.02946   0.99951
 This molecule is an asymmetric top.
 Rotational symmetry number  1.
 Rotational temperatures (Kelvin)      2.55232     0.57624     0.47951
 Rotational constants (GHZ):          53.18177    12.00684     9.99148
 Zero-point vibrational energy     139809.6 (Joules/Mol)
                                   33.41530 (Kcal/Mol)
 Warning -- explicit consideration of   2 degrees of freedom as
           vibrations may cause significant error
 Vibrational temperatures:    323.52   772.91  1087.57  1342.55  1384.54
          (Kelvin)           1451.11  1554.60  1683.68  1887.85  2055.25
                             2269.38  4261.15  4404.74  4499.55  4652.04

 Zero-point correction=                           0.053251 (Hartree/Particle)
 Thermal correction to Energy=                    0.057089
 Thermal correction to Enthalpy=                  0.058033
 Thermal correction to Gibbs Free Energy=         0.028736
 Sum of electronic and zero-point Energies=           -116.542961
 Sum of electronic and thermal Energies=              -116.539123
 Sum of electronic and thermal Enthalpies=            -116.538179
 Sum of electronic and thermal Free Energies=         -116.567476

                     E (Thermal)             CV                S
                      KCal/Mol        Cal/Mol-Kelvin    Cal/Mol-Kelvin
 Total                   35.824             11.721             61.661
 Electronic               0.000              0.000              0.000
 Translational            0.889              2.981             36.989
 Rotational               0.889              2.981             21.449
 Vibrational             34.046              5.760              3.224
 Vibration     1          0.650              1.803              1.920
 Vibration     2          0.892              1.168              0.571

 Optimization completed.
    -- Stationary point found.

 1\1\ CITASK-GV2129\Freq\RB3LYP\6-311++G(d,p)\C3H4\EERD\04-Mar-2018\0\\
 #p b3lyp/6-311++g(d,p) freq\\min\\0,1\C,-0.479716,-0.106426,0.462633\C
 ,0.770963,-0.337755,0.952702\C,-0.805797,1.26485,0.396604\H,-1.871752,
 1.397718,0.660854\H,-1.184558,-0.934664,0.351442\H,1.477282,0.48235,1.
 008382\H,1.055805,-1.294388,1.382155\\Version=ES64L-G09RevD.01\State=1
 -A\HF=-116.5962117\RMSD=4.340e-09\RMSF=7.821e-05\ZeroPoint=0.0532507\T
 hermal=0.0570887\Dipole=-0.0208506,-0.9953152,0.3307455\DipoleDeriv=-0
 .1784119,0.210162,0.047061,0.2839615,-0.0115875,0.1679144,-0.1016667,0

 Normal termination of Gaussian 09 at Sun Mar  4 21:09:09 2018.
