 Gaussian 09, Revision D.01,
 Gaussian 09:  ES64L-G09RevD.01 24-Apr-2013

 ---------------------------
 #p b3lyp/6-311++g(d,p) freq
 ---------------------------

 ---
 min
 ---
 Symbolic Z-matrix:
 Charge =  0 Multiplicity = 1

                         Standard orientation:
 ---------------------------------------------------------------------
 Center     Atomic      Atomic             Coordinates (Angstroms)
 Number     Number       Type             X           Y           Z
 ---------------------------------------------------------------------
      1          6           0       -0.000000    0.000000   -1.238361
      2          6           0        0.000000   -0.000000    1.420732
      3          6           0        0.000000   -0.000000    0.218490
      4          1           0        0.000000    1.021251   -1.629390
      5          1           0        0.884430   -0.510626   -1.629390
      6          1           0       -0.884430   -0.510626   -1.629390
      7          1           0        0.000000   -0.000000    2.483001
 ---------------------------------------------------------------------

 SCF Done:  E(RB3LYP) =  -116.692850437     A.U. after   10 cycles

 The electronic state is 1-A1.
 Alpha  occ. eigenvalues --  -10.19598 -10.17636 -10.16076  -0.78649  -0.70874
 Alpha  occ. eigenvalues --   -0.53384  -0.46200  -0.43836  -0.43836  -0.27600
 Alpha  occ. eigenvalues --   -0.27600
 Alpha virt. eigenvalues --   -0.00826   0.01446   0.02135   0.02135   0.04839
 Alpha virt. eigenvalues --    0.04839   0.05328   0.08651   0.08651   0.09568
 Alpha virt. eigenvalues --    0.10701   0.10701   0.11715   0.13045   0.15234

 Mulliken charges:
               1
     1  C   -0.261349
     2  C   -1.932384
     3  C    1.607530
     4  H    0.160760
     5  H    0.160760
     6  H    0.160760
     7  H    0.103922
 Sum of Mulliken charges =   0.00000

 Dipole moment (field-independent basis, Debye):
    X=             -0.0000    Y=              0.0000    Z=             -0.8525  Tot=              0.8525
 Quadrupole moment (field-independent basis, Debye-Ang):
   XX=            -19.8959   YY=            -19.8959   ZZ=            -14.1616
   XY=             -0.0000   XZ=              0.0000   YZ=              0.0000

  Exact polarizability:  24.266  -0.000  24.266   0.000  -0.000  50.104
 Approx polarizability:  31.072   0.000  31.072   0.000   0.000  77.662

                      1                      2                      3
                      E                      E                      E
 Frequencies --    343.2619               343.2660               670.2830
 Red. masses --      3.0875                 3.0875                 1.2430
 Frc consts  --      0.2143                 0.2143                 0.3290
 IR Inten    --     10.5855                10.5849                55.9139

                      4                      5                      6
                      E                     A1                      E
 Frequencies --    670.2831               942.9347              1055.9575
 Red. masses --      1.2430                 4.0979                 1.4040
 Frc consts  --      0.3290                 2.1467                 0.9224
 IR Inten    --     55.9145                 0.4578                 0.5525

                      7                      8                      9
                      E                     A1                      E
 Frequencies --   1055.9583              1415.7553              1478.6796
 Red. masses --      1.4040                 1.2317                 1.0385
 Frc consts  --      0.9224                 1.4546                 1.3379
 IR Inten    --      0.5526                 0.0018                 8.9143

                     10                     11                     12
                      E                     A1                     A1
 Frequencies --   1478.6798              2222.1264              3027.0801
 Red. masses --      1.0385                 5.9455                 1.0342
 Frc consts  --      1.3379                17.2972                 5.5834
 IR Inten    --      8.9159                 9.6129                18.9492

                     13                     14                     15
                      E                      E                     A1
 Frequencies --   3085.9109              3085.9114              3478.8173
 Red. masses --      1.1010                 1.1010                 1.1617
 Frc consts  --      6.1772                 6.1772                 8.2832
 IR Inten    --      8.3364                 8.3330                64.8115

 - Thermochemistry -
 -------------------
 Temperature   298.150 Kelvin.  Pressure   1.00000 Atm.
 Atom     1 has atomic number  6 and mass  12.00000

 Molecular mass:    40.03130 amu.
 Principal axes and moments of inertia in atomic units:
                           1         2         3
     Eigenvalues --    11.26080 210.23596 210.23596
           X            0.00000  -0.25239   0.96763
           Y           -0.00000   0.96763   0.25239
           Z            1.00000   0.00000  -0.00000
 This molecule is a prolate symmetric top.
 Rotational symmetry number  3.
 Rotational temperatures (Kelvin)      7.69162     0.41198     0.41198
 Rotational constants (GHZ):         160.26755     8.58436     8.58436
 Zero-point vibrational energy     145674.7 (Joules/Mol)
                                   34.81708 (Kcal/Mol)
 Warning -- explicit consideration of   2 degrees of freedom as
           vibrations may cause significant error
 Vibrational temperatures:    493.88   493.88   964.39   964.39  1356.67
          (Kelvin)           1519.29  1519.29  2036.95  2127.49  2127.49
                             3197.14  4355.29  4439.93  4439.93  5005.24

 Zero-point correction=                           0.055485 (Hartree/Particle)
 Thermal correction to Energy=                    0.059428
 Thermal correction to Enthalpy=                  0.060372
 Thermal correction to Gibbs Free Energy=         0.032324
 Sum of electronic and zero-point Energies=           -116.637366
 Sum of electronic and thermal Energies=              -116.633422
 Sum of electronic and thermal Enthalpies=            -116.632478
 Sum of electronic and thermal Free Energies=         -116.660527

                     E (Thermal)             CV                S
                      KCal/Mol        Cal/Mol-Kelvin    Cal/Mol-Kelvin
 Total                   37.292             12.265             59.033
 Electronic               0.000              0.000              0.000
 Translational            0.889              2.981             36.989
 Rotational               0.889              2.981             18.654
 Vibrational             35.514              6.303              3.390
 Vibration     1          0.722              1.589              1.197
 Vibration     2          0.722              1.589              1.197

 Optimization completed.
    -- Stationary point found.

 1\1\ CITASK-GV0931\Freq\RB3LYP\6-311++G(d,p)\C3H4\EERD\04-Mar-2018\0\\
 #p b3lyp/6-311++g(d,p) freq\\min\\0,1\C,-1.1368103962,0.8420892388,0.2
 325916674\C,1.3525309059,0.1609560388,0.8729124782\C,0.2270376362,0.46
 89133413,0.5834074745\H,-1.2056198301,1.1266593774,-0.8210417012\H,-1.
 8258934353,0.0101758967,0.4027178965\H,-1.477118822,1.6899220103,0.833
 6140832\H,2.3469863472,-0.1111467125,1.1287112769\\Version=ES64L-G09Re
 vD.01\State=1-A1\HF=-116.6928504\RMSD=7.330e-09\RMSF=2.684e-05\ZeroPoi
 nt=0.0554846\Thermal=0.0594282\Dipole=-0.3139896,0.0859138,-0.080766\D

 Normal termination of Gaussian 09 at Sun Mar  4 21:08:47 2018.
