 Gaussian 09, Revision D.01,
 Gaussian 09:  ES64L-G09RevD.01 24-Apr-2013

 ---------------------------
 #p b3lyp/6-311++g(d,p) freq
 ---------------------------

 ---
 min
 ---
 Symbolic Z-matrix:
 Charge =  1 Multiplicity = 4

                         Standard orientation:
 ---------------------------------------------------------------------
 Center     Atomic      Atomic             Coordinates (Angstroms)
 Number     Number       Type             X           Y           Z
 ---------------------------------------------------------------------
      1          6           0        1.214211   -0.179046   -0.000458
      2          1           0        1.423975   -1.133421   -0.483902
      3          1           0        2.014696    0.303363    0.561601
      4          6           0       -0.075906    0.403792   -0.048725
      5          1           0       -0.151668    1.476751   -0.283483
      6          1           0       -2.337144   -0.123107   -0.139556
      7          6           0       -1.296614   -0.312010    0.106740
 ---------------------------------------------------------------------

 SCF Done:  E(UB3LYP) =  -116.223609887     A.U. after   12 cycles

 The electronic state is 4-A.
 Alpha  occ. eigenvalues --  -10.53246 -10.50821 -10.46560  -1.10196  -0.96503
 Alpha  occ. eigenvalues --   -0.83148  -0.76079  -0.70974  -0.69172  -0.60000
 Alpha  occ. eigenvalues --   -0.52964  -0.48524
 Alpha virt. eigenvalues --   -0.30620  -0.16596  -0.14299  -0.13133  -0.11824
 Alpha virt. eigenvalues --   -0.10560  -0.07952  -0.06944  -0.06674  -0.06057
 Alpha virt. eigenvalues --   -0.04673  -0.03353  -0.03099  -0.01338  -0.00662

  Beta  occ. eigenvalues --  -10.52633 -10.48125 -10.45303  -1.05523  -0.91053
  Beta  occ. eigenvalues --   -0.79352  -0.73529  -0.68784  -0.66542
  Beta virt. eigenvalues --   -0.45948  -0.33881  -0.33007  -0.22424  -0.16032
  Beta virt. eigenvalues --   -0.13520  -0.12404  -0.11009  -0.09562  -0.07272
  Beta virt. eigenvalues --   -0.06020  -0.05578  -0.05123  -0.03931  -0.02703

 Mulliken charges and spin densities:
               1          2
     1  C   -0.196277   0.858856
     2  H    0.239464  -0.003947
     3  H    0.229978  -0.003089
     4  C    0.159576   0.442315
     5  H    0.272590   0.057992
     6  H    0.244329  -0.012717
     7  C    0.050340   1.660590
 Sum of Mulliken charges =   1.00000   3.00000

 Dipole moment (field-independent basis, Debye):
    X=             -0.2605    Y=              0.8054    Z=             -0.2470  Tot=              0.8818
 Quadrupole moment (field-independent basis, Debye-Ang):
   XX=             -5.7189   YY=            -14.0410   ZZ=            -16.6927
   XY=             -0.7730   XZ=              0.8791   YZ=              0.5265

  Exact polarizability:  49.998   0.504  25.168  -0.317  -0.076  18.494
 Approx polarizability:  69.999   1.075  33.948  -1.432  -0.094  24.932

                      1                      2                      3
                      A                      A                      A
 Frequencies --    394.6356               423.8657               576.8737
 Red. masses --      1.8883                 1.1737                 1.3001
 Frc consts  --      0.1733                 0.1242                 0.2549
 IR Inten    --      9.3628                27.4787                32.5400

                      4                      5                      6
                      A                      A                      A
 Frequencies --    651.0307               784.0901               860.6822
 Red. masses --      1.2309                 1.1598                 1.5109
 Frc consts  --      0.3074                 0.4201                 0.6595
 IR Inten    --     49.6696                 1.9204                50.8525

                      7                      8                      9
                      A                      A                      A
 Frequencies --    950.5475              1125.2658              1187.8720
 Red. masses --      1.8383                 3.0529                 1.4589
 Frc consts  --      0.9786                 2.2776                 1.2128
 IR Inten    --      3.9349                16.9092                69.4477

                     10                     11                     12
                      A                      A                      A
 Frequencies --   1363.5590              1425.5137              3010.6182
 Red. masses --      1.1610                 3.1289                 1.0828
 Frc consts  --      1.2718                 3.7462                 5.7823
 IR Inten    --     35.7265                90.7645                21.9258

                     13                     14                     15
                      A                      A                      A
 Frequencies --   3070.8342              3176.2731              3202.8749
 Red. masses --      1.0478                 1.1154                 1.0942
 Frc consts  --      5.8218                 6.6298                 6.6134
 IR Inten    --    137.2363                51.2068                96.9078

 - Thermochemistry -
 -------------------
 Temperature   298.150 Kelvin.  Pressure   1.00000 Atm.
 Atom     1 has atomic number  6 and mass  12.00000

 Molecular mass:    40.03130 amu.
 Principal axes and moments of inertia in atomic units:
                           1         2         3
     Eigenvalues --    28.16471 179.97691 202.50026
           X            0.99963  -0.02249   0.01544
           Y            0.02174   0.99866   0.04686
           Z           -0.01647  -0.04651   0.99878
 This molecule is an asymmetric top.
 Rotational symmetry number  1.
 Rotational temperatures (Kelvin)      3.07526     0.48125     0.42772
 Rotational constants (GHZ):          64.07811    10.02763     8.91229
 Zero-point vibrational energy     132812.6 (Joules/Mol)
                                   31.74298 (Kcal/Mol)
 Warning -- explicit consideration of   3 degrees of freedom as
           vibrations may cause significant error
 Vibrational temperatures:    567.79   609.85   829.99   936.69  1128.13
          (Kelvin)           1238.33  1367.62  1619.00  1709.08  1961.85
                             2050.99  4331.60  4418.24  4569.94  4608.22

 Zero-point correction=                           0.050586 (Hartree/Particle)
 Thermal correction to Energy=                    0.054573
 Thermal correction to Enthalpy=                  0.055517
 Thermal correction to Gibbs Free Energy=         0.024796
 Sum of electronic and zero-point Energies=           -116.173024
 Sum of electronic and thermal Energies=              -116.169037
 Sum of electronic and thermal Enthalpies=            -116.168093
 Sum of electronic and thermal Free Energies=         -116.198814

                     E (Thermal)             CV                S
                      KCal/Mol        Cal/Mol-Kelvin    Cal/Mol-Kelvin
 Total                   34.245             13.226             64.657
 Electronic               0.000              0.000              2.755
 Translational            0.889              2.981             36.989
 Rotational               0.889              2.981             21.556
 Vibrational             32.467              7.264              3.357
 Vibration     1          0.762              1.482              0.983
 Vibration     2          0.786              1.418              0.879
 Vibration     3          0.933              1.081              0.491

 Optimization completed.
    -- Stationary point found.
 Normal termination of Gaussian 09 at Thu Jan 24 15:55:55 2019.
