 Gaussian 09, Revision D.01,
 Gaussian 09:  ES64L-G09RevD.01 24-Apr-2013

 ---------------------------
 #p b3lyp/6-311++g(d,p) freq
 ---------------------------

 ---
 min
 ---
 Symbolic Z-matrix:
 Charge =  1 Multiplicity = 2

                         Standard orientation:
 ---------------------------------------------------------------------
 Center     Atomic      Atomic             Coordinates (Angstroms)
 Number     Number       Type             X           Y           Z
 ---------------------------------------------------------------------
      1          6           0       -1.226945    0.000316   -0.014573
      2          1           0       -1.538232   -0.010853    1.057607
      3          1           0       -1.643479    0.920844   -0.440146
      4          1           0       -1.642585   -0.913167   -0.456492
      5          6           0        0.184254    0.000325   -0.017758
      6          6           0        1.429338   -0.000060    0.002587
      7          1           0        2.504413   -0.000312    0.017492
 ---------------------------------------------------------------------

 SCF Done:  E(UB3LYP) =  -116.319175385     A.U. after   18 cycles

 The electronic state is 2-A.
 Alpha  occ. eigenvalues --  -10.52291 -10.51286 -10.44185  -1.09936  -0.99953
 Alpha  occ. eigenvalues --   -0.81882  -0.73537  -0.69713  -0.69274  -0.59168
 Alpha  occ. eigenvalues --   -0.56892
 Alpha virt. eigenvalues --   -0.27105  -0.24997  -0.17502  -0.14409  -0.11957
 Alpha virt. eigenvalues --   -0.11345  -0.10957  -0.08692  -0.07737  -0.06925
 Alpha virt. eigenvalues --   -0.05568  -0.04864  -0.04574  -0.01048  -0.00562

  Beta  occ. eigenvalues --  -10.51796 -10.50405 -10.44131  -1.07269  -0.98363
  Beta  occ. eigenvalues --   -0.80776  -0.72916  -0.68977  -0.66960  -0.55860
  Beta virt. eigenvalues --   -0.46922  -0.24268  -0.22108  -0.17283  -0.13847
  Beta virt. eigenvalues --   -0.11644  -0.10920  -0.10911  -0.08120  -0.07654
  Beta virt. eigenvalues --   -0.06741  -0.05161  -0.04495  -0.04201  -0.00872

 Mulliken charges and spin densities:
               1          2
     1  C   -0.176600   0.026909
     2  H    0.269906   0.074065
     3  H    0.253116   0.012231
     4  H    0.253495   0.012999
     5  C    1.697037   0.348657
     6  C   -1.542878   0.547691
     7  H    0.245924  -0.022551
 Sum of Mulliken charges =   1.00000   1.00000

 Dipole moment (field-independent basis, Debye):
    X=              0.8051    Y=             -0.0051    Z=              0.2444  Tot=              0.8414
 Quadrupole moment (field-independent basis, Debye-Ang):
   XX=             -1.6174   YY=            -16.5668   ZZ=            -15.1091
   XY=              0.0066   XZ=             -0.2941   YZ=             -0.0057

  Exact polarizability:  50.139   0.023  20.490  -0.809   0.019  18.996
 Approx polarizability:  78.435   0.037  25.868  -1.579  -0.004  26.370

                      1                      2                      3
                      A                      A                      A
 Frequencies --    214.6288               347.4169               438.0981
 Red. masses --      1.3074                 2.1929                 3.1969
 Frc consts  --      0.0355                 0.1559                 0.3615
 IR Inten    --    131.6913                12.0267                39.2587

                      4                      5                      6
                      A                      A                      A
 Frequencies --    647.1253               716.0659               870.0657
 Red. masses --      1.2243                 1.2730                 1.8347
 Frc consts  --      0.3021                 0.3846                 0.8183
 IR Inten    --     53.0801                 6.2245                35.8378

                      7                      8                      9
                      A                      A                      A
 Frequencies --    978.7760              1209.7866              1277.4581
 Red. masses --      3.3094                 1.1134                 1.1194
 Frc consts  --      1.8680                 0.9601                 1.0763
 IR Inten    --     19.4048                26.5557               129.5300

                     10                     11                     12
                      A                      A                      A
 Frequencies --   1424.5921              2078.4687              2850.4904
 Red. masses --      1.1486                 6.4109                 1.0632
 Frc consts  --      1.3734                16.3177                 5.0898
 IR Inten    --     10.5484                 4.4766               213.2963

                     13                     14                     15
                      A                      A                      A
 Frequencies --   3020.5094              3031.8884              3357.0143
 Red. masses --      1.0571                 1.0870                 1.1510
 Frc consts  --      5.6826                 5.8870                 7.6424
 IR Inten    --     54.0367                68.1219               239.3136

 - Thermochemistry -
 -------------------
 Temperature   298.150 Kelvin.  Pressure   1.00000 Atm.
 Atom     1 has atomic number  6 and mass  12.00000

 Molecular mass:    40.03130 amu.
 Principal axes and moments of inertia in atomic units:
                           1         2         3
     Eigenvalues --    11.54645 209.05567 209.61590
           X            1.00000   0.00005  -0.00215
           Y           -0.00005   1.00000   0.00027
           Z            0.00215  -0.00027   1.00000
 This molecule is an asymmetric top.
 Rotational symmetry number  1.
 Rotational temperatures (Kelvin)      7.50134     0.41431     0.41320
 Rotational constants (GHZ):         156.30267     8.63283     8.60975
 Zero-point vibrational energy     134354.9 (Joules/Mol)
                                   32.11159 (Kcal/Mol)
 Warning -- explicit consideration of   3 degrees of freedom as
           vibrations may cause significant error
 Vibrational temperatures:    308.80   499.85   630.32   931.07  1030.26
          (Kelvin)           1251.83  1408.24  1740.61  1837.97  2049.67
                             2990.45  4101.21  4345.83  4362.21  4829.99

 Zero-point correction=                           0.051173 (Hartree/Particle)
 Thermal correction to Energy=                    0.055560
 Thermal correction to Enthalpy=                  0.056504
 Thermal correction to Gibbs Free Energy=         0.025980
 Sum of electronic and zero-point Energies=           -116.268002
 Sum of electronic and thermal Energies=              -116.263615
 Sum of electronic and thermal Enthalpies=            -116.262671
 Sum of electronic and thermal Free Energies=         -116.293195

                     E (Thermal)             CV                S
                      KCal/Mol        Cal/Mol-Kelvin    Cal/Mol-Kelvin
 Total                   34.865             13.889             64.243
 Electronic               0.000              0.000              1.377
 Translational            0.889              2.981             36.989
 Rotational               0.889              2.981             20.853
 Vibrational             33.087              7.927              5.023
 Vibration     1          0.645              1.819              2.004
 Vibration     2          0.725              1.581              1.178
 Vibration     3          0.798              1.387              0.833

 Optimization completed.
    -- Stationary point found.
 Normal termination of Gaussian 09 at Thu Jan 24 15:53:57 2019.
