 Gaussian 09, Revision D.01,
 Gaussian 09:  ES64L-G09RevD.01 24-Apr-2013

 ---------------------------
 #p b3lyp/6-311++g(d,p) freq
 ---------------------------

 ---
 min
 ---
 Symbolic Z-matrix:
 Charge =  1 Multiplicity = 2

                         Standard orientation:
 ---------------------------------------------------------------------
 Center     Atomic      Atomic             Coordinates (Angstroms)
 Number     Number       Type             X           Y           Z
 ---------------------------------------------------------------------
      1          6           0        1.313932    0.000000    0.000055
      2          1           0        1.877426    0.850734   -0.390830
      3          1           0        1.877393   -0.850734    0.390988
      4          6           0        0.000000    0.000000    0.000000
      5          6           0       -1.313932    0.000000   -0.000055
      6          1           0       -1.877393   -0.850736   -0.390984
      7          1           0       -1.877426    0.850736    0.390826
 ---------------------------------------------------------------------

 SCF Done:  E(UB3LYP) =  -116.345251865     A.U. after   12 cycles

 The electronic state is 2-A.
 Alpha  occ. eigenvalues --  -10.50914 -10.47858 -10.47855  -1.09361  -1.00081
 Alpha  occ. eigenvalues --   -0.80097  -0.73882  -0.73423  -0.70578  -0.59409
 Alpha  occ. eigenvalues --   -0.52444
 Alpha virt. eigenvalues --   -0.32861  -0.22813  -0.17551  -0.13629  -0.11987
 Alpha virt. eigenvalues --   -0.10649  -0.09786  -0.08740  -0.06298  -0.06249
 Alpha virt. eigenvalues --   -0.04846  -0.03032  -0.02529  -0.01403   0.00121

  Beta  occ. eigenvalues --  -10.50571 -10.47330 -10.47327  -1.07404  -0.98233
  Beta  occ. eigenvalues --   -0.78847  -0.73037  -0.72005  -0.69374  -0.57339
  Beta virt. eigenvalues --   -0.42156  -0.29749  -0.20640  -0.17232  -0.13380
  Beta virt. eigenvalues --   -0.11893  -0.10183  -0.09613  -0.08427  -0.06130
  Beta virt. eigenvalues --   -0.05746  -0.04522  -0.02433  -0.02152  -0.01142

 Mulliken charges and spin densities:
               1          2
     1  C   -0.386938   0.385730
     2  H    0.245204   0.007136
     3  H    0.245204   0.007136
     4  C    0.793061   0.199995
     5  C   -0.386938   0.385730
     6  H    0.245204   0.007136
     7  H    0.245204   0.007136
 Sum of Mulliken charges =   1.00000   1.00000

 Dipole moment (field-independent basis, Debye):
    X=              0.0000    Y=              0.0000    Z=             -0.0000  Tot=              0.0000
 Quadrupole moment (field-independent basis, Debye-Ang):
   XX=             -2.5980   YY=            -13.6639   ZZ=            -17.1963
   XY=              0.0000   XZ=              0.0006   YZ=             -0.0000

  Exact polarizability:  55.061  -0.000  20.363   0.002  -0.000  17.383
 Approx polarizability:  91.411  -0.000  27.169   0.003  -0.000  22.706

                      1                      2                      3
                      A                      A                      A
 Frequencies --    325.0042               345.3371               784.4456
 Red. masses --      1.9204                 3.1260                 1.2829
 Frc consts  --      0.1195                 0.2197                 0.4651
 IR Inten    --     12.2058                18.1730                 7.1697

                      4                      5                      6
                      A                      A                      A
 Frequencies --    803.3174               911.6566               934.6926
 Red. masses --      1.0112                 1.4143                 1.4201
 Frc consts  --      0.3845                 0.6925                 0.7310
 IR Inten    --      0.0000                29.7525                61.0021

                      7                      8                      9
                      A                      A                      A
 Frequencies --    997.4724              1066.7868              1348.2693
 Red. masses --      1.6531                 2.5266                 1.0802
 Frc consts  --      0.9690                 1.6941                 1.1569
 IR Inten    --      0.0035                 0.0000                93.8529

                     10                     11                     12
                      A                      A                      A
 Frequencies --   1393.9863              1637.2735              3057.0442
 Red. masses --      1.3716                10.2943                 1.0489
 Frc consts  --      1.5703                16.2588                 5.7756
 IR Inten    --      0.0000                19.3250               200.7073

                     13                     14                     15
                      A                      A                      A
 Frequencies --   3074.2163              3150.0109              3152.5013
 Red. masses --      1.0568                 1.1122                 1.1158
 Frc consts  --      5.8846                 6.5021                 6.5334
 IR Inten    --      0.0000                29.5682               122.0081

 - Thermochemistry -
 -------------------
 Temperature   298.150 Kelvin.  Pressure   1.00000 Atm.
 Atom     1 has atomic number  6 and mass  12.00000

 Molecular mass:    40.03130 amu.
 Principal axes and moments of inertia in atomic units:
                           1         2         3
     Eigenvalues --    12.61897 200.90462 209.12393
           X            1.00000   0.00000  -0.00004
           Y           -0.00000   1.00000   0.00000
           Z            0.00004  -0.00000   1.00000
 This molecule is an asymmetric top.
 Rotational symmetry number  1.
 Rotational temperatures (Kelvin)      6.86378     0.43112     0.41417
 Rotational constants (GHZ):         143.01811     8.98307     8.63001
 Zero-point vibrational energy     137463.0 (Joules/Mol)
                                   32.85444 (Kcal/Mol)
 Warning -- explicit consideration of   2 degrees of freedom as
           vibrations may cause significant error
 Vibrational temperatures:    467.61   496.86  1128.64  1155.79  1311.67
          (Kelvin)           1344.81  1435.14  1534.87  1939.86  2005.63
                             2355.67  4398.40  4423.11  4532.16  4535.74

 Zero-point correction=                           0.052357 (Hartree/Particle)
 Thermal correction to Energy=                    0.056290
 Thermal correction to Enthalpy=                  0.057235
 Thermal correction to Gibbs Free Energy=         0.027476
 Sum of electronic and zero-point Energies=           -116.292895
 Sum of electronic and thermal Energies=              -116.288961
 Sum of electronic and thermal Enthalpies=            -116.288017
 Sum of electronic and thermal Free Energies=         -116.317775

                     E (Thermal)             CV                S
                      KCal/Mol        Cal/Mol-Kelvin    Cal/Mol-Kelvin
 Total                   35.323             12.403             62.631
 Electronic               0.000              0.000              1.377
 Translational            0.889              2.981             36.989
 Rotational               0.889              2.981             20.900
 Vibrational             33.545              6.441              3.365
 Vibration     1          0.709              1.625              1.285
 Vibration     2          0.724              1.585              1.187

 Optimization completed.
    -- Stationary point found.
 Normal termination of Gaussian 09 at Thu Jan 24 15:53:51 2019.
