 Gaussian 09, Revision D.01,
 Gaussian 09:  ES64L-G09RevD.01 24-Apr-2013

 ---------------------------
 #p b3lyp/6-311++g(d,p) freq
 ---------------------------

 ---
 min
 ---
 Symbolic Z-matrix:
 Charge =  1 Multiplicity = 4

                         Standard orientation:
 ---------------------------------------------------------------------
 Center     Atomic      Atomic             Coordinates (Angstroms)
 Number     Number       Type             X           Y           Z
 ---------------------------------------------------------------------
      1          6           0        0.000000    1.350111   -0.092235
      2          1           0        0.000000    2.156907    0.635269
      3          1           0        0.000000    1.592083   -1.155901
      4          6           0        0.000000    0.000000    0.358013
      5          6           0       -0.000000   -1.350111   -0.092235
      6          1           0       -0.000000   -1.592083   -1.155901
      7          1           0       -0.000000   -2.156907    0.635269
 ---------------------------------------------------------------------

 SCF Done:  E(UB3LYP) =  -116.228539120     A.U. after   11 cycles

 The electronic state is 4-B2.
 Alpha  occ. eigenvalues --  -10.54604 -10.48478 -10.48477  -1.09439  -0.98455
 Alpha  occ. eigenvalues --   -0.81336  -0.73384  -0.72760  -0.68064  -0.63912
 Alpha  occ. eigenvalues --   -0.51796  -0.49385
 Alpha virt. eigenvalues --   -0.28277  -0.17068  -0.13457  -0.12587  -0.10772
 Alpha virt. eigenvalues --   -0.10078  -0.09839  -0.08019  -0.05735  -0.05122
 Alpha virt. eigenvalues --   -0.05087  -0.02686  -0.02222  -0.02163  -0.00272

  Beta  occ. eigenvalues --  -10.52346 -10.47336 -10.47336  -1.03168  -0.94222
  Beta  occ. eigenvalues --   -0.77536  -0.70448  -0.70239  -0.66500
  Beta virt. eigenvalues --   -0.47518  -0.34726  -0.34193  -0.18631  -0.16353
  Beta virt. eigenvalues --   -0.12930  -0.12193  -0.09628  -0.09506  -0.08604
  Beta virt. eigenvalues --   -0.07078  -0.04882  -0.04710  -0.03198  -0.01266

 Mulliken charges and spin densities:
               1          2
     1  C   -0.309466   0.806104
     2  H    0.245470  -0.015739
     3  H    0.243591   0.027127
     4  C    0.640810   1.365017
     5  C   -0.309466   0.806104
     6  H    0.243591   0.027127
     7  H    0.245470  -0.015739
 Sum of Mulliken charges =   1.00000   3.00000

 Dipole moment (field-independent basis, Debye):
    X=             -0.0000    Y=             -0.0000    Z=             -0.5507  Tot=              0.5507
 Quadrupole moment (field-independent basis, Debye-Ang):
   XX=            -17.1091   YY=             -4.5682   ZZ=            -14.1935
   XY=              0.0000   XZ=              0.0000   YZ=             -0.0000

  Exact polarizability:  16.476  -0.000  51.609   0.000  -0.000  24.052
 Approx polarizability:  22.215   0.000  69.330   0.000  -0.000  31.619

                      1                      2                      3
                     A1                     A2                     B1
 Frequencies --    309.7858               364.8214               435.5414
 Red. masses --      2.2272                 1.0295                 1.7361
 Frc consts  --      0.1259                 0.0807                 0.1940
 IR Inten    --      3.2289                 0.0000                 3.1823

                      4                      5                      6
                     A2                     B1                     B2
 Frequencies --    772.9075               835.3993               910.7887
 Red. masses --      1.2707                 1.4353                 1.2059
 Frc consts  --      0.4472                 0.5902                 0.5894
 IR Inten    --      0.0000                90.6751                 0.4385

                      7                      8                      9
                     A1                     A1                     B2
 Frequencies --    932.8256              1094.1539              1413.1730
 Red. masses --      2.9649                 1.8549                 1.0825
 Frc consts  --      1.5201                 1.3083                 1.2737
 IR Inten    --      1.6450                 0.1613                20.0663

                     10                     11                     12
                     A1                     B2                     B2
 Frequencies --   1436.9477              1488.3166              3082.4680
 Red. masses --      1.1438                 9.9757                 1.0496
 Frc consts  --      1.3915                13.0192                 5.8760
 IR Inten    --      5.0229               253.8603               112.7987

                     13                     14                     15
                     A1                     B2                     A1
 Frequencies --   3090.0815              3213.2277              3215.4441
 Red. masses --      1.0524                 1.1158                 1.1183
 Frc consts  --      5.9205                 6.7876                 6.8125
 IR Inten    --      7.8076                25.2719                46.5226

 - Thermochemistry -
 -------------------
 Temperature   298.150 Kelvin.  Pressure   1.00000 Atm.
 Atom     1 has atomic number  6 and mass  12.00000

 Molecular mass:    40.03130 amu.
 Principal axes and moments of inertia in atomic units:
                           1         2         3
     Eigenvalues --    18.64870 207.95604 226.60474
           X            0.00000   0.00000   1.00000
           Y            1.00000   0.00000  -0.00000
           Z           -0.00000   1.00000   0.00000
 This molecule is an asymmetric top.
 Rotational symmetry number  2.
 Rotational temperatures (Kelvin)      4.64450     0.41650     0.38222
 Rotational constants (GHZ):          96.77573     8.67847     7.96427
 Zero-point vibrational energy     135153.4 (Joules/Mol)
                                   32.30244 (Kcal/Mol)
 Warning -- explicit consideration of   3 degrees of freedom as
           vibrations may cause significant error
 Vibrational temperatures:    445.71   524.90   626.65  1112.04  1201.95
          (Kelvin)           1310.42  1342.13  1574.24  2033.24  2067.44
                             2141.35  4434.98  4445.93  4623.11  4626.30

 Zero-point correction=                           0.051477 (Hartree/Particle)
 Thermal correction to Energy=                    0.055638
 Thermal correction to Enthalpy=                  0.056583
 Thermal correction to Gibbs Free Energy=         0.026246
 Sum of electronic and zero-point Energies=           -116.177062
 Sum of electronic and thermal Energies=              -116.172901
 Sum of electronic and thermal Enthalpies=            -116.171957
 Sum of electronic and thermal Free Energies=         -116.202294

                     E (Thermal)             CV                S
                      KCal/Mol        Cal/Mol-Kelvin    Cal/Mol-Kelvin
 Total                   34.914             13.345             63.850
 Electronic               0.000              0.000              2.755
 Translational            0.889              2.981             36.989
 Rotational               0.889              2.981             20.024
 Vibrational             33.136              7.383              4.081
 Vibration     1          0.699              1.655              1.363
 Vibration     2          0.738              1.545              1.101
 Vibration     3          0.796              1.393              0.841

 Normal termination of Gaussian 09 at Thu Jan 24 15:54:03 2019.
