 Gaussian 09, Revision D.01,
 Gaussian 09:  ES64L-G09RevD.01 24-Apr-2013

 ---------------------------
 #p b3lyp/6-311++g(d,p) freq
 ---------------------------

 ---
 min
 ---
 Symbolic Z-matrix:
 Charge =  1 Multiplicity = 4

                         Standard orientation:
 ---------------------------------------------------------------------
 Center     Atomic      Atomic             Coordinates (Angstroms)
 Number     Number       Type             X           Y           Z
 ---------------------------------------------------------------------
      1          6           0        0.000000   -0.929676   -0.402228
      2          6           0       -0.000000    0.929676   -0.402228
      3          6           0        0.000000    0.000000    0.712035
      4          1           0       -0.923419   -0.019791    1.314194
      5          1           0       -0.746553   -1.402730   -1.036931
      6          1           0        0.923419    0.019791    1.314194
      7          1           0        0.746553    1.402730   -1.036931
 ---------------------------------------------------------------------

 SCF Done:  E(UB3LYP) =  -116.190375572     A.U. after   11 cycles

 The electronic state is 4-B.
 Alpha  occ. eigenvalues --  -10.53424 -10.53417 -10.47986  -1.14816  -0.90592
 Alpha  occ. eigenvalues --   -0.87241  -0.75189  -0.75106  -0.68610  -0.56202
 Alpha  occ. eigenvalues --   -0.54038  -0.53070
 Alpha virt. eigenvalues --   -0.28378  -0.16565  -0.16109  -0.15362  -0.12664
 Alpha virt. eigenvalues --   -0.09280  -0.08833  -0.06853  -0.06387  -0.06233
 Alpha virt. eigenvalues --   -0.06130  -0.05627  -0.01993  -0.01845  -0.01270

  Beta  occ. eigenvalues --  -10.51053 -10.51050 -10.47980  -1.11110  -0.84688
  Beta  occ. eigenvalues --   -0.83369  -0.72807  -0.71130  -0.66482
  Beta virt. eigenvalues --   -0.41749  -0.36740  -0.33432  -0.20806  -0.16139
  Beta virt. eigenvalues --   -0.14901  -0.14549  -0.11577  -0.09059  -0.08299
  Beta virt. eigenvalues --   -0.05980  -0.05371  -0.04901  -0.04714  -0.04362

 Mulliken charges and spin densities:
               1          2
     1  C    0.152141   1.447737
     2  C    0.152141   1.447737
     3  C   -0.364470  -0.088993
     4  H    0.268183   0.106979
     5  H    0.261911  -0.010219
     6  H    0.268183   0.106979
     7  H    0.261911  -0.010219
 Sum of Mulliken charges =   1.00000   3.00000

 Dipole moment (field-independent basis, Debye):
    X=              0.0000    Y=              0.0000    Z=             -0.1681  Tot=              0.1681
 Quadrupole moment (field-independent basis, Debye-Ang):
   XX=            -14.7504   YY=            -12.0722   ZZ=            -11.9641
   XY=              2.7863   XZ=              0.0000   YZ=             -0.0000

  Exact polarizability:  21.891   2.073  33.491   0.000   0.000  27.756
 Approx polarizability:  28.882   1.600  50.952   0.000  -0.000  37.854

                      1                      2                      3
                      A                      B                      A
 Frequencies --    444.5196               686.3075               717.4549
 Red. masses --      4.3292                 1.2236                 1.0475
 Frc consts  --      0.5040                 0.3396                 0.3177
 IR Inten    --      0.0391                13.9303                29.1812

                      4                      5                      6
                      B                      A                      B
 Frequencies --    738.1471               841.8852               858.3662
 Red. masses --      1.1072                 1.2451                 4.7785
 Frc consts  --      0.3554                 0.5199                 2.0744
 IR Inten    --     43.1842                 2.4564                 2.9616

                      7                      8                      9
                      B                      A                      B
 Frequencies --   1027.1294              1095.2769              1103.2687
 Red. masses --      1.5501                 1.1722                 1.1999
 Frc consts  --      0.9635                 0.8285                 0.8605
 IR Inten    --      1.5495                 2.4411                28.2353

                     10                     11                     12
                      A                      A                      A
 Frequencies --   1201.8077              1375.9418              2934.9843
 Red. masses --      4.1004                 1.1750                 1.0479
 Frc consts  --      3.4894                 1.3107                 5.3182
 IR Inten    --      0.6275                25.9197                57.4661

                     13                     14                     15
                      B                      B                      A
 Frequencies --   3007.9787              3175.2408              3184.3462
 Red. masses --      1.1122                 1.0899                 1.0955
 Frc consts  --      5.9291                 6.4741                 6.5448
 IR Inten    --     39.7446                98.0526                24.5660

 - Thermochemistry -
 -------------------
 Temperature   298.150 Kelvin.  Pressure   1.00000 Atm.
 Atom     1 has atomic number  6 and mass  12.00000

 Molecular mass:    40.03130 amu.
 Principal axes and moments of inertia in atomic units:
                           1         2         3
     Eigenvalues --    65.13981  98.39068 144.72361
           X            0.09682   0.00000   0.99530
           Y            0.99530   0.00000  -0.09682
           Z           -0.00000   1.00000  -0.00000
 This molecule is an asymmetric top.
 Rotational symmetry number  2.
 Rotational temperatures (Kelvin)      1.32966     0.88031     0.59848
 Rotational constants (GHZ):          27.70566    18.34260    12.47026
 Zero-point vibrational energy     133937.8 (Joules/Mol)
                                   32.01191 (Kcal/Mol)
 Warning -- explicit consideration of   1 degrees of freedom as
           vibrations may cause significant error
 Vibrational temperatures:    639.56   987.44  1032.26  1062.03  1211.28
          (Kelvin)           1235.00  1477.81  1575.86  1587.36  1729.13
                             1979.67  4222.78  4327.80  4568.46  4581.56

 Zero-point correction=                           0.051014 (Hartree/Particle)
 Thermal correction to Energy=                    0.054676
 Thermal correction to Enthalpy=                  0.055620
 Thermal correction to Gibbs Free Energy=         0.026106
 Sum of electronic and zero-point Energies=           -116.139361
 Sum of electronic and thermal Energies=              -116.135700
 Sum of electronic and thermal Enthalpies=            -116.134755
 Sum of electronic and thermal Free Energies=         -116.164269

                     E (Thermal)             CV                S
                      KCal/Mol        Cal/Mol-Kelvin    Cal/Mol-Kelvin
 Total                   34.310             12.117             62.118
 Electronic               0.000              0.000              2.755
 Translational            0.889              2.981             36.989
 Rotational               0.889              2.981             20.078
 Vibrational             32.532              6.155              2.296
 Vibration     1          0.804              1.373              0.813

 Normal termination of Gaussian 09 at Thu Jan 24 15:55:26 2019.
