 Gaussian 09, Revision D.01,
 Gaussian 09:  ES64L-G09RevD.01 24-Apr-2013

 ---------------------------
 #p b3lyp/6-311++g(d,p) freq
 ---------------------------

 ---
 min
 ---
 Symbolic Z-matrix:
 Charge =  0 Multiplicity = 1

                         Standard orientation:
 ---------------------------------------------------------------------
 Center     Atomic      Atomic             Coordinates (Angstroms)
 Number     Number       Type             X           Y           Z
 ---------------------------------------------------------------------
      1          6           0        0.775951    0.153591   -0.002037
      2          6           0       -0.620734    0.588667    0.034975
      3          6           0        1.919750   -0.217306   -0.013865
      4          1           0       -1.330152   -1.162692    0.544890
      5          1           0       -0.798241    1.150321    0.961795
      6          1           0       -0.822298    1.264184   -0.799428
      7          1           0        2.930425   -0.545707   -0.031679
      8          8           0       -1.553692   -0.481978   -0.098752
 ---------------------------------------------------------------------

 SCF Done:  E(RB3LYP) =  -191.925898846     A.U. after   12 cycles

 The electronic state is 1-A.
 Alpha  occ. eigenvalues --  -19.13992 -10.25438 -10.18631 -10.17974  -1.04224
 Alpha  occ. eigenvalues --   -0.78566  -0.71070  -0.56535  -0.52651  -0.48665
 Alpha  occ. eigenvalues --   -0.46443  -0.37600  -0.31248  -0.29526  -0.28522
 Alpha virt. eigenvalues --   -0.01804   0.00179   0.01236   0.01408   0.01859
 Alpha virt. eigenvalues --    0.04197   0.05669   0.07727   0.08228   0.09307
 Alpha virt. eigenvalues --    0.09934   0.11092   0.11689   0.12768   0.13555

 Mulliken charges:
               1
     1  C    1.641257
     2  C   -0.170341
     3  C   -1.910533
     4  H    0.243091
     5  H    0.162158
     6  H    0.185791
     7  H    0.118270
     8  O   -0.269693
 Sum of Mulliken charges =  -0.00000

 Dipole moment (field-independent basis, Debye):
    X=              1.0505    Y=              0.1897    Z=              1.1490  Tot=              1.5684
 Quadrupole moment (field-independent basis, Debye-Ang):
   XX=            -24.0696   YY=            -22.3743   ZZ=            -24.5688
   XY=             -2.0013   XZ=             -1.8201   YZ=             -1.7423

  Exact polarizability:  53.583  -4.953  32.319  -0.486  -0.250  27.954
 Approx polarizability:  80.558 -11.423  43.400  -0.078  -0.737  36.626

                      1                      2                      3
                      A                      A                      A
 Frequencies --    198.9193               280.8622               349.9625
 Red. masses --      3.3145                 1.7359                 1.7348
 Frc consts  --      0.0773                 0.0807                 0.1252
 IR Inten    --      4.4704                59.4627                89.1850

                      4                      5                      6
                      A                      A                      A
 Frequencies --    557.9563               664.2777               708.6285
 Red. masses --      6.5448                 1.2385                 1.2579
 Frc consts  --      1.2004                 0.3220                 0.3722
 IR Inten    --     15.6599                56.2083                41.2397

                      7                      8                      9
                      A                      A                      A
 Frequencies --    914.1239               990.5100              1044.7680
 Red. masses --      3.9602                 1.6020                 6.4126
 Frc consts  --      1.9498                 0.9260                 4.1240
 IR Inten    --     27.5184                19.3247               109.1592

                     10                     11                     12
                      A                      A                      A
 Frequencies --   1213.9404              1347.3528              1412.1854
 Red. masses --      1.1022                 1.1835                 1.2311
 Frc consts  --      0.9570                 1.2658                 1.4466
 IR Inten    --     18.0140                 2.5853                55.8985

                     13                     14                     15
                      A                      A                      A
 Frequencies --   1490.3838              2213.8974              2997.9447
 Red. masses --      1.0762                 5.9064                 1.0710
 Frc consts  --      1.4084                17.0566                 5.6713
 IR Inten    --      2.3414                 0.3795                38.1390

                     16                     17                     18
                      A                      A                      A
 Frequencies --   3079.7497              3474.4119              3828.4963
 Red. masses --      1.0901                 1.1624                 1.0667
 Frc consts  --      6.0920                 8.2676                 9.2121
 IR Inten    --      9.5345                62.4320                35.1812

 - Thermochemistry -
 -------------------
 Temperature   298.150 Kelvin.  Pressure   1.00000 Atm.
 Atom     1 has atomic number  6 and mass  12.00000

 Molecular mass:    56.02621 amu.
 Principal axes and moments of inertia in atomic units:
                           1         2         3
     Eigenvalues --    54.68245 387.49518 427.80631
           X            0.99973  -0.02178  -0.00797
           Y            0.02141   0.99883  -0.04346
           Z            0.00891   0.04327   0.99902
 This molecule is an asymmetric top.
 Rotational symmetry number  1.
 Rotational temperatures (Kelvin)      1.58394     0.22352     0.20246
 Rotational constants (GHZ):          33.00403     4.65745     4.21859
 Zero-point vibrational energy     160110.4 (Joules/Mol)
                                   38.26731 (Kcal/Mol)
 Warning -- explicit consideration of   4 degrees of freedom as
           vibrations may cause significant error
 Vibrational temperatures:    286.20   404.10   503.52   802.77   955.75
          (Kelvin)           1019.56  1315.22  1425.12  1503.19  1746.59
                             1938.54  2031.82  2144.33  3185.30  4313.37
                             4431.07  4998.90  5508.35

 Zero-point correction=                           0.060983 (Hartree/Particle)
 Thermal correction to Energy=                    0.065763
 Thermal correction to Enthalpy=                  0.066708
 Thermal correction to Gibbs Free Energy=         0.034340
 Sum of electronic and zero-point Energies=           -191.864916
 Sum of electronic and thermal Energies=              -191.860135
 Sum of electronic and thermal Enthalpies=            -191.859191
 Sum of electronic and thermal Free Energies=         -191.891559

                     E (Thermal)             CV                S
                      KCal/Mol        Cal/Mol-Kelvin    Cal/Mol-Kelvin
 Total                   41.267             15.628             68.123
 Electronic               0.000              0.000              0.000
 Translational            0.889              2.981             37.991
 Rotational               0.889              2.981             23.720
 Vibrational             39.490              9.666              6.412
 Vibration     1          0.637              1.841              2.143
 Vibration     2          0.681              1.709              1.528
 Vibration     3          0.727              1.575              1.166
 Vibration     4          0.914              1.122              0.528

 Normal termination of Gaussian 09 at Sun Mar  4 21:19:11 2018.
