 Gaussian 09, Revision D.01,
 Gaussian 09:  ES64L-G09RevD.01 24-Apr-2013

 ---------------------------
 #p b3lyp/6-311++g(d,p) freq
 ---------------------------

 ---
 min
 ---
 Symbolic Z-matrix:
 Charge =  0 Multiplicity = 1

                         Standard orientation:
 ---------------------------------------------------------------------
 Center     Atomic      Atomic             Coordinates (Angstroms)
 Number     Number       Type             X           Y           Z
 ---------------------------------------------------------------------
      1          6           0       -0.000000    0.864132   -0.000000
      2          6           0        0.000000   -0.501585   -0.645365
      3          1           0        0.913761    1.459515    0.000000
      4          1           0       -0.000001   -1.042399    1.575950
      5          6           0        0.000000   -0.501585    0.645365
      6          1           0       -0.913760    1.459516   -0.000000
      7          1           0       -0.000001   -1.042399   -1.575950
 ---------------------------------------------------------------------

 SCF Done:  E(RB3LYP) =  -116.654350698     A.U. after   10 cycles

 The electronic state is 1-A'.
 Alpha  occ. eigenvalues --  -10.18960 -10.18841 -10.18436  -0.87563  -0.60458
 Alpha  occ. eigenvalues --   -0.56895  -0.50998  -0.44010  -0.35554  -0.30051
 Alpha  occ. eigenvalues --   -0.25996
 Alpha virt. eigenvalues --   -0.01081   0.00297   0.01391   0.01466   0.02986
 Alpha virt. eigenvalues --    0.07131   0.07504   0.08309   0.08781   0.10458
 Alpha virt. eigenvalues --    0.12257   0.12474   0.12541   0.12996   0.15215

 Mulliken charges:
               1
     1  C   -0.293882
     2  C   -0.111712
     3  H    0.104103
     4  H    0.154550
     5  C   -0.111712
     6  H    0.104103
     7  H    0.154550
 Sum of Mulliken charges =  -0.00000

 Dipole moment (field-independent basis, Debye):
    X=             -0.0000    Y=             -0.4648    Z=             -0.0000  Tot=              0.4648
 Quadrupole moment (field-independent basis, Debye-Ang):
   XX=            -19.6832   YY=            -18.7955   ZZ=            -17.0636
   XY=             -0.0000   XZ=             -0.0000   YZ=              0.0000

  Exact polarizability:  25.688   0.000  37.675   0.000  -0.000  35.872
 Approx polarizability:  34.224   0.000  49.784   0.000   0.000  58.816

                      1                      2                      3
                     A'                     A"                     A"
 Frequencies --    604.7965               781.6159               868.5482
 Red. masses --      1.1239                 2.6335                 1.4223
 Frc consts  --      0.2422                 0.9479                 0.6322
 IR Inten    --     92.1793                16.7472                 0.0000

                      4                      5                      6
                     A'                     A"                     A"
 Frequencies --    922.2289              1012.1928              1027.1456
 Red. masses --      1.1408                 1.0905                 1.5579
 Frc consts  --      0.5717                 0.6583                 0.9684
 IR Inten    --      4.9318                 0.0000                40.3160

                      7                      8                      9
                     A"                     A'                     A'
 Frequencies --   1065.8688              1107.8686              1146.2405
 Red. masses --      1.3566                 1.2844                 4.4257
 Frc consts  --      0.9080                 0.9288                 3.4260
 IR Inten    --     25.4921                 1.4137                 0.2071

                     10                     11                     12
                     A'                     A'                     A'
 Frequencies --   1518.6264              1726.1270              3034.1609
 Red. masses --      1.1159                 4.5912                 1.0467
 Frc consts  --      1.5163                 8.0598                 5.6773
 IR Inten    --      1.8112                17.4972                71.9992

                     13                     14                     15
                     A'                     A"                     A'
 Frequencies --   3098.7645              3247.1795              3294.3608
 Red. masses --      1.1176                 1.0841                 1.1465
 Frc consts  --      6.3230                 6.7346                 7.3307
 IR Inten    --     47.2666                 0.2098                 0.0337

 - Thermochemistry -
 -------------------
 Temperature   298.150 Kelvin.  Pressure   1.00000 Atm.
 Atom     1 has atomic number  6 and mass  12.00000

 Molecular mass:    40.03130 amu.
 Principal axes and moments of inertia in atomic units:
                           1         2         3
     Eigenvalues --    59.58321  82.66507 130.22820
           X            0.00000   0.00000   1.00000
           Y            1.00000   0.00000  -0.00000
           Z            0.00000   1.00000   0.00000
 This molecule is an asymmetric top.
 Rotational symmetry number  1.
 Rotational temperatures (Kelvin)      1.45366     1.04777     0.66509
 Rotational constants (GHZ):          30.28942    21.83197    13.85830
 Zero-point vibrational energy     146277.7 (Joules/Mol)
                                   34.96121 (Kcal/Mol)
 Warning -- explicit consideration of   1 degrees of freedom as
           vibrations may cause significant error
 Vibrational temperatures:    870.17  1124.57  1249.65  1326.88  1456.32
          (Kelvin)           1477.83  1533.55  1593.97  1649.18  2184.96
                             2483.51  4365.48  4458.43  4671.96  4739.84

 Zero-point correction=                           0.055714 (Hartree/Particle)
 Thermal correction to Energy=                    0.059047
 Thermal correction to Enthalpy=                  0.059991
 Thermal correction to Gibbs Free Energy=         0.031768
 Sum of electronic and zero-point Energies=           -116.598636
 Sum of electronic and thermal Energies=              -116.595304
 Sum of electronic and thermal Enthalpies=            -116.594360
 Sum of electronic and thermal Free Energies=         -116.622583

                     E (Thermal)             CV                S
                      KCal/Mol        Cal/Mol-Kelvin    Cal/Mol-Kelvin
 Total                   37.052             10.322             59.400
 Electronic               0.000              0.000              0.000
 Translational            0.889              2.981             36.989
 Rotational               0.889              2.981             21.089
 Vibrational             35.275              4.361              1.322
 Vibration     1          0.963              1.022              0.441

 Optimization completed.
    -- Stationary point found.

 1\1\ CITASK-GV0339\Freq\RB3LYP\6-311++G(d,p)\C3H4\EERD\04-Mar-2018\0\\
 #p b3lyp/6-311++g(d,p) freq\\min\\0,1\C,-0.6503709868,-0.2422290492,-0
 .3212629895\C,0.712588997,-0.4204910004,0.3050300063\H,-0.7696918914,-
 0.3737033288,-1.3973289719\H,0.478285,1.853179,0.352444\C,0.3092347372
 ,0.8011321394,0.2004979155\H,-1.5435709025,-0.4878942953,0.2543080253\
 H,1.4632564555,-1.1299652033,0.6077062742\\Version=ES64L-G09RevD.01\St
 ate=1-A'\HF=-116.6543507\RMSD=1.736e-09\RMSF=5.908e-05\ZeroPoint=0.055
 7142\Thermal=0.0590466\Dipole=0.1554823,0.0579135,0.0768565\DipoleDeri

 Normal termination of Gaussian 09 at Sun Mar  4 21:08:52 2018.
