 Gaussian 09, Revision D.01,
 Gaussian 09:  ES64L-G09RevD.01 24-Apr-2013

 ---------------------------
 #p b3lyp/6-311++g(d,p) freq
 ---------------------------

 ---
 min
 ---
 Symbolic Z-matrix:
 Charge =  1 Multiplicity = 2

                         Standard orientation:
 ---------------------------------------------------------------------
 Center     Atomic      Atomic             Coordinates (Angstroms)
 Number     Number       Type             X           Y           Z
 ---------------------------------------------------------------------
      1          6           0        0.000000    0.000000    0.827073
      2          1           0       -0.857559   -0.283163    1.463583
      3          1           0        0.857559    0.283163    1.463583
      4          6           0       -0.000000    0.663650   -0.493610
      5          6           0       -0.000000   -0.663650   -0.493610
      6          1           0        0.183008    1.611961   -0.983144
      7          1           0       -0.183008   -1.611961   -0.983144
 ---------------------------------------------------------------------

 SCF Done:  E(UB3LYP) =  -116.304883050     A.U. after   12 cycles

 The electronic state is 2-B.
 Alpha  occ. eigenvalues --  -10.51217 -10.51126 -10.47772  -1.19549  -0.89111
 Alpha  occ. eigenvalues --   -0.85692  -0.79190  -0.73032  -0.64858  -0.61453
 Alpha  occ. eigenvalues --   -0.53576
 Alpha virt. eigenvalues --   -0.30695  -0.17042  -0.16430  -0.14775  -0.12776
 Alpha virt. eigenvalues --   -0.12472  -0.11410  -0.08172  -0.07946  -0.06197
 Alpha virt. eigenvalues --   -0.05184  -0.04320  -0.03677  -0.01661  -0.01556

  Beta  occ. eigenvalues --  -10.50669 -10.50581 -10.47550  -1.17710  -0.87033
  Beta  occ. eigenvalues --   -0.84396  -0.78272  -0.69837  -0.63584  -0.60435
  Beta virt. eigenvalues --   -0.43041  -0.27270  -0.16170  -0.16091  -0.14529
  Beta virt. eigenvalues --   -0.12407  -0.11928  -0.11133  -0.08087  -0.07864
  Beta virt. eigenvalues --   -0.05693  -0.04436  -0.03695  -0.03425  -0.01579

 Mulliken charges and spin densities:
               1          2
     1  C   -0.285259   0.121228
     2  H    0.251892   0.101622
     3  H    0.251892   0.101622
     4  C    0.115130   0.342180
     5  C    0.115130   0.342180
     6  H    0.275608  -0.004416
     7  H    0.275608  -0.004416
 Sum of Mulliken charges =   1.00000   1.00000

 Dipole moment (field-independent basis, Debye):
    X=              0.0000    Y=             -0.0000    Z=             -0.1061  Tot=              0.1061
 Quadrupole moment (field-independent basis, Debye-Ang):
   XX=            -15.1863   YY=            -10.5853   ZZ=            -11.0345
   XY=              1.2894   XZ=              0.0000   YZ=             -0.0000

  Exact polarizability:  19.273   0.989  28.921   0.000  -0.000  32.087
 Approx polarizability:  27.209   0.291  45.785  -0.000  -0.000  47.621

                      1                      2                      3
                      A                      B                      B
 Frequencies --    399.6440               554.3644               702.1242
 Red. masses --      1.3154                 1.8416                 1.0792
 Frc consts  --      0.1238                 0.3335                 0.3135
 IR Inten    --      8.0362                37.3946                49.1315

                      4                      5                      6
                      B                      A                      A
 Frequencies --    820.7135               900.2948               920.5283
 Red. masses --      1.7964                 1.5815                 1.1862
 Frc consts  --      0.7129                 0.7552                 0.5922
 IR Inten    --     33.8325                18.8063                22.4043

                      7                      8                      9
                      B                      B                      A
 Frequencies --   1009.2354              1018.8455              1114.9839
 Red. masses --      1.4027                 1.5030                 2.2576
 Frc consts  --      0.8418                 0.9192                 1.6536
 IR Inten    --     28.3968                22.5972                 6.1394

                     10                     11                     12
                      A                      A                      A
 Frequencies --   1307.0055              1561.7191              2915.4610
 Red. masses --      1.0635                 4.6053                 1.0473
 Frc consts  --      1.0704                 6.6179                 5.2451
 IR Inten    --     61.0813                17.2107               102.0488

                     13                     14                     15
                      B                      B                      A
 Frequencies --   2943.9744              3215.5698              3259.4446
 Red. masses --      1.0989                 1.0866                 1.1399
 Frc consts  --      5.6116                 6.6197                 7.1351
 IR Inten    --     64.7287               136.9577                25.8312

 - Thermochemistry -
 -------------------
 Temperature   298.150 Kelvin.  Pressure   1.00000 Atm.
 Atom     1 has atomic number  6 and mass  12.00000

 Molecular mass:    40.03130 amu.
 Principal axes and moments of inertia in atomic units:
                           1         2         3
     Eigenvalues --    62.56257  77.73579 129.80809
           X            0.00000   0.07455   0.99722
           Y            0.00000   0.99722  -0.07455
           Z            1.00000  -0.00000  -0.00000
 This molecule is an asymmetric top.
 Rotational symmetry number  2.
 Rotational temperatures (Kelvin)      1.38444     1.11421     0.66725
 Rotational constants (GHZ):          28.84698    23.21635    13.90315
 Zero-point vibrational energy     135440.6 (Joules/Mol)
                                   32.37109 (Kcal/Mol)
 Warning -- explicit consideration of   2 degrees of freedom as
           vibrations may cause significant error
 Vibrational temperatures:    575.00   797.61  1010.20  1180.82  1295.32
          (Kelvin)           1324.43  1452.06  1465.89  1604.21  1880.49
                             2246.96  4194.69  4235.72  4626.48  4689.61

 Zero-point correction=                           0.051587 (Hartree/Particle)
 Thermal correction to Energy=                    0.055312
 Thermal correction to Enthalpy=                  0.056256
 Thermal correction to Gibbs Free Energy=         0.027466
 Sum of electronic and zero-point Energies=           -116.253296
 Sum of electronic and thermal Energies=              -116.249571
 Sum of electronic and thermal Enthalpies=            -116.248627
 Sum of electronic and thermal Free Energies=         -116.277417

                     E (Thermal)             CV                S
                      KCal/Mol        Cal/Mol-Kelvin    Cal/Mol-Kelvin
 Total                   34.709             12.175             60.595
 Electronic               0.000              0.000              1.377
 Translational            0.889              2.981             36.989
 Rotational               0.889              2.981             19.696
 Vibrational             32.931              6.213              2.533
 Vibration     1          0.766              1.471              0.964
 Vibration     2          0.910              1.130              0.535

 Normal termination of Gaussian 09 at Thu Jan 24 15:54:26 2019.
