 Gaussian 09, Revision D.01,
 Gaussian 09:  ES64L-G09RevD.01 24-Apr-2013

 ---------------------------
 #p b3lyp/6-311++g(d,p) freq
 ---------------------------

 ---
 min
 ---
 Symbolic Z-matrix:
 Charge =  0 Multiplicity = 1

                         Standard orientation:
 ---------------------------------------------------------------------
 Center     Atomic      Atomic             Coordinates (Angstroms)
 Number     Number       Type             X           Y           Z
 ---------------------------------------------------------------------
      1          6           0        1.864874    0.005084   -0.004880
      2          1           0        2.306544    0.917057   -0.419409
      3          1           0        2.283860   -0.872506   -0.508844
      4          1           0        2.179756   -0.056399    1.045725
      5          6           0        0.422422    0.013186   -0.016046
      6          6           0       -0.816366    0.017634   -0.004151
      7          6           0       -2.147048   -0.163587    0.004280
      8          1           0       -2.713450    0.777948    0.007313
 ---------------------------------------------------------------------

 SCF Done:  E(RB3LYP) =  -154.692582406     A.U. after   13 cycles

 The electronic state is 1-A.
 Alpha  occ. eigenvalues --  -10.21927 -10.21878 -10.20491 -10.19085  -0.82190
 Alpha  occ. eigenvalues --   -0.76441  -0.67591  -0.50356  -0.46366  -0.46040
 Alpha  occ. eigenvalues --   -0.45232  -0.32888  -0.32484  -0.21011
 Alpha virt. eigenvalues --   -0.12457  -0.01770   0.01295   0.02201   0.02498
 Alpha virt. eigenvalues --    0.03827   0.04969   0.05929   0.08143   0.08288
 Alpha virt. eigenvalues --    0.08962   0.09755   0.10783   0.10811   0.11676

 Mulliken charges:
               1
     1  C   -0.576326
     2  H    0.167772
     3  H    0.170261
     4  H    0.174474
     5  C    0.169700
     6  C    0.453467
     7  C   -0.686371
     8  H    0.127023
 Sum of Mulliken charges =   0.00000

 Dipole moment (field-independent basis, Debye):
    X=              3.3905    Y=              1.4974    Z=              0.1356  Tot=              3.7089
 Quadrupole moment (field-independent basis, Debye-Ang):
   XX=            -24.3616   YY=            -26.5588   ZZ=            -23.9910
   XY=             -4.5543   XZ=              0.3148   YZ=              0.0111

  Exact polarizability:  92.792   2.472  34.770  -0.132   0.267  31.669
 Approx polarizability: 161.137   6.037  45.115  -0.140   0.266  42.705

                      1                      2                      3
                      A                      A                      A
 Frequencies --     89.8789               127.6178               193.4608
 Red. masses --      3.1935                 1.2728                 3.0664
 Frc consts  --      0.0152                 0.0122                 0.0676
 IR Inten    --     15.0823                78.6771                 3.4819

                      4                      5                      6
                      A                      A                      A
 Frequencies --    407.8866               469.7381               784.4558
 Red. masses --      4.1840                 3.6703                 4.2654
 Frc consts  --      0.4101                 0.4772                 1.5465
 IR Inten    --     17.3604                 0.2628                 1.9331

                      7                      8                      9
                      A                      A                      A
 Frequencies --    923.2211              1015.2453              1058.7001
 Red. masses --      1.4141                 1.5924                 1.3090
 Frc consts  --      0.7101                 0.9671                 0.8645
 IR Inten    --     95.7983                18.4645                 0.3579

                     10                     11                     12
                      A                      A                      A
 Frequencies --   1329.3710              1393.8678              1437.2356
 Red. masses --      3.3914                 1.3852                 1.0353
 Frc consts  --      3.5312                 1.5857                 1.2600
 IR Inten    --      1.7393                 5.0156                11.4052

                     13                     14                     15
                      A                      A                      A
 Frequencies --   1487.4879              2078.0742              2999.1325
 Red. masses --      1.0804                10.3981                 1.0337
 Frc consts  --      1.4084                26.4560                 5.4780
 IR Inten    --     19.5607                47.2526                12.8851

                     16                     17                     18
                      A                      A                      A
 Frequencies --   3043.7395              3051.5770              3061.7730
 Red. masses --      1.0867                 1.0953                 1.1046
 Frc consts  --      5.9318                 6.0094                 6.1008
 IR Inten    --     35.7305                28.7895                10.2017

 - Thermochemistry -
 -------------------
 Temperature   298.150 Kelvin.  Pressure   1.00000 Atm.
 Atom     1 has atomic number  6 and mass  12.00000

 Molecular mass:    52.03130 amu.
 Principal axes and moments of inertia in atomic units:
                           1         2         3
     Eigenvalues --    14.48155 468.81718 472.27338
           X            0.99987  -0.01601   0.00099
           Y            0.01600   0.99986   0.00580
           Z           -0.00108  -0.00579   0.99998
 This molecule is an asymmetric top.
 Rotational symmetry number  1.
 Rotational temperatures (Kelvin)      5.98098     0.18475     0.18340
 Rotational constants (GHZ):         124.62351     3.84956     3.82139
 Zero-point vibrational energy     149248.9 (Joules/Mol)
                                   35.67134 (Kcal/Mol)
 Warning -- explicit consideration of   5 degrees of freedom as
           vibrations may cause significant error
 Vibrational temperatures:    129.32   183.61   278.35   586.86   675.85
          (Kelvin)           1128.66  1328.31  1460.71  1523.23  1912.67
                             2005.46  2067.86  2140.16  2989.88  4315.08
                             4379.26  4390.53  4405.20

 Zero-point correction=                           0.056846 (Hartree/Particle)
 Thermal correction to Energy=                    0.062462
 Thermal correction to Enthalpy=                  0.063406
 Thermal correction to Gibbs Free Energy=         0.029410
 Sum of electronic and zero-point Energies=           -154.635737
 Sum of electronic and thermal Energies=              -154.630120
 Sum of electronic and thermal Enthalpies=            -154.629176
 Sum of electronic and thermal Free Energies=         -154.663172

                     E (Thermal)             CV                S
                      KCal/Mol        Cal/Mol-Kelvin    Cal/Mol-Kelvin
 Total                   39.196             16.710             71.550
 Electronic               0.000              0.000              0.000
 Translational            0.889              2.981             37.771
 Rotational               0.889              2.981             22.688
 Vibrational             37.418             10.748             11.092
 Vibration     1          0.602              1.956              3.663
 Vibration     2          0.611              1.926              2.982
 Vibration     3          0.635              1.849              2.194
 Vibration     4          0.772              1.453              0.934
 Vibration     5          0.827              1.317              0.738

 1\1\ CITASK-GV0931\Freq\RB3LYP\6-311++G(d,p)\C4H4\EERD\04-Mar-2018\0\\
 #p b3lyp/6-311++g(d,p) freq\\min\\0,1\C,-1.862922,0.001705,-0.004476\H
 ,-2.305726,-0.908338,-0.422026\H,-2.280777,0.88148,-0.505561\H,-2.1777
 72,0.060123,1.046314\C,-0.420481,-0.008183,-0.015611\C,0.8183,-0.01423
 7,-0.003682\C,2.149209,0.165274,0.005399\H,2.714421,-0.776982,0.005351
 \\Version=ES64L-G09RevD.01\State=1-A\HF=-154.6925824\RMSD=3.169e-09\RM
 SF=7.106e-06\ZeroPoint=0.0568459\Thermal=0.0624621\Dipole=-1.3346805,-
 0.5876119,0.0513484\DipoleDeriv=0.0006307,0.0277211,0.1154758,0.067083

 Normal termination of Gaussian 09 at Sun Mar  4 21:19:06 2018.
