 Gaussian 09, Revision D.01,
 Gaussian 09:  ES64L-G09RevD.01 24-Apr-2013

 ---------------------------
 #p b3lyp/6-311++g(d,p) freq
 ---------------------------

 ---
 min
 ---
 Symbolic Z-matrix:
 Charge =  0 Multiplicity = 1

                         Standard orientation:
 ---------------------------------------------------------------------
 Center     Atomic      Atomic             Coordinates (Angstroms)
 Number     Number       Type             X           Y           Z
 ---------------------------------------------------------------------
      1          6           0       -2.121035   -0.624871    0.000000
      2          6           0        1.356982    0.274660   -0.000000
      3          8           0        1.540785   -0.910978   -0.000000
      4          6           0        0.000000    0.970166   -0.000000
      5          6           0       -1.160365    0.095426    0.000000
      6          1           0       -2.964610   -1.271058    0.000000
      7          1           0        2.208994    0.988658   -0.000000
      8          1           0       -0.012076    1.638964    0.871954
      9          1           0       -0.012076    1.638964   -0.871954
 ---------------------------------------------------------------------

 SCF Done:  E(RB3LYP) =  -230.037329409     A.U. after   13 cycles

 The electronic state is 1-A'.
 Alpha  occ. eigenvalues --  -19.14295 -10.28382 -10.22526 -10.18574 -10.17438
 Alpha  occ. eigenvalues --   -1.07549  -0.81745  -0.73916  -0.61824  -0.53956
 Alpha  occ. eigenvalues --   -0.50765  -0.48208  -0.48002  -0.44467  -0.39520
 Alpha  occ. eigenvalues --   -0.29782  -0.28860  -0.27469
 Alpha virt. eigenvalues --   -0.04804  -0.01772   0.00613   0.00736   0.01998
 Alpha virt. eigenvalues --    0.02449   0.03604   0.04104   0.06951   0.08289
 Alpha virt. eigenvalues --    0.08513   0.08577   0.08703   0.11222   0.11572

 Mulliken charges:
               1
     1  C   -1.809784
     2  C   -0.028131
     3  O   -0.215514
     4  C   -0.104811
     5  C    1.569683
     6  H    0.122167
     7  H    0.117395
     8  H    0.174498
     9  H    0.174498
 Sum of Mulliken charges =  -0.00000

 Dipole moment (field-independent basis, Debye):
    X=             -0.4569    Y=              2.7978    Z=             -0.0000  Tot=              2.8349
 Quadrupole moment (field-independent basis, Debye-Ang):
   XX=            -28.3490   YY=            -28.9046   ZZ=            -29.4781
   XY=              6.4512   XZ=             -0.0000   YZ=             -0.0000

  Exact polarizability:  59.302  10.263  51.089  -0.000  -0.000  30.788
 Approx polarizability:  80.255  19.526  81.544  -0.000  -0.000  42.100

                      1                      2                      3
                     A"                     A'                     A"
 Frequencies --    142.5655               149.0778               321.3064
 Red. masses --      2.0486                 5.4200                 2.5383
 Frc consts  --      0.0245                 0.0710                 0.1544
 IR Inten    --      5.1072                 5.9503                11.6511

                      4                      5                      6
                     A'                     A"                     A'
 Frequencies --    376.9485               681.5480               692.7348
 Red. masses --      6.9864                 1.2602                 1.2685
 Frc consts  --      0.5849                 0.3449                 0.3586
 IR Inten    --      5.1030                49.9833                48.2620

                      7                      8                      9
                     A"                     A'                     A'
 Frequencies --    714.0798               735.3498               829.9560
 Red. masses --      1.3723                 6.3229                 3.9256
 Frc consts  --      0.4123                 2.0144                 1.5932
 IR Inten    --      0.6336                34.9390                13.4554

                     10                     11                     12
                     A'                     A"                     A"
 Frequencies --   1017.2618              1045.3645              1235.4918
 Red. masses --      2.4175                 1.7247                 1.1646
 Frc consts  --      1.4739                 1.1104                 1.0474
 IR Inten    --     10.8510                 0.0447                 0.6443

                     13                     14                     15
                     A'                     A'                     A'
 Frequencies --   1324.6475              1411.7401              1436.8875
 Red. masses --      1.6776                 1.1449                 1.1374
 Frc consts  --      1.7344                 1.3444                 1.3836
 IR Inten    --     29.4133                12.2897                17.8979

                     16                     17                     18
                     A'                     A'                     A'
 Frequencies --   1822.8851              2230.4288              2879.3035
 Red. masses --     10.1005                 5.9088                 1.0835
 Frc consts  --     19.7748                17.3191                 5.2924
 IR Inten    --    179.0179                 1.5556               137.0061

                     19                     20                     21
                     A'                     A"                     A'
 Frequencies --   3002.7979              3024.1373              3476.8684
 Red. masses --      1.0605                 1.0978                 1.1637
 Frc consts  --      5.6337                 5.9151                 8.2880
 IR Inten    --     24.2023                 1.8535                66.0846

 - Thermochemistry -
 -------------------
 Temperature   298.150 Kelvin.  Pressure   1.00000 Atm.
 Atom     1 has atomic number  6 and mass  12.00000

 Molecular mass:    68.02621 amu.
 Principal axes and moments of inertia in atomic units:
                           1         2         3
     Eigenvalues --   141.54315 519.85749 650.45528
           X            0.99970  -0.02445   0.00000
           Y            0.02445   0.99970   0.00000
           Z            0.00000  -0.00000   1.00000
 This molecule is an asymmetric top.
 Rotational symmetry number  1.
 Rotational temperatures (Kelvin)      0.61193     0.16661     0.13316
 Rotational constants (GHZ):          12.75047     3.47161     2.77458
 Zero-point vibrational energy     170775.2 (Joules/Mol)
                                   40.81625 (Kcal/Mol)
 Warning -- explicit consideration of   4 degrees of freedom as
           vibrations may cause significant error
 Vibrational temperatures:    205.12   214.49   462.29   542.34   980.59
          (Kelvin)            996.69  1027.40  1058.00  1194.12  1463.61
                             1504.04  1777.59  1905.87  2031.18  2067.36
                             2622.72  3209.09  4142.67  4320.35  4351.05
                             5002.43

 Zero-point correction=                           0.065045 (Hartree/Particle)
 Thermal correction to Energy=                    0.070523
 Thermal correction to Enthalpy=                  0.071467
 Thermal correction to Gibbs Free Energy=         0.036594
 Sum of electronic and zero-point Energies=           -229.972285
 Sum of electronic and thermal Energies=              -229.966807
 Sum of electronic and thermal Enthalpies=            -229.965862
 Sum of electronic and thermal Free Energies=         -230.000736

                     E (Thermal)             CV                S
                      KCal/Mol        Cal/Mol-Kelvin    Cal/Mol-Kelvin
 Total                   44.254             18.036             73.397
 Electronic               0.000              0.000              0.000
 Translational            0.889              2.981             38.570
 Rotational               0.889              2.981             25.374
 Vibrational             42.476             12.075              9.454
 Vibration     1          0.616              1.911              2.769
 Vibration     2          0.618              1.904              2.684
 Vibration     3          0.707              1.633              1.303
 Vibration     4          0.748              1.519              1.051

 Optimization completed.
    -- Stationary point found.
 Normal termination of Gaussian 09 at Sun Mar  4 21:21:29 2018.
