 Gaussian 09, Revision D.01,
 Gaussian 09:  ES64L-G09RevD.01 24-Apr-2013

 ---------------------------
 #p b3lyp/6-311++g(d,p) freq
 ---------------------------

 ---
 min
 ---
 Symbolic Z-matrix:
 Charge =  0 Multiplicity = 1

                         Standard orientation:
 ---------------------------------------------------------------------
 Center     Atomic      Atomic             Coordinates (Angstroms)
 Number     Number       Type             X           Y           Z
 ---------------------------------------------------------------------
      1          6           0       -2.091475   -0.639357    0.000000
      2          6           0        1.388448    0.395769    0.000000
      3          8           0        1.699903   -0.772249    0.000000
      4          6           0        0.000000    0.922559    0.000000
      5          6           0       -1.059813    0.146720    0.000000
      6          1           0       -2.535640   -0.983567    0.929014
      7          1           0        2.165598    1.187393    0.000000
      8          1           0       -0.116505    2.003589    0.000000
      9          1           0       -2.535640   -0.983567   -0.929014
 ---------------------------------------------------------------------

 SCF Done:  E(RB3LYP) =  -230.049848322     A.U. after   13 cycles

 The electronic state is 1-A'.
 Alpha  occ. eigenvalues --  -19.12673 -10.27189 -10.22633 -10.20394 -10.20213
 Alpha  occ. eigenvalues --   -1.05734  -0.82866  -0.75234  -0.63309  -0.52879
 Alpha  occ. eigenvalues --   -0.50683  -0.47768  -0.47323  -0.43547  -0.40894
 Alpha  occ. eigenvalues --   -0.30594  -0.29420  -0.26825
 Alpha virt. eigenvalues --   -0.07936  -0.02757  -0.00610   0.00901   0.02139
 Alpha virt. eigenvalues --    0.02594   0.04820   0.04856   0.07005   0.07187
 Alpha virt. eigenvalues --    0.07687   0.10101   0.10472   0.10849   0.11701

 Mulliken charges:
               1
     1  C   -0.476847
     2  C   -0.144909
     3  O   -0.261939
     4  C   -0.187368
     5  C    0.492293
     6  H    0.143947
     7  H    0.112647
     8  H    0.178231
     9  H    0.143947
 Sum of Mulliken charges =  -0.00000

 Dipole moment (field-independent basis, Debye):
    X=             -2.1860    Y=              2.0097    Z=              0.0000  Tot=              2.9694
 Quadrupole moment (field-independent basis, Debye-Ang):
   XX=            -28.7179   YY=            -29.3080   ZZ=            -28.9640
   XY=              6.4140   XZ=             -0.0000   YZ=             -0.0000

  Exact polarizability:  76.842  15.021  53.323   0.000  -0.000  31.043
 Approx polarizability: 110.722  24.833  84.005  -0.000  -0.000  42.147

                      1                      2                      3
                     A'                     A"                     A"
 Frequencies --    148.2309               149.2230               361.8172
 Red. masses --      5.0972                 2.0301                 1.6034
 Frc consts  --      0.0660                 0.0266                 0.1237
 IR Inten    --      5.7541                10.5562                 5.4611

                      4                      5                      6
                     A'                     A"                     A'
 Frequencies --    416.0588               507.9346               778.4983
 Red. masses --      6.9592                 1.5691                 6.0648
 Frc consts  --      0.7098                 0.2385                 2.1656
 IR Inten    --      4.5635                 1.9473                64.8967

                      7                      8                      9
                     A'                     A"                     A'
 Frequencies --    873.8758               890.4479               902.3185
 Red. masses --      1.3272                 1.1083                 3.9597
 Frc consts  --      0.5971                 0.5178                 1.8995
 IR Inten    --     57.0693                22.3352                26.1127

                     10                     11                     12
                     A"                     A"                     A'
 Frequencies --    991.3274              1022.3663              1125.7580
 Red. masses --      1.6315                 1.7559                 1.5764
 Frc consts  --      0.9446                 1.0813                 1.1771
 IR Inten    --      0.4854                 1.1139                25.0875

                     13                     14                     15
                     A'                     A'                     A'
 Frequencies --   1352.5461              1420.0113              1454.0897
 Red. masses --      1.4815                 1.1975                 1.5990
 Frc consts  --      1.5969                 1.4227                 1.9919
 IR Inten    --     55.8377                 9.6149                22.0576

                     16                     17                     18
                     A'                     A'                     A'
 Frequencies --   1761.2184              2024.8882              2899.8375
 Red. masses --      9.5775                 9.8998                 1.0832
 Frc consts  --     17.5036                23.9154                 5.3667
 IR Inten    --    246.5380               185.9597               163.6610

                     19                     20                     21
                     A'                     A'                     A"
 Frequencies --   3122.2972              3140.2094              3197.6324
 Red. masses --      1.0594                 1.0886                 1.1142
 Frc consts  --      6.0852                 6.3244                 6.7121
 IR Inten    --      1.5256                 4.0973                 0.3457

 - Thermochemistry -
 -------------------
 Temperature   298.150 Kelvin.  Pressure   1.00000 Atm.
 Atom     1 has atomic number  6 and mass  12.00000

 Molecular mass:    68.02621 amu.
 Principal axes and moments of inertia in atomic units:
                           1         2         3
     Eigenvalues --   126.74955 553.75767 668.08249
           X            0.99817  -0.06044   0.00000
           Y            0.06044   0.99817   0.00000
           Z            0.00000  -0.00000   1.00000
 This molecule is an asymmetric top.
 Rotational symmetry number  1.
 Rotational temperatures (Kelvin)      0.68335     0.15641     0.12965
 Rotational constants (GHZ):          14.23864     3.25908     2.70137
 Zero-point vibrational energy     170710.6 (Joules/Mol)
                                   40.80082 (Kcal/Mol)
 Warning -- explicit consideration of   5 degrees of freedom as
           vibrations may cause significant error
 Vibrational temperatures:    213.27   214.70   520.57   598.62   730.80
          (Kelvin)           1120.08  1257.31  1281.15  1298.23  1426.30
                             1470.96  1619.71  1946.01  2043.08  2092.11
                             2534.00  2913.36  4172.21  4492.28  4518.06
                             4600.67

 Zero-point correction=                           0.065020 (Hartree/Particle)
 Thermal correction to Energy=                    0.070377
 Thermal correction to Enthalpy=                  0.071321
 Thermal correction to Gibbs Free Energy=         0.036675
 Sum of electronic and zero-point Energies=           -229.984828
 Sum of electronic and thermal Energies=              -229.979471
 Sum of electronic and thermal Enthalpies=            -229.978527
 Sum of electronic and thermal Free Energies=         -230.013173

                     E (Thermal)             CV                S
                      KCal/Mol        Cal/Mol-Kelvin    Cal/Mol-Kelvin
 Total                   44.162             17.573             72.918
 Electronic               0.000              0.000              0.000
 Translational            0.889              2.981             38.570
 Rotational               0.889              2.981             25.353
 Vibrational             42.385             11.611              8.995
 Vibration     1          0.618              1.905              2.695
 Vibration     2          0.618              1.904              2.682
 Vibration     3          0.736              1.551              1.114
 Vibration     4          0.779              1.435              0.905
 Vibration     5          0.863              1.232              0.639

 Optimization completed.
    -- Stationary point found.
 Normal termination of Gaussian 09 at Sun Mar  4 21:21:27 2018.
