 Gaussian 09, Revision D.01,
 Gaussian 09:  ES64L-G09RevD.01 24-Apr-2013

 ---------------------------
 #p b3lyp/6-311++g(d,p) freq
 ---------------------------

 ---
 min
 ---
 Symbolic Z-matrix:
 Charge =  0 Multiplicity = 1

                         Standard orientation:
 ---------------------------------------------------------------------
 Center     Atomic      Atomic             Coordinates (Angstroms)
 Number     Number       Type             X           Y           Z
 ---------------------------------------------------------------------
      1          6           0        0.448964    1.248350    0.640672
      2          6           0       -0.579871   -1.056097    0.000000
      3          8           0        0.448964   -1.692167    0.000000
      4          6           0       -0.664892    0.434080    0.000000
      5          6           0        0.448964    1.248350   -0.640672
      6          1           0        0.867562    1.520635    1.592794
      7          1           0       -1.683133    0.824989    0.000000
      8          1           0       -1.562694   -1.577015    0.000000
      9          1           0        0.867562    1.520635   -1.592794
 ---------------------------------------------------------------------

 SCF Done:  E(RB3LYP) =  -230.011668723     A.U. after   12 cycles

 The electronic state is 1-A'.
 Alpha  occ. eigenvalues --  -19.12114 -10.25935 -10.21569 -10.21441 -10.21215
 Alpha  occ. eigenvalues --   -1.05172  -0.90273  -0.69000  -0.59280  -0.56745
 Alpha  occ. eigenvalues --   -0.51733  -0.50106  -0.43653  -0.40610  -0.38466
 Alpha  occ. eigenvalues --   -0.31242  -0.30029  -0.25747
 Alpha virt. eigenvalues --   -0.04637  -0.02311  -0.00442   0.00730   0.01369
 Alpha virt. eigenvalues --    0.02646   0.05085   0.06413   0.06896   0.07760
 Alpha virt. eigenvalues --    0.09605   0.10499   0.11216   0.11248   0.11746

 Mulliken charges:
               1
     1  C   -0.189154
     2  C   -0.141230
     3  O   -0.286018
     4  C    0.173776
     5  C   -0.189154
     6  H    0.188725
     7  H    0.161986
     8  H    0.092345
     9  H    0.188725
 Sum of Mulliken charges =  -0.00000

 Dipole moment (field-independent basis, Debye):
    X=             -1.3068    Y=              2.6494    Z=             -0.0000  Tot=              2.9542
 Quadrupole moment (field-independent basis, Debye-Ang):
   XX=            -28.9125   YY=            -32.9468   ZZ=            -26.0604
   XY=              4.1263   XZ=              0.0000   YZ=              0.0000

  Exact polarizability:  48.627   5.060  51.296   0.000   0.000  41.421
 Approx polarizability:  71.656   2.429  68.260   0.000  -0.000  68.310

                      1                      2                      3
                     A"                     A'                     A"
 Frequencies --     98.7787               244.9394               316.7445
 Red. masses --      2.5160                 5.4984                 2.2611
 Frc consts  --      0.0145                 0.1944                 0.1337
 IR Inten    --      8.5832                11.9068                 4.9406

                      4                      5                      6
                     A'                     A'                     A"
 Frequencies --    622.5383               761.9625               763.2302
 Red. masses --      1.2439                 3.6882                 3.9119
 Frc consts  --      0.2840                 1.2616                 1.3426
 IR Inten    --     61.7289                53.5391                 0.8115

                      7                      8                      9
                     A"                     A'                     A'
 Frequencies --    839.0355               874.7128               970.1071
 Red. masses --      1.4644                 2.8011                 1.3124
 Frc consts  --      0.6074                 1.2627                 0.7277
 IR Inten    --      0.9031                 1.7522                12.8839

                     10                     11                     12
                     A"                     A"                     A"
 Frequencies --    991.5633              1011.9524              1068.6851
 Red. masses --      1.3212                 1.4888                 1.5341
 Frc consts  --      0.7653                 0.8983                 1.0323
 IR Inten    --     37.9194                 0.6288                 6.8685

                     13                     14                     15
                     A'                     A'                     A'
 Frequencies --   1109.6803              1354.8854              1408.8280
 Red. masses --      4.8982                 1.2654                 1.2148
 Frc consts  --      3.5537                 1.3686                 1.4206
 IR Inten    --     81.6622                20.5744                 5.0509

                     16                     17                     18
                     A'                     A'                     A'
 Frequencies --   1752.2021              1785.7099              2869.5285
 Red. masses --      4.9814                 9.5521                 1.0826
 Frc consts  --      9.0109                17.9462                 5.2524
 IR Inten    --     39.5894               160.9425               151.2403

                     19                     20                     21
                     A'                     A"                     A'
 Frequencies --   3076.2939              3266.9522              3318.6464
 Red. masses --      1.0863                 1.0844                 1.1536
 Frc consts  --      6.0572                 6.8192                 7.4858
 IR Inten    --     54.9401                 6.7883                 2.7661

 - Thermochemistry -
 -------------------
 Temperature   298.150 Kelvin.  Pressure   1.00000 Atm.
 Atom     1 has atomic number  6 and mass  12.00000

 Molecular mass:    68.02621 amu.
 Principal axes and moments of inertia in atomic units:
                           1         2         3
     Eigenvalues --   136.41553 437.65498 467.19036
           X            0.10705   0.99425   0.00000
           Y            0.99425  -0.10705   0.00000
           Z           -0.00000  -0.00000   1.00000
 This molecule is an asymmetric top.
 Rotational symmetry number  1.
 Rotational temperatures (Kelvin)      0.63493     0.19790     0.18539
 Rotational constants (GHZ):          13.22973     4.12366     3.86297
 Zero-point vibrational energy     170509.6 (Joules/Mol)
                                   40.75277 (Kcal/Mol)
 Warning -- explicit consideration of   3 degrees of freedom as
           vibrations may cause significant error
 Vibrational temperatures:    142.12   352.41   455.72   895.69  1096.29
          (Kelvin)           1098.12  1207.18  1258.52  1395.77  1426.64
                             1455.97  1537.60  1596.58  1949.38  2026.99
                             2521.02  2569.24  4128.61  4426.10  4700.41
                             4774.79

 Zero-point correction=                           0.064944 (Hartree/Particle)
 Thermal correction to Energy=                    0.070048
 Thermal correction to Enthalpy=                  0.070992
 Thermal correction to Gibbs Free Energy=         0.036938
 Sum of electronic and zero-point Energies=           -229.946725
 Sum of electronic and thermal Energies=              -229.941621
 Sum of electronic and thermal Enthalpies=            -229.940677
 Sum of electronic and thermal Free Energies=         -229.974731

                     E (Thermal)             CV                S
                      KCal/Mol        Cal/Mol-Kelvin    Cal/Mol-Kelvin
 Total                   43.956             16.887             71.672
 Electronic               0.000              0.000              0.000
 Translational            0.889              2.981             38.570
 Rotational               0.889              2.981             24.837
 Vibrational             42.178             10.925              8.265
 Vibration     1          0.604              1.950              3.478
 Vibration     2          0.660              1.771              1.767
 Vibration     3          0.704              1.642              1.327

 Optimization completed.
    -- Stationary point found.
 Normal termination of Gaussian 09 at Sun Mar  4 21:21:15 2018.
