 Gaussian 09, Revision D.01,
 Gaussian 09:  ES64L-G09RevD.01 24-Apr-2013

 ---------------------------
 #p b3lyp/6-311++g(d,p) freq
 ---------------------------

 ---
 min
 ---
 Symbolic Z-matrix:
 Charge =  0 Multiplicity = 1

                         Standard orientation:
 ---------------------------------------------------------------------
 Center     Atomic      Atomic             Coordinates (Angstroms)
 Number     Number       Type             X           Y           Z
 ---------------------------------------------------------------------
      1          6           0       -1.488464    0.623041    0.000000
      2          1           0       -1.864466    1.165903    0.875880
      3          1           0       -1.880818   -0.392219    0.000000
      4          1           0       -1.864466    1.165903   -0.875880
      5          6           0        0.000000    0.649051    0.000000
      6          1           0        0.462967    1.638458    0.000000
      7          6           0        0.791027   -0.422113    0.000000
      8          6           0        1.555234   -1.446320    0.000000
 ---------------------------------------------------------------------

 SCF Done:  E(RB3LYP) =  -154.705813555     A.U. after   13 cycles

 The electronic state is 1-A'.
 Alpha  occ. eigenvalues --  -10.26811 -10.21289 -10.20327 -10.17512  -0.84601
 Alpha  occ. eigenvalues --   -0.75278  -0.67341  -0.54342  -0.47127  -0.46318
 Alpha  occ. eigenvalues --   -0.42362  -0.33174  -0.28178  -0.27338
 Alpha virt. eigenvalues --   -0.13798  -0.02458   0.00451   0.01740   0.02272
 Alpha virt. eigenvalues --    0.03259   0.05619   0.06121   0.06151   0.07263
 Alpha virt. eigenvalues --    0.07690   0.10047   0.10327   0.11029   0.12134

 Mulliken charges:
               1
     1  C   -0.634964
     2  H    0.167404
     3  H    0.175972
     4  H    0.167404
     5  C   -0.625532
     6  H    0.194010
     7  C    0.914196
     8  C   -0.358491
 Sum of Mulliken charges =  -0.00000

 Dipole moment (field-independent basis, Debye):
    X=             -3.6787    Y=              4.0374    Z=             -0.0000  Tot=              5.4620
 Quadrupole moment (field-independent basis, Debye-Ang):
   XX=            -28.5299   YY=            -28.2812   ZZ=            -24.4060
   XY=              4.2638   XZ=              0.0000   YZ=             -0.0000

  Exact polarizability:  58.452 -21.487  59.156   0.000  -0.000  33.372
 Approx polarizability:  86.676 -45.302 103.233   0.000   0.000  46.700

                      1                      2                      3
                     A"                     A'                     A"
 Frequencies --    143.9593               194.6298               242.2668
 Red. masses --      1.2287                 4.8232                 4.0588
 Frc consts  --      0.0150                 0.1076                 0.1404
 IR Inten    --      0.3106                 1.4166                 3.0904

                      4                      5                      6
                     A'                     A"                     A'
 Frequencies --    531.4915               779.1569               868.4685
 Red. masses --      3.8191                 1.1506                 2.2471
 Frc consts  --      0.6356                 0.4116                 0.9986
 IR Inten    --      8.4462                 9.9881                17.7886

                      7                      8                      9
                     A"                     A'                     A'
 Frequencies --   1064.0062              1120.6584              1184.7420
 Red. masses --      1.7039                 1.9439                 1.9068
 Frc consts  --      1.1365                 1.4384                 1.5769
 IR Inten    --      0.0530                 7.4158                 7.1629

                     10                     11                     12
                     A'                     A'                     A"
 Frequencies --   1386.4498              1405.0816              1468.0139
 Red. masses --      1.2231                 1.5939                 1.0459
 Frc consts  --      1.3852                 1.8541                 1.3280
 IR Inten    --     25.6573                18.0089                11.1322

                     13                     14                     15
                     A'                     A'                     A'
 Frequencies --   1487.5558              2042.2231              3011.7564
 Red. masses --      1.2445                11.3676                 1.0395
 Frc consts  --      1.6225                27.9335                 5.5554
 IR Inten    --     14.2394               508.3158                 0.4233

                     16                     17                     18
                     A"                     A'                     A'
 Frequencies --   3054.2580              3087.8309              3144.5988
 Red. masses --      1.0963                 1.0873                 1.0999
 Frc consts  --      6.0257                 6.1080                 6.4080
 IR Inten    --      2.6113                 9.2232                 6.3018

 - Thermochemistry -
 -------------------
 Temperature   298.150 Kelvin.  Pressure   1.00000 Atm.
 Atom     1 has atomic number  6 and mass  12.00000

 Molecular mass:    52.03130 amu.
 Principal axes and moments of inertia in atomic units:
                           1         2         3
     Eigenvalues --    43.29385 380.98980 413.23951
           X            0.81511   0.57930   0.00000
           Y           -0.57930   0.81511   0.00000
           Z           -0.00000   0.00000   1.00000
 This molecule is an asymmetric top.
 Rotational symmetry number  1.
 Rotational temperatures (Kelvin)      2.00060     0.22734     0.20960
 Rotational constants (GHZ):          41.68585     4.73698     4.36730
 Zero-point vibrational energy     156813.4 (Joules/Mol)
                                   37.47929 (Kcal/Mol)
 Warning -- explicit consideration of   4 degrees of freedom as
           vibrations may cause significant error
 Vibrational temperatures:    207.13   280.03   348.57   764.70  1121.03
          (Kelvin)           1249.53  1530.87  1612.38  1704.58  1994.79
                             2021.60  2112.14  2140.26  2938.30  4333.24
                             4394.39  4442.69  4524.37

 Zero-point correction=                           0.059727 (Hartree/Particle)
 Thermal correction to Energy=                    0.064723
 Thermal correction to Enthalpy=                  0.065668
 Thermal correction to Gibbs Free Energy=         0.032821
 Sum of electronic and zero-point Energies=           -154.646086
 Sum of electronic and thermal Energies=              -154.641090
 Sum of electronic and thermal Enthalpies=            -154.640146
 Sum of electronic and thermal Free Energies=         -154.672993

                     E (Thermal)             CV                S
                      KCal/Mol        Cal/Mol-Kelvin    Cal/Mol-Kelvin
 Total                   40.615             15.082             69.132
 Electronic               0.000              0.000              0.000
 Translational            0.889              2.981             37.771
 Rotational               0.889              2.981             23.437
 Vibrational             38.837              9.120              7.924
 Vibration     1          0.616              1.909              2.751
 Vibration     2          0.635              1.847              2.183
 Vibration     3          0.658              1.776              1.786
 Vibration     4          0.886              1.180              0.584

 Optimization completed.
    -- Stationary point found.

 1\1\ CITASK-GV2403\Freq\RB3LYP\6-311++G(d,p)\C4H4\EERD\04-Mar-2018\0\\
 #p b3lyp/6-311++g(d,p) freq\\min\\0,1\C,-1.579252,-0.331745,0.\H,-2.19
 6895,-0.098094,0.87588\H,-1.326239,-1.390366,0.\H,-2.196895,-0.098094,
 -0.87588\C,-0.368374,0.534267,0.\H,-0.548572,1.611668,0.\C,0.890784,0.
 101096,0.\C,2.101213,-0.308629,0.\\Version=ES64L-G09RevD.01\State=1-A'
 \HF=-154.7058136\RMSD=1.313e-09\RMSF=3.526e-05\ZeroPoint=0.0597271\The
 rmal=0.0647234\Dipole=-2.0930683,0.4867279,0.\DipoleDeriv=-0.4221911,-
 0.0724241,0.,-0.0246764,0.0003542,0.,0.,0.,0.0219957,0.0528326,0.01375

 Normal termination of Gaussian 09 at Sun Mar  4 21:18:51 2018.
