 Gaussian 09, Revision D.01,
 Gaussian 09:  ES64L-G09RevD.01 24-Apr-2013

 ---------------------------
 #p b3lyp/6-311++g(d,p) freq
 ---------------------------

 ---
 min
 ---
 Symbolic Z-matrix:
 Charge =  1 Multiplicity = 2

                         Standard orientation:
 ---------------------------------------------------------------------
 Center     Atomic      Atomic             Coordinates (Angstroms)
 Number     Number       Type             X           Y           Z
 ---------------------------------------------------------------------
      1          6           0        0.131338   -0.126345    0.000000
      2          6           0       -1.014264    0.705266   -0.000001
      3          1           0       -2.050106    0.335057   -0.000005
      4          1           0       -0.922991    1.794895    0.000002
      5          6           0       -0.831228   -1.085460   -0.000005
      6          6           0        1.523706    0.094578    0.000004
      7          1           0        1.925141    1.099592    0.000008
      8          1           0        2.190649   -0.757775    0.000004
 ---------------------------------------------------------------------

 SCF Done:  E(UB3LYP) =  -154.330665399     A.U. after   17 cycles

 The electronic state is 2-A.
 Alpha  occ. eigenvalues --  -10.54270 -10.51509 -10.48284 -10.45167  -1.16685
 Alpha  occ. eigenvalues --   -0.98737  -0.90410  -0.78671  -0.72551  -0.68537
 Alpha  occ. eigenvalues --   -0.65496  -0.64700  -0.55431  -0.48393
 Alpha virt. eigenvalues --   -0.36438  -0.31423  -0.20638  -0.16443  -0.13807
 Alpha virt. eigenvalues --   -0.11502  -0.10672  -0.10281  -0.09572  -0.08058
 Alpha virt. eigenvalues --   -0.07013  -0.05749  -0.04195  -0.03871  -0.02366

  Beta  occ. eigenvalues --  -10.54273 -10.51001 -10.48400 -10.44015  -1.16235
  Beta  occ. eigenvalues --   -0.95912  -0.89690  -0.77970  -0.71933  -0.67983
  Beta  occ. eigenvalues --   -0.64911  -0.62796  -0.55365
  Beta virt. eigenvalues --   -0.36222  -0.34240  -0.31295  -0.18441  -0.16194
  Beta virt. eigenvalues --   -0.13586  -0.11411  -0.10314  -0.10130  -0.08521
  Beta virt. eigenvalues --   -0.07995  -0.06960  -0.04955  -0.04090  -0.03801

 Mulliken charges and spin densities:
               1          2
     1  C    0.864813  -0.091212
     2  C   -0.493129   0.350038
     3  H    0.331413  -0.015942
     4  H    0.300655  -0.013739
     5  C   -0.078686  -0.000701
     6  C   -0.383053   0.855988
     7  H    0.222055  -0.042896
     8  H    0.235932  -0.041536
 Sum of Mulliken charges =   1.00000   1.00000

 Dipole moment (field-independent basis, Debye):
    X=             -0.0480    Y=              2.0122    Z=              0.0000  Tot=              2.0128
 Quadrupole moment (field-independent basis, Debye-Ang):
   XX=            -11.6161   YY=            -17.1707   ZZ=            -23.0389
   XY=             -3.2702   XZ=              0.0000   YZ=              0.0000

  Exact polarizability:  55.920  -3.595  42.761   0.000   0.000  23.055
 Approx polarizability:  83.162 -11.950  79.808   0.000   0.000  33.958

                      1                      2                      3
                      A                      A                      A
 Frequencies --    216.8482               309.0725               333.7994
 Red. masses --      1.6978                 1.8154                 1.1129
 Frc consts  --      0.0470                 0.1022                 0.0731
 IR Inten    --      6.4029                10.2822                 0.6446

                      4                      5                      6
                      A                      A                      A
 Frequencies --    398.0021               508.4257               641.9463
 Red. masses --      4.4740                 1.5928                 2.0258
 Frc consts  --      0.4176                 0.2426                 0.4919
 IR Inten    --     17.9911                 3.0584                57.7293

                      7                      8                      9
                      A                      A                      A
 Frequencies --    816.9499               898.4930               940.7981
 Red. masses --      1.3553                 1.3676                 3.3011
 Frc consts  --      0.5329                 0.6505                 1.7215
 IR Inten    --     28.6515                59.4954                 1.3030

                     10                     11                     12
                      A                      A                      A
 Frequencies --    995.7740              1235.5469              1371.1487
 Red. masses --      1.7427                 2.6213                 1.2204
 Frc consts  --      1.0181                 2.3576                 1.3518
 IR Inten    --     15.4125                39.3699                59.1365

                     13                     14                     15
                      A                      A                      A
 Frequencies --   1462.4137              1653.8984              3027.6595
 Red. masses --      1.1435                 9.6125                 1.0571
 Frc consts  --      1.4409                15.4919                 5.7090
 IR Inten    --      8.1149                53.8733               205.6376

                     16                     17                     18
                      A                      A                      A
 Frequencies --   3124.3922              3159.6890              3280.9274
 Red. masses --      1.1063                 1.0505                 1.1239
 Frc consts  --      6.3628                 6.1795                 7.1282
 IR Inten    --     92.8288                25.4300                14.5754

 - Thermochemistry -
 -------------------
 Temperature   298.150 Kelvin.  Pressure   1.00000 Atm.
 Atom     1 has atomic number  6 and mass  12.00000

 Molecular mass:    52.03130 amu.
 Principal axes and moments of inertia in atomic units:
                           1         2         3
     Eigenvalues --    90.55746 222.95580 313.51325
           X            0.99879  -0.04911  -0.00000
           Y            0.04911   0.99879  -0.00000
           Z            0.00000   0.00000   1.00000
 This molecule is an asymmetric top.
 Rotational symmetry number  1.
 Rotational temperatures (Kelvin)      0.95645     0.38848     0.27627
 Rotational constants (GHZ):          19.92924     8.09461     5.75651
 Zero-point vibrational energy     145799.6 (Joules/Mol)
                                   34.84693 (Kcal/Mol)
 Warning -- explicit consideration of   5 degrees of freedom as
           vibrations may cause significant error
 Vibrational temperatures:    312.00   444.69   480.26   572.64   731.51
          (Kelvin)            923.62  1175.41  1292.73  1353.60  1432.69
                             1777.67  1972.77  2104.08  2379.59  4356.12
                             4495.30  4546.08  4720.52

 Zero-point correction=                           0.055532 (Hartree/Particle)
 Thermal correction to Energy=                    0.060598
 Thermal correction to Enthalpy=                  0.061543
 Thermal correction to Gibbs Free Energy=         0.028416
 Sum of electronic and zero-point Energies=           -154.275133
 Sum of electronic and thermal Energies=              -154.270067
 Sum of electronic and thermal Enthalpies=            -154.269123
 Sum of electronic and thermal Free Energies=         -154.302249

                     E (Thermal)             CV                S
                      KCal/Mol        Cal/Mol-Kelvin    Cal/Mol-Kelvin
 Total                   38.026             17.074             69.720
 Electronic               0.000              0.000              1.377
 Translational            0.889              2.981             37.771
 Rotational               0.889              2.981             23.364
 Vibrational             36.249             11.112              7.209
 Vibration     1          0.646              1.815              1.985
 Vibration     2          0.698              1.656              1.367
 Vibration     3          0.715              1.608              1.242
 Vibration     4          0.764              1.474              0.970
 Vibration     5          0.864              1.231              0.637

 Optimization completed.
    -- Stationary point found.
 Normal termination of Gaussian 09 at Thu Jan 24 16:05:35 2019.
