 Gaussian 09, Revision D.01,
 Gaussian 09:  ES64L-G09RevD.01 24-Apr-2013

 ---------------------------
 #p b3lyp/6-311++g(d,p) freq
 ---------------------------

 ---
 min
 ---
 Symbolic Z-matrix:
 Charge =  0 Multiplicity = 1

                         Standard orientation:
 ---------------------------------------------------------------------
 Center     Atomic      Atomic             Coordinates (Angstroms)
 Number     Number       Type             X           Y           Z
 ---------------------------------------------------------------------
      1          6           0        0.000000    0.000000    1.591746
      2          1           0       -0.000000   -0.928444    2.148656
      3          1           0        0.000000    0.928444    2.148656
      4          6           0       -0.000000    0.000000    0.262067
      5          6           0        0.000000   -0.658984   -1.019478
      6          1           0        0.000000   -1.571673   -1.593229
      7          6           0        0.000000    0.658984   -1.019478
      8          1           0        0.000000    1.571673   -1.593229
 ---------------------------------------------------------------------

 SCF Done:  E(RB3LYP) =  -154.746700135     A.U. after   11 cycles

 The electronic state is 1-A1.
 Alpha  occ. eigenvalues --  -10.21913 -10.21817 -10.20621 -10.13903  -0.91733
 Alpha  occ. eigenvalues --   -0.71444  -0.59522  -0.56961  -0.48056  -0.42601
 Alpha  occ. eigenvalues --   -0.38924  -0.38133  -0.31129  -0.21414
 Alpha virt. eigenvalues --   -0.03454  -0.00328   0.01091   0.01748   0.02739
 Alpha virt. eigenvalues --    0.03948   0.05406   0.07093   0.07753   0.09379
 Alpha virt. eigenvalues --    0.10187   0.10612   0.11263   0.11469   0.12857

 Mulliken charges:
               1
     1  C   -0.454359
     2  H    0.116190
     3  H    0.116190
     4  C    0.339269
     5  C   -0.211933
     6  H    0.153289
     7  C   -0.211933
     8  H    0.153289
 Sum of Mulliken charges =  -0.00000

 Dipole moment (field-independent basis, Debye):
    X=              0.0000    Y=             -0.0000    Z=             -2.1285  Tot=              2.1285
 Quadrupole moment (field-independent basis, Debye-Ang):
   XX=            -27.0100   YY=            -20.6361   ZZ=            -23.1230
   XY=              0.0000   XZ=             -0.0000   YZ=             -0.0000

  Exact polarizability:  30.053  -0.000  41.889   0.000   0.000  66.551
 Approx polarizability:  40.431   0.000  66.094  -0.000   0.000  95.724

                      1                      2                      3
                     B2                     B1                     B1
 Frequencies --    359.2586               427.3485               687.6425
 Red. masses --      2.2661                 2.6551                 1.4961
 Frc consts  --      0.1723                 0.2857                 0.4168
 IR Inten    --      4.1996                29.3460                32.2095

                      4                      5                      6
                     A2                     B1                     A1
 Frequencies --    707.4565               773.0962               840.8217
 Red. masses --      1.0926                 1.3055                 1.8240
 Frc consts  --      0.3222                 0.4597                 0.7598
 IR Inten    --      0.0000                90.9243                 0.3225

                      7                      8                      9
                     B2                     A2                     A1
 Frequencies --    847.2856               913.1154              1017.6365
 Red. masses --      1.9942                 1.4024                 1.6292
 Frc consts  --      0.8435                 0.6889                 0.9940
 IR Inten    --      6.0582                 0.0000                 8.1688

                     10                     11                     12
                     B2                     B2                     A1
 Frequencies --   1060.0775              1116.1864              1452.6885
 Red. masses --      1.5728                 2.2178                 1.1540
 Frc consts  --      1.0413                 1.6280                 1.4349
 IR Inten    --      8.7924                 9.2066                 1.5478

                     13                     14                     15
                     A1                     A1                     A1
 Frequencies --   1594.5303              1818.9037              3142.0245
 Red. masses --      6.0814                 7.5943                 1.0557
 Frc consts  --      9.1101                14.8032                 6.1407
 IR Inten    --     28.2247               227.8287                 2.9912

                     16                     17                     18
                     B2                     B2                     A1
 Frequencies --   3225.8914              3234.9327              3276.2639
 Red. masses --      1.1160                 1.0868                 1.1407
 Frc consts  --      6.8425                 6.7011                 7.2143
 IR Inten    --     11.0551                 1.2505                 2.4740

 - Thermochemistry -
 -------------------
 Temperature   298.150 Kelvin.  Pressure   1.00000 Atm.
 Atom     1 has atomic number  6 and mass  12.00000

 Molecular mass:    52.03130 amu.
 Principal axes and moments of inertia in atomic units:
                           1         2         3
     Eigenvalues --    61.20346 252.01312 313.21657
           X            0.00000  -0.00000   1.00000
           Y            0.00000   1.00000   0.00000
           Z            1.00000   0.00000   0.00000
 This molecule is an asymmetric top.
 Rotational symmetry number  2.
 Rotational temperatures (Kelvin)      1.41518     0.34369     0.27653
 Rotational constants (GHZ):          29.48757     7.16130     5.76196
 Zero-point vibrational energy     158476.3 (Joules/Mol)
                                   37.87673 (Kcal/Mol)
 Warning -- explicit consideration of   2 degrees of freedom as
           vibrations may cause significant error
 Vibrational temperatures:    516.89   614.86   989.36  1017.87  1112.31
          (Kelvin)           1209.75  1219.05  1313.77  1464.15  1525.21
                             1605.94  2090.09  2294.17  2616.99  4520.67
                             4641.33  4654.34  4713.81

 Zero-point correction=                           0.060360 (Hartree/Particle)
 Thermal correction to Energy=                    0.064424
 Thermal correction to Enthalpy=                  0.065368
 Thermal correction to Gibbs Free Energy=         0.035409
 Sum of electronic and zero-point Energies=           -154.686340
 Sum of electronic and thermal Energies=              -154.682276
 Sum of electronic and thermal Enthalpies=            -154.681332
 Sum of electronic and thermal Free Energies=         -154.711291

                     E (Thermal)             CV                S
                      KCal/Mol        Cal/Mol-Kelvin    Cal/Mol-Kelvin
 Total                   40.427             14.043             63.055
 Electronic               0.000              0.000              0.000
 Translational            0.889              2.981             37.771
 Rotational               0.889              2.981             21.718
 Vibrational             38.649              8.082              3.567
 Vibration     1          0.734              1.556              1.125
 Vibration     2          0.789              1.411              0.867

 Optimization completed.
    -- Stationary point found.

 1\1\ CITASK-GV0945\Freq\RB3LYP\6-311++G(d,p)\C4H4\EERD\04-Mar-2018\0\\
 #p b3lyp/6-311++g(d,p) freq\\min\\0,1\C,0.0002392079,1.591418,0.\H,-0.
 92812,2.148469,0.\H,0.9287678501,2.1481865301,0.\C,0.000036937,0.26173
 9,0.\C,-0.659142,-1.019705,0.\H,-1.571918,-1.593318,0.\C,0.6588259769,
 -1.0199054894,0.\H,1.5714274185,-1.5937961659,0.\\Version=ES64L-G09Rev
 D.01\State=1-A1\HF=-154.7467001\RMSD=1.078e-09\RMSF=4.179e-05\ZeroPoin
 t=0.0603604\Thermal=0.0644239\Dipole=-0.0001274,-0.8373991,0.\DipoleDe
 riv=0.1553727,-0.0001261,0.,-0.0001262,-0.6737453,0.,0.,0.,-0.504472,-

 Normal termination of Gaussian 09 at Sun Mar  4 21:18:12 2018.
