 Gaussian 09, Revision D.01,
 Gaussian 09:  ES64L-G09RevD.01 24-Apr-2013

 ---------------------------
 #p b3lyp/6-311++g(d,p) freq
 ---------------------------

 ---
 min
 ---
 Symbolic Z-matrix:
 Charge =  0 Multiplicity = 3

                         Standard orientation:
 ---------------------------------------------------------------------
 Center     Atomic      Atomic             Coordinates (Angstroms)
 Number     Number       Type             X           Y           Z
 ---------------------------------------------------------------------
      1          6           0       -0.019727   -1.018223   -0.000043
      2          1           0       -0.040647   -2.098025   -0.000090
      3          6           0        0.019727    1.018223    0.000043
      4          1           0        0.040647    2.098025    0.000090
      5          6           0        1.018223   -0.019727   -0.000021
      6          6           0       -1.018223    0.019727    0.000021
      7          1           0        2.098025   -0.040647   -0.000044
      8          1           0       -2.098025    0.040647    0.000044
 ---------------------------------------------------------------------

 SCF Done:  E(UB3LYP) =  -154.711780932     A.U. after   10 cycles

 The electronic state is 3-AG.
 Alpha  occ. eigenvalues --  -10.19371 -10.19334 -10.19334 -10.19296  -0.89482
 Alpha  occ. eigenvalues --   -0.65483  -0.65483  -0.52867  -0.52400  -0.40453
 Alpha  occ. eigenvalues --   -0.39795  -0.37153  -0.37153  -0.19143  -0.19143
 Alpha virt. eigenvalues --    0.00035   0.01251   0.01251   0.03409   0.03516
 Alpha virt. eigenvalues --    0.05767   0.07338   0.07517   0.09421   0.09421
 Alpha virt. eigenvalues --    0.09738   0.09738   0.12381   0.12897   0.13025

  Beta  occ. eigenvalues --  -10.18633 -10.18595 -10.18595 -10.18560  -0.87247
  Beta  occ. eigenvalues --   -0.63073  -0.63073  -0.52052  -0.50951  -0.39293
  Beta  occ. eigenvalues --   -0.36356  -0.36356  -0.32903
  Beta virt. eigenvalues --   -0.07908  -0.07908   0.00062   0.01300   0.01300
  Beta virt. eigenvalues --    0.03434   0.06208   0.07486   0.07787   0.08493
  Beta virt. eigenvalues --    0.09560   0.09560   0.10622   0.10622   0.12730

 Mulliken charges and spin densities:
               1          2
     1  C   -0.150019   0.526223
     2  H    0.150019  -0.026223
     3  C   -0.150019   0.526223
     4  H    0.150019  -0.026223
     5  C   -0.150019   0.526223
     6  C   -0.150019   0.526223
     7  H    0.150019  -0.026223
     8  H    0.150019  -0.026223
 Sum of Mulliken charges =  -0.00000   2.00000

 Dipole moment (field-independent basis, Debye):
    X=              0.0000    Y=              0.0000    Z=              0.0000  Tot=              0.0000
 Quadrupole moment (field-independent basis, Debye-Ang):
   XX=            -21.9485   YY=            -21.9485   ZZ=            -27.4293
   XY=              0.0000   XZ=             -0.0001   YZ=              0.0002

  Exact polarizability:  51.613   0.000  51.613  -0.000   0.001  32.535
 Approx polarizability:  80.304   0.000  80.304  -0.001   0.002  43.798

                      1                      2                      3
                     AU                     AU                     AG
 Frequencies --    468.8668               557.1804               605.7862
 Red. masses --      1.8744                 1.0848                 1.3274
 Frc consts  --      0.2428                 0.1984                 0.2870
 IR Inten    --      0.0000               138.1244                 0.0000

                      4                      5                      6
                     AG                     AU                     AU
 Frequencies --    605.7863               720.4986               894.5286
 Red. masses --      1.3274                 1.8448                 1.7495
 Frc consts  --      0.2870                 0.5642                 0.8248
 IR Inten    --      0.0000                 0.0000                20.3487

                      7                      8                      9
                     AU                     AG                     AG
 Frequencies --    894.5286               951.6147              1009.5794
 Red. masses --      1.7495                 6.5033                 1.0921
 Frc consts  --      0.8248                 3.4698                 0.6558
 IR Inten    --     20.3487                 0.0000                 0.0000

                     10                     11                     12
                     AG                     AG                     AU
 Frequencies --   1205.9359              1286.5675              1312.1238
 Red. masses --      1.3274                 5.5618                 1.9612
 Frc consts  --      1.1374                 5.4241                 1.9894
 IR Inten    --      0.0000                 0.0000                 6.5208

                     13                     14                     15
                     AU                     AG                     AG
 Frequencies --   1312.1238              1355.2962              3215.2213
 Red. masses --      1.9612                 6.2547                 1.0848
 Frc consts  --      1.9894                 6.7690                 6.6075
 IR Inten    --      6.5208                 0.0000                 0.0000

                     16                     17                     18
                     AU                     AU                     AG
 Frequencies --   3229.0105              3229.0105              3253.3959
 Red. masses --      1.0918                 1.0918                 1.1164
 Frc consts  --      6.7072                 6.7072                 6.9619
 IR Inten    --      5.0241                 5.0241                 0.0000

 - Thermochemistry -
 -------------------
 Temperature   298.150 Kelvin.  Pressure   1.00000 Atm.
 Atom     1 has atomic number  6 and mass  12.00000

 Molecular mass:    52.03130 amu.
 Principal axes and moments of inertia in atomic units:
                           1         2         3
     Eigenvalues --   120.58647 120.58647 241.17293
           X            0.98780  -0.15571   0.00002
           Y            0.15571   0.98780  -0.00004
           Z           -0.00001   0.00005   1.00000
 This molecule is an oblate symmetric top.
 Rotational symmetry number  1.
 Rotational temperatures (Kelvin)      0.71827     0.71827     0.35914
 Rotational constants (GHZ):          14.96637    14.96637     7.48318
 Zero-point vibrational energy     156154.9 (Joules/Mol)
                                   37.32191 (Kcal/Mol)
 Warning -- explicit consideration of   4 degrees of freedom as
           vibrations may cause significant error
 Vibrational temperatures:    674.59   801.66   871.59   871.59  1036.64
          (Kelvin)           1287.03  1287.03  1369.16  1452.56  1735.07
                             1851.08  1887.85  1887.85  1949.97  4625.98
                             4645.82  4645.82  4680.91

 Zero-point correction=                           0.059476 (Hartree/Particle)
 Thermal correction to Energy=                    0.063409
 Thermal correction to Enthalpy=                  0.064353
 Thermal correction to Gibbs Free Energy=         0.033092
 Sum of electronic and zero-point Energies=           -154.652305
 Sum of electronic and thermal Energies=              -154.648372
 Sum of electronic and thermal Enthalpies=            -154.647428
 Sum of electronic and thermal Free Energies=         -154.678689

                     E (Thermal)             CV                S
                      KCal/Mol        Cal/Mol-Kelvin    Cal/Mol-Kelvin
 Total                   39.790             13.813             65.795
 Electronic               0.000              0.000              2.183
 Translational            0.889              2.981             37.771
 Rotational               0.889              2.981             22.777
 Vibrational             38.012              7.852              3.064
 Vibration     1          0.826              1.319              0.741
 Vibration     2          0.913              1.124              0.529
 Vibration     3          0.964              1.020              0.440
 Vibration     4          0.964              1.020              0.440

 Optimization completed.
    -- Stationary point found.
 Normal termination of Gaussian 09 at Sun Mar  4 21:19:37 2018.
