 Gaussian 09, Revision D.01,
 Gaussian 09:  ES64L-G09RevD.01 24-Apr-2013

 ---------------------------
 #p b3lyp/6-311++g(d,p) freq
 ---------------------------

 ---
 min
 ---
 Symbolic Z-matrix:
 Charge =  1 Multiplicity = 4

                         Standard orientation:
 ---------------------------------------------------------------------
 Center     Atomic      Atomic             Coordinates (Angstroms)
 Number     Number       Type             X           Y           Z
 ---------------------------------------------------------------------
      1          6           0       -1.884534   -0.003113    0.000788
      2          1           0       -2.307762   -0.481152   -0.893559
      3          1           0       -2.201977    1.060761   -0.039973
      4          1           0       -2.310295   -0.422430    0.921663
      5          6           0       -0.466195   -0.057175    0.001337
      6          6           0        0.819592   -0.002865    0.000252
      7          6           0        2.154290    0.110555    0.000369
      8          1           0        3.081119   -0.441591   -0.004607
 ---------------------------------------------------------------------

 SCF Done:  E(UB3LYP) =  -154.316206806     A.U. after   19 cycles

 The electronic state is 4-A.
 Alpha  occ. eigenvalues --  -10.51950 -10.49564 -10.48172 -10.41995  -1.09812
 Alpha  occ. eigenvalues --   -1.01541  -0.94214  -0.76430  -0.71747  -0.68278
 Alpha  occ. eigenvalues --   -0.67735  -0.62004  -0.60065  -0.48827  -0.46157
 Alpha virt. eigenvalues --   -0.23803  -0.19322  -0.16548  -0.13665  -0.10864
 Alpha virt. eigenvalues --   -0.10477  -0.09891  -0.07585  -0.06896  -0.06656
 Alpha virt. eigenvalues --   -0.05670  -0.04996  -0.04879  -0.02648  -0.02255

  Beta  occ. eigenvalues --  -10.51503 -10.47920 -10.45734 -10.42017  -1.05021
  Beta  occ. eigenvalues --   -0.98457  -0.90110  -0.73797  -0.70196  -0.65780
  Beta  occ. eigenvalues --   -0.64393  -0.56565
  Beta virt. eigenvalues --   -0.47813  -0.32656  -0.32403  -0.16439  -0.16106
  Beta virt. eigenvalues --   -0.15145  -0.12719  -0.10470  -0.10363  -0.09397
  Beta virt. eigenvalues --   -0.06630  -0.05409  -0.05366  -0.05055  -0.04703

 Mulliken charges and spin densities:
               1          2
     1  C   -0.520298  -0.028061
     2  H    0.237405   0.046863
     3  H    0.249742   0.077543
     4  H    0.236001   0.043924
     5  C    0.258312   1.079576
     6  C    0.871204   0.326104
     7  C   -0.571023   1.490739
     8  H    0.238658  -0.036688
 Sum of Mulliken charges =   1.00000   3.00000

 Dipole moment (field-independent basis, Debye):
    X=              0.1656    Y=             -0.2846    Z=             -0.0215  Tot=              0.3299
 Quadrupole moment (field-independent basis, Debye-Ang):
   XX=              0.0708   YY=            -20.3003   ZZ=            -22.3113
   XY=             -1.8630   XZ=              0.0232   YZ=              0.0111

  Exact polarizability:  86.376   0.413  23.960   0.106   0.016  24.585
 Approx polarizability: 134.089   3.284  33.234   0.190  -0.004  32.323

                      1                      2                      3
                      A                      A                      A
 Frequencies --     27.9269               154.0215               174.8354
 Red. masses --      1.1879                 3.2195                 3.0824
 Frc consts  --      0.0005                 0.0450                 0.0555
 IR Inten    --     81.5530                 8.4857                 8.1765

                      4                      5                      6
                      A                      A                      A
 Frequencies --    332.7593               386.7398               559.9160
 Red. masses --      8.2072                 2.0379                 2.1418
 Frc consts  --      0.5354                 0.1796                 0.3956
 IR Inten    --      0.9535                24.9840                94.8440

                      7                      8                      9
                      A                      A                      A
 Frequencies --    773.8064               798.8627               885.8791
 Red. masses --      4.7984                 1.3155                 1.3884
 Frc consts  --      1.6928                 0.4946                 0.6420
 IR Inten    --     16.1015                17.0478                14.0992

                     10                     11                     12
                      A                      A                      A
 Frequencies --   1249.6107              1294.5281              1326.2525
 Red. masses --      1.0427                 1.1112                 4.2544
 Frc consts  --      0.9593                 1.0972                 4.4090
 IR Inten    --     19.1119                82.6148                95.2247

                     13                     14                     15
                      A                      A                      A
 Frequencies --   1413.0850              1901.0002              2881.7413
 Red. masses --      1.2426                10.7380                 1.0584
 Frc consts  --      1.4619                22.8633                 5.1787
 IR Inten    --     16.5642                39.8723               190.0765

                     16                     17                     18
                      A                      A                      A
 Frequencies --   2993.2967              3014.3900              3274.0278
 Red. masses --      1.0665                 1.0847                 1.1005
 Frc consts  --      5.6299                 5.8073                 6.9505
 IR Inten    --     42.2204                24.5974               188.3641

 - Thermochemistry -
 -------------------
 Temperature   298.150 Kelvin.  Pressure   1.00000 Atm.
 Atom     1 has atomic number  6 and mass  12.00000

 Molecular mass:    52.03130 amu.
 Principal axes and moments of inertia in atomic units:
                           1         2         3
     Eigenvalues --    12.75551 484.22120 485.10318
           X            0.99993  -0.01195   0.00005
           Y            0.01195   0.99993   0.00092
           Z           -0.00006  -0.00092   1.00000
 This molecule is an asymmetric top.
 Rotational symmetry number  1.
 Rotational temperatures (Kelvin)      6.79030     0.17887     0.17855
 Rotational constants (GHZ):         141.48716     3.72710     3.72032
 Zero-point vibrational energy     140218.4 (Joules/Mol)
                                   33.51299 (Kcal/Mol)
 Warning -- explicit consideration of   6 degrees of freedom as
           vibrations may cause significant error
 Vibrational temperatures:     40.18   221.60   251.55   478.77   556.43
          (Kelvin)            805.59  1113.33  1149.38  1274.58  1797.91
                             1862.53  1908.18  2033.11  2735.11  4146.18
                             4306.68  4337.03  4710.59

 Zero-point correction=                           0.053406 (Hartree/Particle)
 Thermal correction to Energy=                    0.059510
 Thermal correction to Enthalpy=                  0.060455
 Thermal correction to Gibbs Free Energy=         0.023586
 Sum of electronic and zero-point Energies=           -154.262800
 Sum of electronic and thermal Energies=              -154.256696
 Sum of electronic and thermal Enthalpies=            -154.255752
 Sum of electronic and thermal Free Energies=         -154.292621

                     E (Thermal)             CV                S
                      KCal/Mol        Cal/Mol-Kelvin    Cal/Mol-Kelvin
 Total                   37.343             18.392             77.596
 Electronic               0.000              0.000              2.755
 Translational            0.889              2.981             37.771
 Rotational               0.889              2.981             22.620
 Vibrational             35.566             12.430             14.451
 Vibration     1          0.593              1.984              5.971
 Vibration     2          0.620              1.898              2.622
 Vibration     3          0.627              1.873              2.383
 Vibration     4          0.715              1.610              1.247
 Vibration     5          0.755              1.499              1.013
 Vibration     6          0.916              1.118              0.524

 Normal termination of Gaussian 09 at Thu Jan 24 16:10:38 2019.
