 Gaussian 09, Revision D.01,
 Gaussian 09:  ES64L-G09RevD.01 24-Apr-2013

 ---------------------------
 #p b3lyp/6-311++g(d,p) freq
 ---------------------------

 ---
 min
 ---
 Symbolic Z-matrix:
 Charge =  1 Multiplicity = 2

                         Standard orientation:
 ---------------------------------------------------------------------
 Center     Atomic      Atomic             Coordinates (Angstroms)
 Number     Number       Type             X           Y           Z
 ---------------------------------------------------------------------
      1          8           0        0.000000    0.452798    0.000000
      2          6           0       -0.981575   -0.499313   -0.000000
      3          6           0       -2.256663   -0.052517    0.000000
      4          6           0        1.242070    0.174809    0.000000
      5          6           0        2.445306    0.012674   -0.000000
      6          1           0       -0.646082   -1.529868   -0.000000
      7          1           0       -3.070236   -0.767550   -0.000000
      8          1           0       -2.481214    1.008392    0.000000
      9          1           0        3.502699   -0.147269   -0.000000
 ---------------------------------------------------------------------

 SCF Done:  E(UB3LYP) =  -229.667024017     A.U. after   16 cycles

 The electronic state is 2-A".
 Alpha  occ. eigenvalues --  -19.49680 -10.49642 -10.48476 -10.43867 -10.43231
 Alpha  occ. eigenvalues --   -1.40913  -1.06025  -0.99927  -0.90685  -0.81844
 Alpha  occ. eigenvalues --   -0.75316  -0.74263  -0.72855  -0.66614  -0.63410
 Alpha  occ. eigenvalues --   -0.55074  -0.52081  -0.49901
 Alpha virt. eigenvalues --   -0.24691  -0.19005  -0.17125  -0.16950  -0.13035
 Alpha virt. eigenvalues --   -0.12513  -0.10670  -0.09950  -0.09429  -0.07141
 Alpha virt. eigenvalues --   -0.07024  -0.06564  -0.05307  -0.03321  -0.02195

  Beta  occ. eigenvalues --  -19.48900 -10.49633 -10.48525 -10.43231 -10.42706
  Beta  occ. eigenvalues --   -1.39583  -1.05192  -0.98065  -0.89623  -0.81426
  Beta  occ. eigenvalues --   -0.74690  -0.72286  -0.70869  -0.66118  -0.63110
  Beta  occ. eigenvalues --   -0.51488  -0.51087
  Beta virt. eigenvalues --   -0.40907  -0.22319  -0.18723  -0.16686  -0.14712
  Beta virt. eigenvalues --   -0.12884  -0.12442  -0.10503  -0.09730  -0.09202
  Beta virt. eigenvalues --   -0.07008  -0.06888  -0.06336  -0.04636  -0.03239

 Mulliken charges and spin densities:
               1          2
     1  O    0.032782   0.228742
     2  C    0.101459   0.018365
     3  C   -0.231565   0.391974
     4  C    0.324896  -0.007743
     5  C   -0.166300   0.425992
     6  H    0.231522  -0.002386
     7  H    0.213287  -0.018502
     8  H    0.233372  -0.018462
     9  H    0.260546  -0.017981
 Sum of Mulliken charges =   1.00000   1.00000

 Dipole moment (field-independent basis, Debye):
    X=             -0.2333    Y=             -1.3009    Z=             -0.0000  Tot=              1.3216
 Quadrupole moment (field-independent basis, Debye-Ang):
   XX=              1.6596   YY=            -24.6831   ZZ=            -27.8766
   XY=              0.4145   XZ=             -0.0000   YZ=             -0.0000

  Exact polarizability: 139.058   5.423  31.675  -0.000  -0.000  23.443
 Approx polarizability: 253.070   8.803  43.841  -0.000   0.000  31.754

                      1                      2                      3
                     A"                     A'                     A'
 Frequencies --    141.6272               173.9533               424.5323
 Red. masses --      3.4358                 3.8739                 3.1286
 Frc consts  --      0.0406                 0.0691                 0.3322
 IR Inten    --      4.7683                 4.7017                 2.2848

                      4                      5                      6
                     A"                     A'                     A"
 Frequencies --    428.6590               555.0009               642.7795
 Red. masses --      6.4068                 6.2778                 1.2823
 Frc consts  --      0.6936                 1.1393                 0.3122
 IR Inten    --      0.0007                 0.1569                 0.2887

                      7                      8                      9
                     A'                     A"                     A'
 Frequencies --    675.0783               683.4515               864.1376
 Red. masses --      1.1884                 1.2596                 2.5272
 Frc consts  --      0.3191                 0.3466                 1.1119
 IR Inten    --     48.4108                26.1243                48.3966

                     10                     11                     12
                     A"                     A"                     A'
 Frequencies --    914.9207              1002.3161              1077.4127
 Red. masses --      1.2215                 1.3780                 3.0375
 Frc consts  --      0.6024                 0.8156                 2.0774
 IR Inten    --     35.2001                29.3031               308.9429

                     13                     14                     15
                     A'                     A'                     A'
 Frequencies --   1155.8459              1310.8162              1402.4325
 Red. masses --      5.1122                 1.4376                 1.2224
 Frc consts  --      4.0240                 1.4554                 1.4165
 IR Inten    --     48.3957                89.5871               135.2628

                     16                     17                     18
                     A'                     A'                     A'
 Frequencies --   1542.9670              2131.0699              3156.7413
 Red. masses --      2.2071                 6.3660                 1.0566
 Frc consts  --      3.0959                17.0338                 6.2034
 IR Inten    --    253.1258               591.0746                22.6299

                     19                     20                     21
                     A'                     A'                     A'
 Frequencies --   3209.7714              3266.4482              3413.4582
 Red. masses --      1.1012                 1.1210                 1.1561
 Frc consts  --      6.6845                 7.0469                 7.9368
 IR Inten    --      5.3423                22.3164               103.6638

 - Thermochemistry -
 -------------------
 Temperature   298.150 Kelvin.  Pressure   1.00000 Atm.
 Atom     1 has atomic number  8 and mass  15.99491

 Molecular mass:    68.02621 amu.
 Principal axes and moments of inertia in atomic units:
                           1         2         3
     Eigenvalues --    35.81015 685.42666 721.23681
           X            0.99831  -0.05812   0.00000
           Y            0.05812   0.99831   0.00000
           Z            0.00000  -0.00000   1.00000
 This molecule is an asymmetric top.
 Rotational symmetry number  1.
 Rotational temperatures (Kelvin)      2.41869     0.12636     0.12009
 Rotational constants (GHZ):          50.39748     2.63302     2.50229
 Zero-point vibrational energy     168514.5 (Joules/Mol)
                                   40.27593 (Kcal/Mol)
 Warning -- explicit consideration of   5 degrees of freedom as
           vibrations may cause significant error
 Vibrational temperatures:    203.77   250.28   610.81   616.74   798.52
          (Kelvin)            924.82   971.29   983.33  1243.30  1316.37
                             1442.11  1550.15  1663.00  1885.97  2017.79
                             2219.98  3066.13  4541.84  4618.14  4699.68
                             4911.20

 Zero-point correction=                           0.064184 (Hartree/Particle)
 Thermal correction to Energy=                    0.069632
 Thermal correction to Enthalpy=                  0.070576
 Thermal correction to Gibbs Free Energy=         0.035709
 Sum of electronic and zero-point Energies=           -229.602840
 Sum of electronic and thermal Energies=              -229.597392
 Sum of electronic and thermal Enthalpies=            -229.596448
 Sum of electronic and thermal Free Energies=         -229.631315

                     E (Thermal)             CV                S
                      KCal/Mol        Cal/Mol-Kelvin    Cal/Mol-Kelvin
 Total                   43.695             18.643             73.383
 Electronic               0.000              0.000              1.377
 Translational            0.889              2.981             38.570
 Rotational               0.889              2.981             24.385
 Vibrational             41.917             12.682              9.050
 Vibration     1          0.615              1.912              2.782
 Vibration     2          0.627              1.875              2.392
 Vibration     3          0.787              1.417              0.877
 Vibration     4          0.790              1.408              0.863
 Vibration     5          0.910              1.129              0.534

 Optimization completed.
    -- Stationary point found.
 Normal termination of Gaussian 09 at Thu Jan 24 16:21:24 2019.
