 Gaussian 09, Revision D.01,
 Gaussian 09:  ES64L-G09RevD.01 24-Apr-2013

 ---------------------------
 #p b3lyp/6-311++g(d,p) freq
 ---------------------------

 ---
 min
 ---
 Symbolic Z-matrix:
 Charge =  1 Multiplicity = 2

                         Standard orientation:
 ---------------------------------------------------------------------
 Center     Atomic      Atomic             Coordinates (Angstroms)
 Number     Number       Type             X           Y           Z
 ---------------------------------------------------------------------
      1          8           0       -2.339527    0.189798    0.000000
      2          6           0        0.000000    0.601318    0.000000
      3          6           0       -1.204786   -0.234050    0.000000
      4          6           0        1.187711    0.035324    0.000000
      5          6           0        2.379292   -0.480399    0.000000
      6          1           0       -0.160053    1.675623    0.000000
      7          1           0       -1.089140   -1.336459    0.000000
      8          1           0        2.896055   -0.695353    0.933984
      9          1           0        2.896055   -0.695353   -0.933984
 ---------------------------------------------------------------------

 SCF Done:  E(UB3LYP) =  -229.697918147     A.U. after   20 cycles

 The electronic state is 2-A'.
 Alpha  occ. eigenvalues --  -19.47793 -10.54256 -10.45460 -10.44464 -10.42176
 Alpha  occ. eigenvalues --   -1.38334  -1.06436  -0.98379  -0.87217  -0.81768
 Alpha  occ. eigenvalues --   -0.75002  -0.72541  -0.70085  -0.69094  -0.67340
 Alpha  occ. eigenvalues --   -0.60582  -0.52804  -0.51876
 Alpha virt. eigenvalues --   -0.31768  -0.23186  -0.19231  -0.15774  -0.13927
 Alpha virt. eigenvalues --   -0.12123  -0.10617  -0.09759  -0.07932  -0.07209
 Alpha virt. eigenvalues --   -0.07005  -0.04254  -0.04080  -0.03301  -0.02873

  Beta  occ. eigenvalues --  -19.45813 -10.54351 -10.45507 -10.44240 -10.41989
  Beta  occ. eigenvalues --   -1.34490  -1.05844  -0.97441  -0.85651  -0.79179
  Beta  occ. eigenvalues --   -0.73145  -0.71138  -0.68777  -0.67935  -0.67067
  Beta  occ. eigenvalues --   -0.52342  -0.51393
  Beta virt. eigenvalues --   -0.44250  -0.31404  -0.22468  -0.19138  -0.15584
  Beta virt. eigenvalues --   -0.13666  -0.11957  -0.10612  -0.09522  -0.07823
  Beta virt. eigenvalues --   -0.07214  -0.06790  -0.04255  -0.03959  -0.02842

 Mulliken charges and spin densities:
               1          2
     1  O    0.135627   0.723816
     2  C   -0.270326   0.016638
     3  C   -0.118729  -0.049197
     4  C    0.566379   0.023819
     5  C   -0.343312   0.156014
     6  H    0.296925   0.013538
     7  H    0.289331   0.131993
     8  H    0.222052  -0.008310
     9  H    0.222052  -0.008310
 Sum of Mulliken charges =   1.00000   1.00000

 Dipole moment (field-independent basis, Debye):
    X=              2.0264    Y=             -1.4166    Z=              0.0000  Tot=              2.4724
 Quadrupole moment (field-independent basis, Debye-Ang):
   XX=            -10.2337   YY=            -22.1247   ZZ=            -25.9760
   XY=             -1.6529   XZ=              0.0000   YZ=             -0.0000

  Exact polarizability: 131.520 -10.685  34.934  -0.000   0.000  26.180
 Approx polarizability: 291.687 -30.040  51.712   0.000  -0.000  36.005

                      1                      2                      3
                     A"                     A'                     A"
 Frequencies --    136.6346               178.9342               267.9212
 Red. masses --      3.0459                 4.3861                 1.3131
 Frc consts  --      0.0335                 0.0827                 0.0555
 IR Inten    --      4.7884                 3.1026                 1.4537

                      4                      5                      6
                     A'                     A"                     A'
 Frequencies --    401.7750               421.7445               489.4290
 Red. masses --      6.1916                 1.8600                 8.1334
 Frc consts  --      0.5889                 0.1949                 1.1479
 IR Inten    --     57.2220                 6.8036                71.3390

                      7                      8                      9
                     A"                     A'                     A"
 Frequencies --    692.5877               753.4035               893.3312
 Red. masses --      1.1941                 6.2291                 1.7629
 Frc consts  --      0.3375                 2.0832                 0.8289
 IR Inten    --     62.0108               341.4200                 0.7400

                     10                     11                     12
                     A'                     A"                     A'
 Frequencies --    947.5237               953.3269              1103.6356
 Red. masses --      1.3264                 1.7009                 2.3889
 Frc consts  --      0.7016                 0.9108                 1.7143
 IR Inten    --     52.0207                 0.5932                16.9220

                     13                     14                     15
                     A'                     A'                     A'
 Frequencies --   1176.6617              1263.5882              1376.7467
 Red. masses --      1.1466                 1.4197                 1.4543
 Frc consts  --      0.9353                 1.3356                 1.6240
 IR Inten    --    175.5983                18.6118               101.6431

                     16                     17                     18
                     A'                     A'                     A'
 Frequencies --   1463.3110              1893.8882              2909.9913
 Red. masses --      3.3664                10.2125                 1.0752
 Frc consts  --      4.2471                21.5820                 5.3644
 IR Inten    --     37.2178               223.9122                75.3609

                     19                     20                     21
                     A'                     A'                     A"
 Frequencies --   3104.3831              3163.6171              3189.2097
 Red. masses --      1.0577                 1.0904                 1.1149
 Frc consts  --      6.0057                 6.4300                 6.6813
 IR Inten    --     60.6515                45.7814                41.1502

 - Thermochemistry -
 -------------------
 Temperature   298.150 Kelvin.  Pressure   1.00000 Atm.
 Atom     1 has atomic number  8 and mass  15.99491

 Molecular mass:    68.02621 amu.
 Principal axes and moments of inertia in atomic units:
                           1         2         3
     Eigenvalues --    48.97905 754.92625 791.34726
           X            0.99496   0.10028   0.00000
           Y           -0.10028   0.99496   0.00000
           Z            0.00000  -0.00000   1.00000
 This molecule is an asymmetric top.
 Rotational symmetry number  1.
 Rotational temperatures (Kelvin)      1.76838     0.11473     0.10945
 Rotational constants (GHZ):          36.84721     2.39062     2.28059
 Zero-point vibrational energy     160189.8 (Joules/Mol)
                                   38.28628 (Kcal/Mol)
 Warning -- explicit consideration of   6 degrees of freedom as
           vibrations may cause significant error
 Vibrational temperatures:    196.59   257.45   385.48   578.06   606.80
          (Kelvin)            704.18   996.48  1083.98  1285.30  1363.27
                             1371.62  1587.88  1692.95  1818.02  1980.83
                             2105.38  2724.88  4186.82  4466.51  4551.73
                             4588.56

 Zero-point correction=                           0.061013 (Hartree/Particle)
 Thermal correction to Energy=                    0.066821
 Thermal correction to Enthalpy=                  0.067765
 Thermal correction to Gibbs Free Energy=         0.032003
 Sum of electronic and zero-point Energies=           -229.636905
 Sum of electronic and thermal Energies=              -229.631097
 Sum of electronic and thermal Enthalpies=            -229.630153
 Sum of electronic and thermal Free Energies=         -229.665915

                     E (Thermal)             CV                S
                      KCal/Mol        Cal/Mol-Kelvin    Cal/Mol-Kelvin
 Total                   41.931             19.477             75.269
 Electronic               0.000              0.000              1.377
 Translational            0.889              2.981             38.570
 Rotational               0.889              2.981             24.885
 Vibrational             40.154             13.515             10.437
 Vibration     1          0.614              1.917              2.850
 Vibration     2          0.629              1.868              2.340
 Vibration     3          0.673              1.732              1.610
 Vibration     4          0.767              1.466              0.956
 Vibration     5          0.784              1.423              0.886
 Vibration     6          0.845              1.273              0.685

 Optimization completed.
    -- Stationary point found.
 Normal termination of Gaussian 09 at Thu Jan 24 16:16:22 2019.
