 Gaussian 09, Revision D.01,
 Gaussian 09:  ES64L-G09RevD.01 24-Apr-2013

 ---------------------------
 #p b3lyp/6-311++g(d,p) freq
 ---------------------------

 ---
 min
 ---
 Symbolic Z-matrix:
 Charge =  1 Multiplicity = 4

                         Standard orientation:
 ---------------------------------------------------------------------
 Center     Atomic      Atomic             Coordinates (Angstroms)
 Number     Number       Type             X           Y           Z
 ---------------------------------------------------------------------
      1          6           0       -0.339405    0.619378    0.000000
      2          1           0       -1.432541    0.625057    0.000000
      3          6           0        0.339405   -0.619378    0.000000
      4          1           0        1.432541   -0.625057    0.000000
      5          6           0        0.339405    1.803807    0.000000
      6          6           0       -0.339405   -1.803807    0.000000
      7          1           0       -0.118329   -2.865255    0.000000
      8          1           0        0.118329    2.865255    0.000000
 ---------------------------------------------------------------------

 SCF Done:  E(UB3LYP) =  -154.337588868     A.U. after   12 cycles

 The electronic state is 4-AU.
 Alpha  occ. eigenvalues --  -10.48412 -10.48411 -10.46089 -10.46042  -1.08783
 Alpha  occ. eigenvalues --   -1.00577  -0.86536  -0.79340  -0.74742  -0.69039
 Alpha  occ. eigenvalues --   -0.67315  -0.60633  -0.51928  -0.50309  -0.49990
 Alpha virt. eigenvalues --   -0.31559  -0.19843  -0.14386  -0.14310  -0.12280
 Alpha virt. eigenvalues --   -0.10229  -0.09603  -0.08420  -0.08419  -0.06276
 Alpha virt. eigenvalues --   -0.05443  -0.03714  -0.03473  -0.02690  -0.02159

  Beta  occ. eigenvalues --  -10.46171 -10.46171 -10.45956 -10.45908  -1.06515
  Beta  occ. eigenvalues --   -0.95860  -0.82537  -0.76966  -0.72842  -0.66990
  Beta  occ. eigenvalues --   -0.65136  -0.57045
  Beta virt. eigenvalues --   -0.40578  -0.32588  -0.31743  -0.25324  -0.17194
  Beta virt. eigenvalues --   -0.13937  -0.13834  -0.11618  -0.09778  -0.09111
  Beta virt. eigenvalues --   -0.08067  -0.07558  -0.05083  -0.04927  -0.03011

 Mulliken charges and spin densities:
               1          2
     1  C    0.026349   0.065938
     2  H    0.245132   0.062473
     3  C    0.026349   0.065938
     4  H    0.245132   0.062473
     5  C   -0.046406   1.381725
     6  C   -0.046406   1.381725
     7  H    0.274925  -0.010136
     8  H    0.274925  -0.010136
 Sum of Mulliken charges =   1.00000   3.00000

 Dipole moment (field-independent basis, Debye):
    X=              0.0000    Y=              0.0000    Z=              0.0000  Tot=              0.0000
 Quadrupole moment (field-independent basis, Debye-Ang):
   XX=            -19.6382   YY=             -1.7239   ZZ=            -22.9641
   XY=             -0.7664   XZ=              0.0000   YZ=              0.0000

  Exact polarizability:  33.357   5.631  80.592  -0.000  -0.000  22.115
 Approx polarizability:  47.732  12.955 123.083  -0.000  -0.000  30.752

                      1                      2                      3
                     AU                     BU                     AG
 Frequencies --    198.7266               296.8907               506.1669
 Red. masses --      3.0095                 2.5874                 3.1755
 Frc consts  --      0.0700                 0.1344                 0.4794
 IR Inten    --      3.8142                 8.6693                 0.0000

                      4                      5                      6
                     AU                     BG                     AG
 Frequencies --    685.1801               702.1077               784.3500
 Red. masses --      1.1653                 1.3131                 1.4117
 Frc consts  --      0.3223                 0.3814                 0.5117
 IR Inten    --     79.0583                 0.0000                 0.0000

                      7                      8                      9
                     BU                     BG                     AU
 Frequencies --    816.2663               955.7382               978.1513
 Red. masses --      1.2550                 1.6088                 1.2392
 Frc consts  --      0.4927                 0.8658                 0.6986
 IR Inten    --     53.4667                 0.0000                18.3069

                     10                     11                     12
                     AG                     BU                     AG
 Frequencies --   1210.0634              1239.7680              1271.0308
 Red. masses --      5.0441                 1.2652                 1.2587
 Frc consts  --      4.3516                 1.1458                 1.1981
 IR Inten    --      0.0000                 0.4795                 0.0000

                     13                     14                     15
                     BU                     AG                     AG
 Frequencies --   1376.8407              1592.3323              3087.9595
 Red. masses --      5.2824                 4.8819                 1.0892
 Frc consts  --      5.8999                 7.2929                 6.1194
 IR Inten    --    181.2404                 0.0000                 0.0000

                     16                     17                     18
                     BU                     BU                     AG
 Frequencies --   3090.8268              3223.7215              3225.4466
 Red. masses --      1.0847                 1.0991                 1.1000
 Frc consts  --      6.1052                 6.7298                 6.7425
 IR Inten    --     27.1750               109.6664                 0.0000

 - Thermochemistry -
 -------------------
 Temperature   298.150 Kelvin.  Pressure   1.00000 Atm.
 Atom     1 has atomic number  6 and mass  12.00000

 Molecular mass:    52.03130 amu.
 Principal axes and moments of inertia in atomic units:
                           1         2         3
     Eigenvalues --    31.90521 376.35976 408.26496
           X            0.08875   0.99605   0.00000
           Y            0.99605  -0.08875   0.00000
           Z            0.00000  -0.00000   1.00000
 This molecule is an asymmetric top.
 Rotational symmetry number  2.
 Rotational temperatures (Kelvin)      2.71472     0.23014     0.21215
 Rotational constants (GHZ):          56.56572     4.79526     4.42051
 Zero-point vibrational energy     150978.1 (Joules/Mol)
                                   36.08463 (Kcal/Mol)
 Warning -- explicit consideration of   3 degrees of freedom as
           vibrations may cause significant error
 Vibrational temperatures:    285.92   427.16   728.26   985.82  1010.18
          (Kelvin)           1128.50  1174.42  1375.09  1407.34  1741.01
                             1783.75  1828.73  1980.96  2291.01  4442.88
                             4447.00  4638.21  4640.69

 Zero-point correction=                           0.057505 (Hartree/Particle)
 Thermal correction to Energy=                    0.062069
 Thermal correction to Enthalpy=                  0.063013
 Thermal correction to Gibbs Free Energy=         0.030766
 Sum of electronic and zero-point Energies=           -154.280084
 Sum of electronic and thermal Energies=              -154.275520
 Sum of electronic and thermal Enthalpies=            -154.274576
 Sum of electronic and thermal Free Energies=         -154.306823

                     E (Thermal)             CV                S
                      KCal/Mol        Cal/Mol-Kelvin    Cal/Mol-Kelvin
 Total                   38.949             15.244             67.870
 Electronic               0.000              0.000              2.755
 Translational            0.889              2.981             37.771
 Rotational               0.889              2.981             21.732
 Vibrational             37.172              9.282              5.612
 Vibration     1          0.637              1.842              2.145
 Vibration     2          0.691              1.680              1.434
 Vibration     3          0.861              1.236              0.643

 Optimization completed.
    -- Stationary point found.
 Normal termination of Gaussian 09 at Thu Jan 24 16:09:41 2019.
