 Gaussian 09, Revision D.01,
 Gaussian 09:  ES64L-G09RevD.01 24-Apr-2013

 ---------------------------
 #p b3lyp/6-311++g(d,p) freq
 ---------------------------

 ---
 min
 ---
 Symbolic Z-matrix:
 Charge =  1 Multiplicity = 2

                         Standard orientation:
 ---------------------------------------------------------------------
 Center     Atomic      Atomic             Coordinates (Angstroms)
 Number     Number       Type             X           Y           Z
 ---------------------------------------------------------------------
      1          6           0       -0.437418   -0.002876    0.545502
      2          1           0       -0.478394   -0.006801    1.629509
      3          6           0       -1.510928    0.001022   -0.236035
      4          1           0       -1.803798    0.005606   -1.279398
      5          6           0        0.958180    0.622815   -0.145704
      6          6           0        0.958232   -0.621204   -0.149358
      7          1           0        1.238034   -1.657888   -0.223539
      8          1           0        1.235764    1.660539   -0.213003
 ---------------------------------------------------------------------

 SCF Done:  E(UB3LYP) =  -154.366239074     A.U. after   14 cycles

 The electronic state is 2-A.
 Alpha  occ. eigenvalues --  -10.48580 -10.47459 -10.47286 -10.46589  -1.13416
 Alpha  occ. eigenvalues --   -0.99031  -0.82694  -0.81723  -0.76144  -0.71048
 Alpha  occ. eigenvalues --   -0.67303  -0.56976  -0.55338  -0.49351
 Alpha virt. eigenvalues --   -0.33106  -0.24107  -0.15239  -0.13940  -0.13883
 Alpha virt. eigenvalues --   -0.13782  -0.12569  -0.10747  -0.08988  -0.08000
 Alpha virt. eigenvalues --   -0.06302  -0.05962  -0.05088  -0.04170  -0.03380

  Beta  occ. eigenvalues --  -10.47356 -10.47186 -10.46945 -10.46687  -1.12911
  Beta  occ. eigenvalues --   -0.96722  -0.82607  -0.80281  -0.75986  -0.70067
  Beta  occ. eigenvalues --   -0.65757  -0.56425  -0.54870
  Beta virt. eigenvalues --   -0.33217  -0.31325  -0.23807  -0.14946  -0.13797
  Beta virt. eigenvalues --   -0.13639  -0.13349  -0.12498  -0.10578  -0.08551
  Beta virt. eigenvalues --   -0.07669  -0.06199  -0.05912  -0.04990  -0.03760

 Mulliken charges and spin densities:
               1          2
     1  C   -0.012409  -0.074621
     2  H    0.279015   0.030949
     3  C    0.010433   0.960660
     4  H    0.246985   0.000099
     5  C   -0.065983   0.044670
     6  C   -0.064823   0.044791
     7  H    0.303420  -0.003298
     8  H    0.303363  -0.003249
 Sum of Mulliken charges =   1.00000   1.00000

 Dipole moment (field-independent basis, Debye):
    X=              0.2396    Y=              0.0051    Z=             -0.6782  Tot=              0.7193
 Quadrupole moment (field-independent basis, Debye-Ang):
   XX=            -14.4492   YY=            -15.4732   ZZ=            -18.7954
   XY=             -0.0083   XZ=              1.4696   YZ=              0.0049

  Exact polarizability:  49.241  -0.006  33.364   1.664  -0.002  29.848
 Approx polarizability:  81.736  -0.002  56.418   4.708   0.018  42.777

                      1                      2                      3
                      A                      A                      A
 Frequencies --     37.8676               317.9490               354.6959
 Red. masses --      3.2379                 5.6989                 2.4670
 Frc consts  --      0.0027                 0.3394                 0.1829
 IR Inten    --     12.8622                 8.7748                 2.2309

                      4                      5                      6
                      A                      A                      A
 Frequencies --    636.9729               703.3319               735.9344
 Red. masses --      4.5983                 1.2605                 1.2045
 Frc consts  --      1.0992                 0.3674                 0.3843
 IR Inten    --     51.8129                 0.5805               123.9826

                      7                      8                      9
                      A                      A                      A
 Frequencies --    737.1212               789.2120               889.2458
 Red. masses --      1.5294                 1.6225                 1.0668
 Frc consts  --      0.4896                 0.5954                 0.4970
 IR Inten    --      2.7630                26.3270                10.4386

                     10                     11                     12
                      A                      A                      A
 Frequencies --    923.4980               996.0868              1263.0488
 Red. masses --      1.1708                 1.2130                 1.0902
 Frc consts  --      0.5883                 0.7091                 1.0247
 IR Inten    --     40.3873                26.2292                 0.1682

                     13                     14                     15
                      A                      A                      A
 Frequencies --   1495.2182              1871.1032              3174.3916
 Red. masses --      5.8633                 4.2495                 1.0905
 Frc consts  --      7.7233                 8.7656                 6.4741
 IR Inten    --     57.2509                 0.9902                19.6151

                     16                     17                     18
                      A                      A                      A
 Frequencies --   3235.8937              3279.6227              3361.5125
 Red. masses --      1.1077                 1.0849                 1.1959
 Frc consts  --      6.8336                 6.8751                 7.9616
 IR Inten    --     39.3756               216.6187                56.3221

 - Thermochemistry -
 -------------------
 Temperature   298.150 Kelvin.  Pressure   1.00000 Atm.
 Atom     1 has atomic number  6 and mass  12.00000

 Molecular mass:    52.03130 amu.
 Principal axes and moments of inertia in atomic units:
                           1         2         3
     Eigenvalues --    85.70119 241.05799 261.30866
           X            0.99980  -0.00016   0.01994
           Y            0.00017   1.00000  -0.00026
           Z           -0.01994   0.00027   0.99980
 This molecule is an asymmetric top.
 Rotational symmetry number  1.
 Rotational temperatures (Kelvin)      1.01065     0.35931     0.33146
 Rotational constants (GHZ):          21.05853     7.48675     6.90655
 Zero-point vibrational energy     148353.1 (Joules/Mol)
                                   35.45725 (Kcal/Mol)
 Warning -- explicit consideration of   3 degrees of freedom as
           vibrations may cause significant error
 Vibrational temperatures:     54.48   457.46   510.33   916.46  1011.94
          (Kelvin)           1058.84  1060.55  1135.50  1279.42  1328.71
                             1433.15  1817.24  2151.28  2692.10  4567.24
                             4655.72  4718.64  4836.46

 Zero-point correction=                           0.056505 (Hartree/Particle)
 Thermal correction to Energy=                    0.061645
 Thermal correction to Enthalpy=                  0.062590
 Thermal correction to Gibbs Free Energy=         0.028361
 Sum of electronic and zero-point Energies=           -154.309734
 Sum of electronic and thermal Energies=              -154.304594
 Sum of electronic and thermal Enthalpies=            -154.303649
 Sum of electronic and thermal Free Energies=         -154.337878

                     E (Thermal)             CV                S
                      KCal/Mol        Cal/Mol-Kelvin    Cal/Mol-Kelvin
 Total                   38.683             16.744             72.041
 Electronic               0.000              0.000              1.377
 Translational            0.889              2.981             37.771
 Rotational               0.889              2.981             23.205
 Vibrational             36.906             10.783              9.688
 Vibration     1          0.594              1.982              5.368
 Vibration     2          0.704              1.639              1.321
 Vibration     3          0.731              1.566              1.145

 Optimization completed.
    -- Stationary point found.
 Normal termination of Gaussian 09 at Thu Jan 24 16:05:38 2019.
