 Gaussian 09, Revision D.01,
 Gaussian 09:  ES64L-G09RevD.01 24-Apr-2013

 ---------------------------
 #p b3lyp/6-311++g(d,p) freq
 ---------------------------

 ---
 min
 ---
 Symbolic Z-matrix:
 Charge =  1 Multiplicity = 2

                         Standard orientation:
 ---------------------------------------------------------------------
 Center     Atomic      Atomic             Coordinates (Angstroms)
 Number     Number       Type             X           Y           Z
 ---------------------------------------------------------------------
      1          8           0        2.314163    1.076947    0.000000
      2          6           0       -1.758940   -1.507715    0.000000
      3          6           0       -1.259549   -0.107848    0.000000
      4          6           0        0.000000    0.276758    0.000000
      5          6           0        1.231944    0.707938    0.000000
      6          1           0       -2.408945   -1.635661    0.875735
      7          1           0       -2.408945   -1.635661   -0.875735
      8          1           0       -0.966158   -2.251360    0.000000
      9          1           0       -2.009985    0.692309    0.000000
 ---------------------------------------------------------------------

 SCF Done:  E(UB3LYP) =  -229.733149628     A.U. after   17 cycles

 The electronic state is 2-A'.
 Alpha  occ. eigenvalues --  -19.46858 -10.56546 -10.48912 -10.48794 -10.39402
 Alpha  occ. eigenvalues --   -1.39867  -1.09325  -1.00576  -0.90057  -0.77487
 Alpha  occ. eigenvalues --   -0.75711  -0.73152  -0.71962  -0.66942  -0.64103
 Alpha  occ. eigenvalues --   -0.60656  -0.55231  -0.51977
 Alpha virt. eigenvalues --   -0.33754  -0.21240  -0.16603  -0.13920  -0.13275
 Alpha virt. eigenvalues --   -0.12884  -0.10763  -0.10626  -0.08272  -0.08178
 Alpha virt. eigenvalues --   -0.07525  -0.05628  -0.05238  -0.04067  -0.03588

  Beta  occ. eigenvalues --  -19.45986 -10.56564 -10.48951 -10.47877 -10.39294
  Beta  occ. eigenvalues --   -1.38422  -1.07396  -0.99206  -0.89613  -0.76300
  Beta  occ. eigenvalues --   -0.74538  -0.71219  -0.69546  -0.65686  -0.64085
  Beta  occ. eigenvalues --   -0.60400  -0.54338
  Beta virt. eigenvalues --   -0.40284  -0.33706  -0.18059  -0.15902  -0.13317
  Beta virt. eigenvalues --   -0.12692  -0.12588  -0.10769  -0.10107  -0.08231
  Beta virt. eigenvalues --   -0.07948  -0.07443  -0.05629  -0.04978  -0.03924

 Mulliken charges and spin densities:
               1          2
     1  O    0.048036   0.304013
     2  C   -0.660666   0.048386
     3  C   -0.193977  -0.116282
     4  C    1.688377   0.733320
     5  C   -0.833317  -0.016363
     6  H    0.231324  -0.002005
     7  H    0.231324  -0.002005
     8  H    0.199287  -0.000654
     9  H    0.289612   0.051590
 Sum of Mulliken charges =   1.00000   1.00000

 Dipole moment (field-independent basis, Debye):
    X=             -2.8124    Y=             -0.5491    Z=             -0.0000  Tot=              2.8655
 Quadrupole moment (field-independent basis, Debye-Ang):
   XX=            -13.7457   YY=            -20.5324   ZZ=            -26.2227
   XY=              4.8523   XZ=              0.0000   YZ=              0.0000

  Exact polarizability:  77.817  22.860  41.153   0.000   0.000  25.786
 Approx polarizability: 143.183  41.914  57.794   0.000  -0.000  35.471

                      1                      2                      3
                     A'                     A"                     A"
 Frequencies --     98.0046               135.9643               205.0844
 Red. masses --      4.7086                 1.4826                 2.3246
 Frc consts  --      0.0266                 0.0161                 0.0576
 IR Inten    --      0.0848                 1.5831                 0.0192

                      4                      5                      6
                     A'                     A'                     A"
 Frequencies --    412.5257               475.3702               593.6373
 Red. masses --      4.9464                 8.8889                11.2517
 Frc consts  --      0.4960                 1.1835                 2.3362
 IR Inten    --      1.6558                12.1332                26.0381

                      7                      8                      9
                     A"                     A'                     A'
 Frequencies --    773.4436               775.8147              1008.7274
 Red. masses --      1.1461                 3.4465                 1.6710
 Frc consts  --      0.4039                 1.2222                 1.0018
 IR Inten    --     12.1471                 6.5371                42.6368

                     10                     11                     12
                     A"                     A'                     A'
 Frequencies --   1032.3263              1101.4803              1284.3095
 Red. masses --      1.6928                 2.6870                 1.3123
 Frc consts  --      1.0629                 1.9208                 1.2754
 IR Inten    --      0.8122                 5.0762                11.2304

                     13                     14                     15
                     A'                     A"                     A'
 Frequencies --   1361.4303              1442.4670              1465.4464
 Red. masses --      1.1618                 1.0452                 1.1086
 Frc consts  --      1.2687                 1.2813                 1.4028
 IR Inten    --     29.8290                18.8667                37.9979

                     16                     17                     18
                     A'                     A'                     A'
 Frequencies --   1777.7163              2245.6256              3009.0219
 Red. masses --     10.2542                12.5440                 1.0395
 Frc consts  --     19.0931                37.2703                 5.5454
 IR Inten    --     44.9505               832.4610                46.5104

                     19                     20                     21
                     A'                     A"                     A'
 Frequencies --   3053.1942              3054.5413              3167.8635
 Red. masses --      1.0829                 1.0958                 1.1019
 Frc consts  --      5.9475                 6.0239                 6.5152
 IR Inten    --     40.0807                10.3125                 8.9865

 - Thermochemistry -
 -------------------
 Temperature   298.150 Kelvin.  Pressure   1.00000 Atm.
 Atom     1 has atomic number  8 and mass  15.99491

 Molecular mass:    68.02621 amu.
 Principal axes and moments of inertia in atomic units:
                           1         2         3
     Eigenvalues --    48.18431 817.82990 854.97372
           X            0.87211  -0.48931   0.00000
           Y            0.48931   0.87211   0.00000
           Z            0.00000   0.00000   1.00000
 This molecule is an asymmetric top.
 Rotational symmetry number  1.
 Rotational temperatures (Kelvin)      1.79755     0.10591     0.10131
 Rotational constants (GHZ):          37.45495     2.20674     2.11087
 Zero-point vibrational energy     170312.3 (Joules/Mol)
                                   40.70562 (Kcal/Mol)
 Warning -- explicit consideration of   6 degrees of freedom as
           vibrations may cause significant error
 Vibrational temperatures:    141.01   195.62   295.07   593.53   683.95
          (Kelvin)            854.11  1112.81  1116.22  1451.33  1485.29
                             1584.78  1847.83  1958.79  2075.39  2108.45
                             2557.73  3230.95  4329.31  4392.86  4394.80
                             4557.84

 Zero-point correction=                           0.064869 (Hartree/Particle)
 Thermal correction to Energy=                    0.070664
 Thermal correction to Enthalpy=                  0.071608
 Thermal correction to Gibbs Free Energy=         0.035360
 Sum of electronic and zero-point Energies=           -229.668281
 Sum of electronic and thermal Energies=              -229.662486
 Sum of electronic and thermal Enthalpies=            -229.661542
 Sum of electronic and thermal Free Energies=         -229.697789

                     E (Thermal)             CV                S
                      KCal/Mol        Cal/Mol-Kelvin    Cal/Mol-Kelvin
 Total                   44.342             18.317             76.289
 Electronic               0.000              0.000              1.377
 Translational            0.889              2.981             38.570
 Rotational               0.889              2.981             25.025
 Vibrational             42.565             12.355             11.317
 Vibration     1          0.603              1.951              3.494
 Vibration     2          0.614              1.917              2.860
 Vibration     3          0.640              1.833              2.087
 Vibration     4          0.776              1.443              0.918
 Vibration     5          0.832              1.305              0.723
 Vibration     6          0.951              1.045              0.461

 Normal termination of Gaussian 09 at Thu Jan 24 16:21:25 2019.
