 Gaussian 09, Revision D.01,
 Gaussian 09:  ES64L-G09RevD.01 24-Apr-2013

 ---------------------------
 #p b3lyp/6-311++g(d,p) freq
 ---------------------------

 ---
 min
 ---
 Symbolic Z-matrix:
 Charge =  0 Multiplicity = 1

                         Standard orientation:
 ---------------------------------------------------------------------
 Center     Atomic      Atomic             Coordinates (Angstroms)
 Number     Number       Type             X           Y           Z
 ---------------------------------------------------------------------
      1          6           0        1.251893    1.132640   -0.000000
      2          1           0        1.448325    2.197560   -0.000000
      3          1           0        2.111588    0.471570   -0.000000
      4          6           0        0.000000    0.667192    0.000000
      5          1           0       -0.837362    1.356574    0.000000
      6          6           0       -1.429626   -1.471080    0.000000
      7          6           0       -0.349978   -0.746403    0.000000
      8          1           0        0.443712   -1.519797   -0.000000
 ---------------------------------------------------------------------

 SCF Done:  E(RB3LYP) =  -154.708064795     A.U. after   12 cycles

 The electronic state is 1-A'.
 Alpha  occ. eigenvalues --  -10.23762 -10.21723 -10.19557 -10.19462  -0.83986
 Alpha  occ. eigenvalues --   -0.76694  -0.62125  -0.54744  -0.47848  -0.45165
 Alpha  occ. eigenvalues --   -0.39382  -0.35803  -0.30380  -0.26540
 Alpha virt. eigenvalues --   -0.10487  -0.05170  -0.00521   0.00399   0.02046
 Alpha virt. eigenvalues --    0.03532   0.04404   0.05605   0.06352   0.08444
 Alpha virt. eigenvalues --    0.08554   0.09349   0.10805   0.11395   0.12469

 Mulliken charges:
               1
     1  C   -0.414257
     2  H    0.147719
     3  H    0.126152
     4  C    0.062761
     5  H    0.157828
     6  C   -0.156411
     7  C   -0.098764
     8  H    0.174972
 Sum of Mulliken charges =  -0.00000

 Dipole moment (field-independent basis, Debye):
    X=              2.2238    Y=              1.6544    Z=             -0.0000  Tot=              2.7717
 Quadrupole moment (field-independent basis, Debye-Ang):
   XX=            -26.5765   YY=            -25.3470   ZZ=            -27.9011
   XY=             -5.1477   XZ=              0.0000   YZ=              0.0000

  Exact polarizability:  62.697  19.549  55.673  -0.002  -0.001  31.973
 Approx polarizability: 104.742  33.907  79.534  -0.000  -0.000  42.815

                      1                      2                      3
                     A'                     A"                     A'
 Frequencies --    155.5163               172.6519               424.7722
 Red. masses --      5.4828                 3.3211                 2.3562
 Frc consts  --      0.0781                 0.0583                 0.2505
 IR Inten    --     22.4162                 6.2611                 0.0971

                      4                      5                      6
                     A"                     A"                     A'
 Frequencies --    538.2008               742.5939               858.1861
 Red. masses --      1.1503                 2.0241                 2.2538
 Frc consts  --      0.1963                 0.6576                 0.9780
 IR Inten    --     23.9367                 0.0178                 2.1660

                      7                      8                      9
                     A'                     A"                     A"
 Frequencies --    933.4750               946.2376              1011.9662
 Red. masses --      1.2488                 1.3461                 1.1084
 Frc consts  --      0.6411                 0.7101                 0.6688
 IR Inten    --      0.5607                51.9247                19.0288

                     10                     11                     12
                     A'                     A'                     A'
 Frequencies --   1161.2964              1328.2664              1442.4542
 Red. masses --      1.7836                 1.2467                 1.2109
 Frc consts  --      1.4172                 1.2959                 1.4845
 IR Inten    --      2.2412                 0.2785                 4.1369

                     13                     14                     15
                     A'                     A'                     A'
 Frequencies --   1661.7849              1768.1543              2971.4323
 Red. masses --      4.1101                 9.2642                 1.0774
 Frc consts  --      6.6873                17.0648                 5.6046
 IR Inten    --      6.7219                82.2545                20.6431

                     16                     17                     18
                     A'                     A'                     A'
 Frequencies --   3142.2021              3171.7811              3231.7023
 Red. masses --      1.0594                 1.0915                 1.1160
 Frc consts  --      6.1627                 6.4696                 6.8674
 IR Inten    --      2.9875                 2.3172                 7.1337

 - Thermochemistry -
 -------------------
 Temperature   298.150 Kelvin.  Pressure   1.00000 Atm.
 Atom     1 has atomic number  6 and mass  12.00000

 Molecular mass:    52.03130 amu.
 Principal axes and moments of inertia in atomic units:
                           1         2         3
     Eigenvalues --    33.66689 375.83158 409.49848
           X            0.66755   0.74456   0.00000
           Y            0.74456  -0.66755   0.00000
           Z           -0.00000  -0.00000   1.00000
 This molecule is an asymmetric top.
 Rotational symmetry number  1.
 Rotational temperatures (Kelvin)      2.57267     0.23046     0.21151
 Rotational constants (GHZ):          53.60581     4.80199     4.40720
 Zero-point vibrational energy     153496.9 (Joules/Mol)
                                   36.68663 (Kcal/Mol)
 Warning -- explicit consideration of   4 degrees of freedom as
           vibrations may cause significant error
 Vibrational temperatures:    223.75   248.41   611.15   774.35  1068.43
          (Kelvin)           1234.74  1343.06  1361.42  1455.99  1670.84
                             1911.08  2075.37  2390.93  2543.98  4275.22
                             4520.92  4563.48  4649.69

 Zero-point correction=                           0.058464 (Hartree/Particle)
 Thermal correction to Energy=                    0.063346
 Thermal correction to Enthalpy=                  0.064290
 Thermal correction to Gibbs Free Energy=         0.031868
 Sum of electronic and zero-point Energies=           -154.649601
 Sum of electronic and thermal Energies=              -154.644719
 Sum of electronic and thermal Enthalpies=            -154.643774
 Sum of electronic and thermal Free Energies=         -154.676197

                     E (Thermal)             CV                S
                      KCal/Mol        Cal/Mol-Kelvin    Cal/Mol-Kelvin
 Total                   39.750             15.415             68.240
 Electronic               0.000              0.000              0.000
 Translational            0.889              2.981             37.771
 Rotational               0.889              2.981             23.165
 Vibrational             37.973              9.453              7.304
 Vibration     1          0.620              1.897              2.604
 Vibration     2          0.626              1.876              2.406
 Vibration     3          0.787              1.416              0.876
 Vibration     4          0.893              1.166              0.569

 Optimization completed.
    -- Stationary point found.

 1\1\ CITASK-GV1923\Freq\RB3LYP\6-311++G(d,p)\C4H4\EERD\04-Mar-2018\0\\
 #p b3lyp/6-311++g(d,p) freq\\min\\0,1\C,1.678034,0.185235,0.\H,2.60514
 9,-0.374316,0.\H,1.753777,1.267063,0.\C,0.499205,-0.442651,0.\H,0.4594
 62,-1.526553,0.\C,-2.049178,-0.093679,0.\C,-0.790666,0.233344,0.\H,-0.
 842757,1.340307,0.\\Version=ES64L-G09RevD.01\State=1-A'\HF=-154.708064
 8\RMSD=9.275e-09\RMSF=1.596e-05\ZeroPoint=0.0584639\Thermal=0.0633462\
 Dipole=1.0674657,0.2227948,0.\DipoleDeriv=-0.2048911,-0.0364703,-0.000
 0635,-0.0308448,0.0909417,-0.0000215,0.000027,0.0000121,-0.2873957,-0.

 Normal termination of Gaussian 09 at Sun Mar  4 21:18:49 2018.
