 Gaussian 09, Revision D.01,
 Gaussian 09:  ES64L-G09RevD.01 24-Apr-2013

 ---------------------------
 #p b3lyp/6-311++g(d,p) freq
 ---------------------------

 ---
 min
 ---
 Symbolic Z-matrix:
 Charge =  1 Multiplicity = 4

                         Standard orientation:
 ---------------------------------------------------------------------
 Center     Atomic      Atomic             Coordinates (Angstroms)
 Number     Number       Type             X           Y           Z
 ---------------------------------------------------------------------
      1          6           0        0.480253    0.396855   -0.000291
      2          6           0       -0.637038   -0.422421   -0.000289
      3          6           0       -1.997022   -0.110474    0.000378
      4          1           0       -2.495962    0.863842    0.000683
      5          1           0        0.341475    1.481932   -0.000599
      6          6           0        1.756297   -0.137763    0.000131
      7          1           0        1.912057   -1.211778    0.000100
      8          1           0        2.627490    0.508823    0.000248
 ---------------------------------------------------------------------

 SCF Done:  E(UB3LYP) =  -154.321120434     A.U. after   15 cycles

 The electronic state is 4-A.
 Alpha  occ. eigenvalues --  -10.50672 -10.49331 -10.46317 -10.45342  -1.08984
 Alpha  occ. eigenvalues --   -1.00957  -0.87778  -0.78711  -0.73930  -0.69992
 Alpha  occ. eigenvalues --   -0.63702  -0.60979  -0.57621  -0.51706  -0.47269
 Alpha virt. eigenvalues --   -0.32817  -0.19746  -0.14971  -0.13777  -0.12607
 Alpha virt. eigenvalues --   -0.10334  -0.09678  -0.07836  -0.07465  -0.06488
 Alpha virt. eigenvalues --   -0.05187  -0.04345  -0.03653  -0.03210  -0.01904

  Beta  occ. eigenvalues --  -10.48164 -10.47576 -10.45666 -10.45189  -1.05902
  Beta  occ. eigenvalues --   -0.96208  -0.84757  -0.75976  -0.71736  -0.67982
  Beta  occ. eigenvalues --   -0.62743  -0.56836
  Beta virt. eigenvalues --   -0.40660  -0.39033  -0.28107  -0.26961  -0.16290
  Beta virt. eigenvalues --   -0.14400  -0.13285  -0.12019  -0.09810  -0.09184
  Beta virt. eigenvalues --   -0.07482  -0.06651  -0.06030  -0.04437  -0.03185

 Mulliken charges and spin densities:
               1          2
     1  C    0.093635   0.005315
     2  C    0.166806   1.011655
     3  C    0.049035   1.445888
     4  H    0.221055   0.039615
     5  H    0.260006   0.057279
     6  C   -0.257633   0.467845
     7  H    0.226232  -0.013136
     8  H    0.240864  -0.014460
 Sum of Mulliken charges =   1.00000   3.00000

 Dipole moment (field-independent basis, Debye):
    X=              0.2616    Y=              1.1234    Z=              0.0006  Tot=              1.1535
 Quadrupole moment (field-independent basis, Debye-Ang):
   XX=             -4.2798   YY=            -18.6463   ZZ=            -22.9773
   XY=             -2.2421   XZ=             -0.0016   YZ=             -0.0006

  Exact polarizability:  83.856  -1.357  33.364  -0.003   0.001  22.694
 Approx polarizability: 136.863   0.528  46.515  -0.002   0.001  31.447

                      1                      2                      3
                      A                      A                      A
 Frequencies --    147.0060               246.8936               477.3781
 Red. masses --      3.0536                 2.8514                 2.9944
 Frc consts  --      0.0389                 0.1024                 0.4021
 IR Inten    --     14.4589                 4.5617                 0.8424

                      4                      5                      6
                      A                      A                      A
 Frequencies --    485.8128               762.9259               910.5939
 Red. masses --      1.1803                 1.5354                 1.2525
 Frc consts  --      0.1641                 0.5265                 0.6119
 IR Inten    --      2.0359                13.1541                26.3279

                      7                      8                      9
                      A                      A                      A
 Frequencies --    945.9425               959.2633              1067.2441
 Red. masses --      1.3592                 1.5217                 1.3981
 Frc consts  --      0.7166                 0.8250                 0.9383
 IR Inten    --     18.2429                 2.8814                13.3485

                     10                     11                     12
                      A                      A                      A
 Frequencies --   1177.7045              1269.1221              1333.4518
 Red. masses --      2.6912                 1.6749                 2.3387
 Frc consts  --      2.1992                 1.5894                 2.4501
 IR Inten    --     13.6167                34.6781                96.7227

                     13                     14                     15
                      A                      A                      A
 Frequencies --   1499.8996              1605.8081              3076.8216
 Red. masses --      1.3980                 5.5432                 1.0862
 Frc consts  --      1.8531                 8.4217                 6.0583
 IR Inten    --      4.8729                22.1282                10.9502

                     16                     17                     18
                      A                      A                      A
 Frequencies --   3092.7130              3144.4989              3255.0016
 Red. masses --      1.0906                 1.0572                 1.1219
 Frc consts  --      6.1460                 6.1587                 7.0033
 IR Inten    --     18.4522                13.9123                14.0441

 - Thermochemistry -
 -------------------
 Temperature   298.150 Kelvin.  Pressure   1.00000 Atm.
 Atom     1 has atomic number  6 and mass  12.00000

 Molecular mass:    52.03130 amu.
 Principal axes and moments of inertia in atomic units:
                           1         2         3
     Eigenvalues --    32.12722 391.04726 423.17445
           X            0.99968  -0.02523   0.00006
           Y            0.02523   0.99968   0.00009
           Z           -0.00006  -0.00009   1.00000
 This molecule is an asymmetric top.
 Rotational symmetry number  1.
 Rotational temperatures (Kelvin)      2.69596     0.22149     0.20468
 Rotational constants (GHZ):          56.17483     4.61515     4.26477
 Zero-point vibrational energy     152273.1 (Joules/Mol)
                                   36.39415 (Kcal/Mol)
 Warning -- explicit consideration of   4 degrees of freedom as
           vibrations may cause significant error
 Vibrational temperatures:    211.51   355.22   686.84   698.98  1097.68
          (Kelvin)           1310.14  1361.00  1380.16  1535.52  1694.45
                             1825.98  1918.54  2158.02  2310.40  4426.85
                             4449.72  4524.23  4683.22

 Zero-point correction=                           0.057998 (Hartree/Particle)
 Thermal correction to Energy=                    0.062753
 Thermal correction to Enthalpy=                  0.063697
 Thermal correction to Gibbs Free Energy=         0.030257
 Sum of electronic and zero-point Energies=           -154.263123
 Sum of electronic and thermal Energies=              -154.258367
 Sum of electronic and thermal Enthalpies=            -154.257423
 Sum of electronic and thermal Free Energies=         -154.290863

                     E (Thermal)             CV                S
                      KCal/Mol        Cal/Mol-Kelvin    Cal/Mol-Kelvin
 Total                   39.378             15.233             70.381
 Electronic               0.000              0.000              2.755
 Translational            0.889              2.981             37.771
 Rotational               0.889              2.981             23.190
 Vibrational             37.601              9.272              6.666
 Vibration     1          0.617              1.906              2.711
 Vibration     2          0.661              1.768              1.753
 Vibration     3          0.834              1.300              0.717
 Vibration     4          0.842              1.282              0.695

 Optimization completed.
    -- Stationary point found.
 Normal termination of Gaussian 09 at Thu Jan 24 16:11:04 2019.
