 Gaussian 09, Revision D.01,
 Gaussian 09:  ES64L-G09RevD.01 24-Apr-2013

 ---------------------------
 #p b3lyp/6-311++g(d,p) freq
 ---------------------------

 ---
 min
 ---
 Symbolic Z-matrix:
 Charge =  1 Multiplicity = 2

                         Standard orientation:
 ---------------------------------------------------------------------
 Center     Atomic      Atomic             Coordinates (Angstroms)
 Number     Number       Type             X           Y           Z
 ---------------------------------------------------------------------
      1          6           0        0.657426    0.513611   -0.006305
      2          6           0        1.646823   -0.257965   -0.128692
      3          6           0       -1.672937   -0.110963   -0.618938
      4          6           0       -0.817327   -0.117567    0.461720
      5          1           0        2.392552   -1.027501   -0.203713
      6          1           0        0.603817    1.590763   -0.128376
      7          1           0       -0.726047   -1.185187    0.747323
      8          1           0       -1.154232    0.459236    1.338058
 ---------------------------------------------------------------------

 SCF Done:  E(UB3LYP) =  -154.286427269     A.U. after   21 cycles

 The electronic state is 2-A.
 Alpha  occ. eigenvalues --  -10.53012 -10.47028 -10.45936 -10.45488  -1.08677
 Alpha  occ. eigenvalues --   -1.01420  -0.82923  -0.79359  -0.74390  -0.69453
 Alpha  occ. eigenvalues --   -0.67353  -0.56030  -0.54019  -0.47122
 Alpha virt. eigenvalues --   -0.35543  -0.35141  -0.22861  -0.15878  -0.14220
 Alpha virt. eigenvalues --   -0.12970  -0.12146  -0.10698  -0.09831  -0.07752
 Alpha virt. eigenvalues --   -0.06263  -0.06197  -0.05589  -0.03994  -0.02491

  Beta  occ. eigenvalues --  -10.52284 -10.46084 -10.45875 -10.45549  -1.07702
  Beta  occ. eigenvalues --   -0.99603  -0.81595  -0.78321  -0.73887  -0.68626
  Beta  occ. eigenvalues --   -0.66479  -0.55194  -0.53018
  Beta virt. eigenvalues --   -0.35935  -0.34318  -0.30111  -0.22129  -0.15653
  Beta virt. eigenvalues --   -0.14048  -0.12697  -0.11881  -0.10522  -0.09600
  Beta virt. eigenvalues --   -0.07477  -0.06115  -0.05831  -0.05428  -0.03769

 Mulliken charges and spin densities:
               1          2
     1  C   -0.000535  -0.077562
     2  C   -0.046550   0.621022
     3  C    0.221695   0.441848
     4  C   -0.327939   0.020459
     5  H    0.303543  -0.023085
     6  H    0.289873   0.019358
     7  H    0.275396  -0.002513
     8  H    0.284517   0.000474
 Sum of Mulliken charges =   1.00000   1.00000

 Dipole moment (field-independent basis, Debye):
    X=              1.0828    Y=             -0.5557    Z=              1.5583  Tot=              1.9773
 Quadrupole moment (field-independent basis, Debye-Ang):
   XX=            -12.4063   YY=            -16.3410   ZZ=            -22.3744
   XY=             -2.3772   XZ=             -3.8187   YZ=             -0.2610

  Exact polarizability:  86.640  -1.121  33.766   3.788   0.670  31.340
 Approx polarizability: 174.117 -11.415  52.829  13.533   1.123  47.075

                      1                      2                      3
                      A                      A                      A
 Frequencies --    111.2300               232.6696               306.6423
 Red. masses --      2.5809                 3.8396                 1.9981
 Frc consts  --      0.0188                 0.1225                 0.1107
 IR Inten    --      8.0072                17.3240                 0.4726

                      4                      5                      6
                      A                      A                      A
 Frequencies --    372.7028               520.6049               628.6472
 Red. masses --      1.7183                 6.6054                 1.6397
 Frc consts  --      0.1406                 1.0548                 0.3818
 IR Inten    --      4.0437                 6.5904                79.8299

                      7                      8                      9
                      A                      A                      A
 Frequencies --    733.5173               774.9969               909.9171
 Red. masses --      1.5592                 1.1495                 1.0908
 Frc consts  --      0.4943                 0.4068                 0.5321
 IR Inten    --     19.2882                89.9635                 7.9860

                     10                     11                     12
                      A                      A                      A
 Frequencies --    984.5346              1123.0564              1231.9186
 Red. masses --      1.3027                 1.0829                 1.2244
 Frc consts  --      0.7440                 0.8047                 1.0948
 IR Inten    --     51.9846                11.7852                17.1125

                     13                     14                     15
                      A                      A                      A
 Frequencies --   1362.5999              1743.4630              2944.2185
 Red. masses --      3.0909                 5.2613                 1.0622
 Frc consts  --      3.3813                 9.4226                 5.4251
 IR Inten    --     94.1320                26.6664                96.2801

                     16                     17                     18
                      A                      A                      A
 Frequencies --   3018.7988              3175.4852              3354.1659
 Red. masses --      1.0926                 1.0939                 1.1347
 Frc consts  --      5.8665                 6.4992                 7.5212
 IR Inten    --     81.4878                83.5266               251.5130

 - Thermochemistry -
 -------------------
 Temperature   298.150 Kelvin.  Pressure   1.00000 Atm.
 Atom     1 has atomic number  6 and mass  12.00000

 Molecular mass:    52.03130 amu.
 Principal axes and moments of inertia in atomic units:
                           1         2         3
     Eigenvalues --    68.34153 345.50664 347.22021
           X            0.99933  -0.03573   0.00809
           Y            0.01502   0.60097   0.79913
           Z            0.03342   0.79847  -0.60111
 This molecule is an asymmetric top.
 Rotational symmetry number  1.
 Rotational temperatures (Kelvin)      1.26737     0.25069     0.24945
 Rotational constants (GHZ):          26.40768     5.22346     5.19768
 Zero-point vibrational energy     140735.7 (Joules/Mol)
                                   33.63664 (Kcal/Mol)
 Warning -- explicit consideration of   5 degrees of freedom as
           vibrations may cause significant error
 Vibrational temperatures:    160.04   334.76   441.19   536.24   749.03
          (Kelvin)            904.48  1055.37  1115.05  1309.17  1416.52
                             1615.83  1772.45  1960.47  2508.45  4236.07
                             4343.37  4568.81  4825.89

 Zero-point correction=                           0.053603 (Hartree/Particle)
 Thermal correction to Energy=                    0.059088
 Thermal correction to Enthalpy=                  0.060033
 Thermal correction to Gibbs Free Energy=         0.025736
 Sum of electronic and zero-point Energies=           -154.232824
 Sum of electronic and thermal Energies=              -154.227339
 Sum of electronic and thermal Enthalpies=            -154.226395
 Sum of electronic and thermal Free Energies=         -154.260692

                     E (Thermal)             CV                S
                      KCal/Mol        Cal/Mol-Kelvin    Cal/Mol-Kelvin
 Total                   37.079             17.996             72.184
 Electronic               0.000              0.000              1.377
 Translational            0.889              2.981             37.771
 Rotational               0.889              2.981             23.621
 Vibrational             35.301             12.035              9.416
 Vibration     1          0.607              1.940              3.247
 Vibration     2          0.653              1.791              1.858
 Vibration     3          0.697              1.661              1.380
 Vibration     4          0.744              1.528              1.069
 Vibration     5          0.876              1.204              0.609

 Optimization completed.
    -- Stationary point found.
 Normal termination of Gaussian 09 at Thu Jan 24 16:06:58 2019.
