 Gaussian 09, Revision D.01,
 Gaussian 09:  ES64L-G09RevD.01 24-Apr-2013

 ---------------------------
 #p b3lyp/6-311++g(d,p) freq
 ---------------------------

 ---
 min
 ---
 Symbolic Z-matrix:
 Charge =  1 Multiplicity = 2

                         Standard orientation:
 ---------------------------------------------------------------------
 Center     Atomic      Atomic             Coordinates (Angstroms)
 Number     Number       Type             X           Y           Z
 ---------------------------------------------------------------------
      1          6           0        0.064559    1.859047   -0.000000
      2          1           0       -0.365799    2.297853    0.909544
      3          1           0       -0.365799    2.297853   -0.909544
      4          1           0        1.143998    2.113187   -0.000000
      5          6           0        0.000000    0.448968   -0.000000
      6          6           0       -0.035434   -0.825226    0.000000
      7          6           0       -0.078563   -2.076154    0.000000
      8          1           0       -0.115774   -3.148708    0.000000
 ---------------------------------------------------------------------

 SCF Done:  E(UB3LYP) =  -154.416304434     A.U. after   16 cycles

 The electronic state is 2-A".
 Alpha  occ. eigenvalues --  -10.51027 -10.49158 -10.44293 -10.42050  -1.07722
 Alpha  occ. eigenvalues --   -1.01220  -0.92788  -0.78232  -0.71773  -0.67957
 Alpha  occ. eigenvalues --   -0.66784  -0.59444  -0.57732  -0.46103
 Alpha virt. eigenvalues --   -0.38087  -0.16342  -0.16020  -0.15034  -0.13368
 Alpha virt. eigenvalues --   -0.11197  -0.10531  -0.10347  -0.07764  -0.06337
 Alpha virt. eigenvalues --   -0.06077  -0.05580  -0.04921  -0.03147  -0.03026

  Beta  occ. eigenvalues --  -10.50040 -10.48177 -10.44652 -10.42105  -1.06400
  Beta  occ. eigenvalues --   -1.00119  -0.91299  -0.77340  -0.71037  -0.66565
  Beta  occ. eigenvalues --   -0.66140  -0.57517  -0.56414
  Beta virt. eigenvalues --   -0.36625  -0.34146  -0.16251  -0.14790  -0.13694
  Beta virt. eigenvalues --   -0.12993  -0.10992  -0.10547  -0.10274  -0.07486
  Beta virt. eigenvalues --   -0.05867  -0.05492  -0.05148  -0.04668  -0.02798

 Mulliken charges and spin densities:
               1          2
     1  C   -0.487442  -0.037059
     2  H    0.240355   0.036681
     3  H    0.240355   0.036681
     4  H    0.249494  -0.004000
     5  C    0.196962   0.612079
     6  C    1.899587  -0.232576
     7  C   -1.586022   0.611799
     8  H    0.246711  -0.023606
 Sum of Mulliken charges =   1.00000   1.00000

 Dipole moment (field-independent basis, Debye):
    X=              0.1707    Y=             -0.5466    Z=             -0.0000  Tot=              0.5727
 Quadrupole moment (field-independent basis, Debye-Ang):
   XX=            -20.5880   YY=              3.3831   ZZ=            -22.0855
   XY=              1.2886   XZ=              0.0000   YZ=             -0.0000

  Exact polarizability:  22.827   2.778  81.856   0.000  -0.000  24.524
 Approx polarizability:  31.691   6.374 158.595  -0.000  -0.000  31.188

                      1                      2                      3
                     A"                     A'                     A"
 Frequencies --    134.3178               191.3315               275.6933
 Red. masses --      3.4506                 3.0525                 1.8035
 Frc consts  --      0.0367                 0.0658                 0.0808
 IR Inten    --      9.5953                14.1781                38.9609

                      4                      5                      6
                     A"                     A'                     A"
 Frequencies --    366.6820               443.4340               543.4859
 Red. masses --      2.4857                 2.8014                 1.3327
 Frc consts  --      0.1969                 0.3245                 0.2319
 IR Inten    --     28.7864                 1.5949                90.3572

                      7                      8                      9
                     A'                     A'                     A'
 Frequencies --    803.0955               878.4020               942.0298
 Red. masses --      4.0913                 1.3452                 1.7950
 Frc consts  --      1.5547                 0.6115                 0.9385
 IR Inten    --     12.1810                 8.3415                31.1288

                     10                     11                     12
                     A"                     A'                     A'
 Frequencies --   1287.1376              1325.7290              1422.8663
 Red. masses --      1.0359                 1.1407                 1.0937
 Frc consts  --      1.0112                 1.1813                 1.3046
 IR Inten    --     32.6579                66.6836                 8.2975

                     13                     14                     15
                     A'                     A'                     A'
 Frequencies --   1562.9028              1988.2539              2935.3939
 Red. masses --      7.6057                 8.9378                 1.0524
 Frc consts  --     10.9459                20.8174                 5.3425
 IR Inten    --     14.0010               651.7259               148.7886

                     16                     17                     18
                     A'                     A"                     A'
 Frequencies --   3012.3439              3051.4419              3368.5115
 Red. masses --      1.0706                 1.0951                 1.1318
 Frc consts  --      5.7240                 6.0076                 7.5663
 IR Inten    --     26.0526                34.6833               156.5592

 - Thermochemistry -
 -------------------
 Temperature   298.150 Kelvin.  Pressure   1.00000 Atm.
 Atom     1 has atomic number  6 and mass  12.00000

 Molecular mass:    52.03130 amu.
 Principal axes and moments of inertia in atomic units:
                           1         2         3
     Eigenvalues --    11.50972 465.75155 466.15125
           X            0.03803   0.00000   0.99928
           Y            0.99928   0.00000  -0.03803
           Z            0.00000   1.00000   0.00000
 This molecule is an asymmetric top.
 Rotational symmetry number  1.
 Rotational temperatures (Kelvin)      7.52527     0.18597     0.18581
 Rotational constants (GHZ):         156.80143     3.87490     3.87158
 Zero-point vibrational energy     146740.2 (Joules/Mol)
                                   35.07176 (Kcal/Mol)
 Warning -- explicit consideration of   6 degrees of freedom as
           vibrations may cause significant error
 Vibrational temperatures:    193.25   275.28   396.66   527.57   638.00
          (Kelvin)            781.95  1155.47  1263.82  1355.37  1851.90
                             1907.43  2047.18  2248.67  2860.65  4223.37
                             4334.09  4390.34  4846.53

 Zero-point correction=                           0.055890 (Hartree/Particle)
 Thermal correction to Energy=                    0.061442
 Thermal correction to Enthalpy=                  0.062386
 Thermal correction to Gibbs Free Energy=         0.028524
 Sum of electronic and zero-point Energies=           -154.360414
 Sum of electronic and thermal Energies=              -154.354863
 Sum of electronic and thermal Enthalpies=            -154.353919
 Sum of electronic and thermal Free Energies=         -154.387781

                     E (Thermal)             CV                S
                      KCal/Mol        Cal/Mol-Kelvin    Cal/Mol-Kelvin
 Total                   38.555             17.603             71.269
 Electronic               0.000              0.000              1.377
 Translational            0.889              2.981             37.771
 Rotational               0.889              2.981             22.440
 Vibrational             36.778             11.642              9.681
 Vibration     1          0.613              1.919              2.883
 Vibration     2          0.634              1.852              2.215
 Vibration     3          0.677              1.718              1.560
 Vibration     4          0.740              1.541              1.094
 Vibration     5          0.803              1.375              0.816
 Vibration     6          0.899              1.154              0.558

 Optimization completed.
    -- Stationary point found.
 Normal termination of Gaussian 09 at Thu Jan 24 16:02:50 2019.
