 Gaussian 09, Revision D.01,
 Gaussian 09:  ES64L-G09RevD.01 24-Apr-2013

 ---------------------------
 #p b3lyp/6-311++g(d,p) freq
 ---------------------------

 ---
 min
 ---
 Symbolic Z-matrix:
 Charge =  1 Multiplicity = 2

                         Standard orientation:
 ---------------------------------------------------------------------
 Center     Atomic      Atomic             Coordinates (Angstroms)
 Number     Number       Type             X           Y           Z
 ---------------------------------------------------------------------
      1          6           0        0.000000    1.081711    0.369387
      2          6           0       -0.000000   -1.081711    0.369387
      3          8           0        0.000000    0.000000    1.172921
      4          6           0        0.000000   -0.690493   -0.988744
      5          6           0        0.000000    0.690493   -0.988744
      6          1           0        0.000000    2.046796    0.858225
      7          1           0       -0.000000   -2.046796    0.858225
      8          1           0        0.000000   -1.363219   -1.833771
      9          1           0        0.000000    1.363219   -1.833771
 ---------------------------------------------------------------------

 SCF Done:  E(UB3LYP) =  -229.765153622     A.U. after   12 cycles

 The electronic state is 2-A2.
 Alpha  occ. eigenvalues --  -19.45504 -10.52185 -10.52183 -10.44035 -10.43976
 Alpha  occ. eigenvalues --   -1.39378  -1.07276  -1.02089  -0.86111  -0.83559
 Alpha  occ. eigenvalues --   -0.79731  -0.72730  -0.70602  -0.66434  -0.65739
 Alpha  occ. eigenvalues --   -0.63266  -0.54642  -0.51493
 Alpha virt. eigenvalues --   -0.27818  -0.19978  -0.15488  -0.13162  -0.12710
 Alpha virt. eigenvalues --   -0.12009  -0.10684  -0.10579  -0.10122  -0.06513
 Alpha virt. eigenvalues --   -0.05883  -0.05400  -0.04876  -0.02197  -0.02175

  Beta  occ. eigenvalues --  -19.45668 -10.51391 -10.51391 -10.43961 -10.43900
  Beta  occ. eigenvalues --   -1.39087  -1.06668  -1.00050  -0.85499  -0.82337
  Beta  occ. eigenvalues --   -0.79496  -0.70644  -0.70133  -0.66389  -0.65209
  Beta  occ. eigenvalues --   -0.63062  -0.53761
  Beta virt. eigenvalues --   -0.40527  -0.23618  -0.17574  -0.15384  -0.12597
  Beta virt. eigenvalues --   -0.12555  -0.11955  -0.10488  -0.10440  -0.09753
  Beta virt. eigenvalues --   -0.06135  -0.05405  -0.05263  -0.04625  -0.01939

 Mulliken charges and spin densities:
               1          2
     1  C   -0.059058   0.511926
     2  C   -0.059058   0.511926
     3  O    0.051119  -0.077390
     4  C   -0.016575   0.058656
     5  C   -0.016575   0.058656
     6  H    0.287256  -0.029199
     7  H    0.287256  -0.029199
     8  H    0.262818  -0.002688
     9  H    0.262818  -0.002688
 Sum of Mulliken charges =   1.00000   1.00000

 Dipole moment (field-independent basis, Debye):
    X=             -0.0000    Y=             -0.0000    Z=             -1.1829  Tot=              1.1829
 Quadrupole moment (field-independent basis, Debye-Ang):
   XX=            -27.7122   YY=            -13.6384   ZZ=            -20.9502
   XY=              0.0000   XZ=             -0.0000   YZ=              0.0000

  Exact polarizability:  23.333  -0.000  52.852  -0.000  -0.000  42.920
 Approx polarizability:  33.810   0.000  85.304  -0.000  -0.000  68.519

                      1                      2                      3
                     A2                     B1                     B1
 Frequencies --    476.4126               497.3887               765.9444
 Red. masses --      2.3000                 2.4057                 1.2353
 Frc consts  --      0.3076                 0.3507                 0.4270
 IR Inten    --      0.0000                34.2317                64.9337

                      4                      5                      6
                     B2                     A2                     A1
 Frequencies --    787.7640               837.8913               882.9477
 Red. masses --      8.5902                 1.4995                 5.3924
 Frc consts  --      3.1408                 0.6203                 2.4769
 IR Inten    --     24.9227                 0.0000                22.3519

                      7                      8                      9
                     B1                     A2                     B2
 Frequencies --    898.0193               962.5461              1005.1948
 Red. masses --      1.5461                 1.3300                 3.2245
 Frc consts  --      0.7346                 0.7260                 1.9196
 IR Inten    --      2.6515                 0.0000                 3.9483

                     10                     11                     12
                     B2                     A1                     A1
 Frequencies --   1034.6187              1062.2400              1113.7558
 Red. masses --      2.2342                 1.4815                 1.4772
 Frc consts  --      1.4091                 0.9849                 1.0796
 IR Inten    --      5.7562                55.1103                17.1160

                     13                     14                     15
                     A1                     B2                     B2
 Frequencies --   1163.8420              1294.1573              1402.2716
 Red. masses --      3.6940                 1.2187                 2.1704
 Frc consts  --      2.9481                 1.2026                 2.5146
 IR Inten    --      2.4306                 0.3951               150.3428

                     16                     17                     18
                     A1                     A1                     B2
 Frequencies --   1444.9201              1510.8751              3241.0188
 Red. masses --      3.3994                 3.1160                 1.0923
 Frc consts  --      4.1816                 4.1908                 6.7602
 IR Inten    --     55.6044                 5.1665                 4.1061

                     19                     20                     21
                     A1                     B2                     A1
 Frequencies --   3249.3619              3251.8725              3262.9547
 Red. masses --      1.0999                 1.0986                 1.1110
 Frc consts  --      6.8421                 6.8447                 6.9693
 IR Inten    --     43.7003                59.6216                 7.2301

 - Thermochemistry -
 -------------------
 Temperature   298.150 Kelvin.  Pressure   1.00000 Atm.
 Atom     1 has atomic number  6 and mass  12.00000

 Molecular mass:    68.02621 amu.
 Principal axes and moments of inertia in atomic units:
                           1         2         3
     Eigenvalues --   184.67844 203.37328 388.05172
           X            0.00000   0.00000   1.00000
           Y            0.00000   1.00000  -0.00000
           Z            1.00000  -0.00000  -0.00000
 This molecule is an asymmetric top.
 Rotational symmetry number  2.
 Rotational temperatures (Kelvin)      0.46900     0.42589     0.22320
 Rotational constants (GHZ):           9.77234     8.87403     4.65077
 Zero-point vibrational energy     180313.1 (Joules/Mol)
                                   43.09587 (Kcal/Mol)
 Warning -- explicit consideration of   2 degrees of freedom as
           vibrations may cause significant error
 Vibrational temperatures:    685.45   715.63  1102.02  1133.42  1205.54
          (Kelvin)           1270.36  1292.05  1384.89  1446.25  1488.58
                             1528.32  1602.44  1674.51  1862.00  2017.55
                             2078.92  2173.81  4663.10  4675.10  4678.71
                             4694.66

 Zero-point correction=                           0.068678 (Hartree/Particle)
 Thermal correction to Energy=                    0.072542
 Thermal correction to Enthalpy=                  0.073486
 Thermal correction to Gibbs Free Energy=         0.042316
 Sum of electronic and zero-point Energies=           -229.696476
 Sum of electronic and thermal Energies=              -229.692612
 Sum of electronic and thermal Enthalpies=            -229.691668
 Sum of electronic and thermal Free Energies=         -229.722838

                     E (Thermal)             CV                S
                      KCal/Mol        Cal/Mol-Kelvin    Cal/Mol-Kelvin
 Total                   45.521             13.880             65.603
 Electronic               0.000              0.000              1.377
 Translational            0.889              2.981             38.570
 Rotational               0.889              2.981             22.815
 Vibrational             43.743              7.918              2.841
 Vibration     1          0.833              1.302              0.720
 Vibration     2          0.853              1.256              0.665

 Optimization completed.
    -- Stationary point found.
 Normal termination of Gaussian 09 at Thu Jan 24 16:18:11 2019.
