 Gaussian 09, Revision D.01,
 Gaussian 09:  ES64L-G09RevD.01 24-Apr-2013

 ---------------------------
 #p b3lyp/6-311++g(d,p) freq
 ---------------------------

 ---
 min
 ---
 Symbolic Z-matrix:
 Charge =  1 Multiplicity = 2

                         Standard orientation:
 ---------------------------------------------------------------------
 Center     Atomic      Atomic             Coordinates (Angstroms)
 Number     Number       Type             X           Y           Z
 ---------------------------------------------------------------------
      1          6           0       -0.000000   -0.688698    0.751994
      2          1           0       -0.000000   -1.456678    1.515738
      3          6           0        0.000000   -0.688698   -0.751994
      4          1           0        0.000000   -1.456678   -1.515738
      5          6           0        0.000000    0.688698    0.751994
      6          6           0        0.000000    0.688698   -0.751994
      7          1           0        0.000000    1.456678   -1.515738
      8          1           0        0.000000    1.456678    1.515738
 ---------------------------------------------------------------------

 SCF Done:  E(UB3LYP) =  -154.438459095     A.U. after   10 cycles

 The electronic state is 2-B2G.
 Alpha  occ. eigenvalues --  -10.47456 -10.47433 -10.47393 -10.47371  -1.16904
 Alpha  occ. eigenvalues --   -0.93455  -0.89057  -0.77914  -0.76781  -0.67198
 Alpha  occ. eigenvalues --   -0.64920  -0.64783  -0.60615  -0.46390
 Alpha virt. eigenvalues --   -0.35630  -0.19154  -0.14844  -0.14774  -0.13405
 Alpha virt. eigenvalues --   -0.12141  -0.10812  -0.10414  -0.08759  -0.08157
 Alpha virt. eigenvalues --   -0.05472  -0.05365  -0.04688  -0.02694  -0.01332

  Beta  occ. eigenvalues --  -10.47043 -10.47016 -10.46983 -10.46960  -1.15595
  Beta  occ. eigenvalues --   -0.91512  -0.88224  -0.77453  -0.76003  -0.66576
  Beta  occ. eigenvalues --   -0.64362  -0.60819  -0.60388
  Beta virt. eigenvalues --   -0.36662  -0.32884  -0.15495  -0.14756  -0.14425
  Beta virt. eigenvalues --   -0.13224  -0.11858  -0.10559  -0.10143  -0.08425
  Beta virt. eigenvalues --   -0.08142  -0.05272  -0.04989  -0.04428  -0.02300

 Mulliken charges and spin densities:
               1          2
     1  C   -0.019306   0.262571
     2  H    0.269306  -0.012571
     3  C   -0.019306   0.262571
     4  H    0.269306  -0.012571
     5  C   -0.019306   0.262571
     6  C   -0.019306   0.262571
     7  H    0.269306  -0.012571
     8  H    0.269306  -0.012571
 Sum of Mulliken charges =   1.00000   1.00000

 Dipole moment (field-independent basis, Debye):
    X=              0.0000    Y=              0.0000    Z=             -0.0000  Tot=              0.0000
 Quadrupole moment (field-independent basis, Debye-Ang):
   XX=            -22.4326   YY=            -13.4307   ZZ=            -13.4294
   XY=              0.0000   XZ=             -0.0000   YZ=              0.0000

  Exact polarizability:  20.896   0.000  42.812  -0.000   0.000  40.952
 Approx polarizability:  30.832   0.000  74.128  -0.000  -0.000  57.805

                      1                      2                      3
                     AU                     B3U                    B2U
 Frequencies --    264.2501               638.4617               831.7830
 Red. masses --      1.8598                 1.0848                 2.1467
 Frc consts  --      0.0765                 0.2605                 0.8751
 IR Inten    --      0.0000                93.2793                 1.0032

                      4                      5                      6
                     B3G                    B2G                    AU
 Frequencies --    839.6334               872.9712               941.0615
 Red. masses --      6.4290                 1.3140                 1.8592
 Frc consts  --      2.6704                 0.5900                 0.9701
 IR Inten    --      0.0000                 0.0000                 0.0000

                      7                      8                      9
                     B1G                    AG                     B1U
 Frequencies --    981.8209              1023.9177              1053.7746
 Red. masses --      1.3441                 1.1916                 1.1767
 Frc consts  --      0.7634                 0.7360                 0.7698
 IR Inten    --      0.0000                 0.0000                 1.5704

                     10                     11                     12
                     AG                     B3G                    B2U
 Frequencies --   1208.6644              1221.9176              1297.2632
 Red. masses --      3.6901                 1.3330                 1.6244
 Frc consts  --      3.1762                 1.1727                 1.6107
 IR Inten    --      0.0000                 0.0000                73.8446

                     13                     14                     15
                     B1U                    AG                     B3G
 Frequencies --   1484.6708              1505.9590              3201.2783
 Red. masses --      4.0856                 6.6979                 1.0834
 Frc consts  --      5.3060                 8.9499                 6.5419
 IR Inten    --     94.1823                 0.0000                 0.0000

                     16                     17                     18
                     B2U                    B1U                    AG
 Frequencies --   3223.9593              3237.3079              3245.5129
 Red. masses --      1.0917                 1.1077                 1.1216
 Frc consts  --      6.6857                 6.8398                 6.9605
 IR Inten    --     51.2870                29.0992                 0.0000

 - Thermochemistry -
 -------------------
 Temperature   298.150 Kelvin.  Pressure   1.00000 Atm.
 Atom     1 has atomic number  6 and mass  12.00000

 Molecular mass:    52.03130 amu.
 Principal axes and moments of inertia in atomic units:
                           1         2         3
     Eigenvalues --   111.84812 130.00646 241.85458
           X            0.00000  -0.00000   1.00000
           Y            0.00000   1.00000   0.00000
           Z            1.00000  -0.00000  -0.00000
 This molecule is an asymmetric top.
 Rotational symmetry number  4.
 Rotational temperatures (Kelvin)      0.77439     0.66623     0.35812
 Rotational constants (GHZ):          16.13564    13.88193     7.46209
 Zero-point vibrational energy     161939.7 (Joules/Mol)
                                   38.70452 (Kcal/Mol)
 Warning -- explicit consideration of   1 degrees of freedom as
           vibrations may cause significant error
 Vibrational temperatures:    380.20   918.60  1196.75  1208.04  1256.01
          (Kelvin)           1353.98  1412.62  1473.19  1516.14  1739.00
                             1758.06  1866.47  2136.11  2166.74  4605.92
                             4638.55  4657.76  4669.56

 Zero-point correction=                           0.061680 (Hartree/Particle)
 Thermal correction to Energy=                    0.065518
 Thermal correction to Enthalpy=                  0.066462
 Thermal correction to Gibbs Free Energy=         0.036900
 Sum of electronic and zero-point Energies=           -154.376780
 Sum of electronic and thermal Energies=              -154.372941
 Sum of electronic and thermal Enthalpies=            -154.371997
 Sum of electronic and thermal Free Energies=         -154.401559

                     E (Thermal)             CV                S
                      KCal/Mol        Cal/Mol-Kelvin    Cal/Mol-Kelvin
 Total                   41.113             12.587             62.219
 Electronic               0.000              0.000              1.377
 Translational            0.889              2.981             37.771
 Rotational               0.889              2.981             20.025
 Vibrational             39.336              6.625              3.046
 Vibration     1          0.671              1.738              1.634

 Optimization completed.
    -- Stationary point found.
 Normal termination of Gaussian 09 at Thu Jan 24 16:00:17 2019.
