 Gaussian 09, Revision D.01,
 Gaussian 09:  ES64L-G09RevD.01 24-Apr-2013

 ---------------------------
 #p b3lyp/6-311++g(d,p) freq
 ---------------------------

 ---
 min
 ---
 Symbolic Z-matrix:
 Charge =  1 Multiplicity = 2

                         Standard orientation:
 ---------------------------------------------------------------------
 Center     Atomic      Atomic             Coordinates (Angstroms)
 Number     Number       Type             X           Y           Z
 ---------------------------------------------------------------------
      1          1           0       -1.171362   -1.695663    0.000000
      2          6           0        0.000000    0.720351   -0.000000
      3          6           0       -0.540082    1.821816   -0.000000
      4          1           0       -1.014143    2.783226   -0.000000
      5          6           0        0.631782   -0.502998    0.000000
      6          6           0       -0.086187   -1.693056    0.000000
      7          1           0        1.719795   -0.518043    0.000000
      8          1           0        0.432632   -2.646193    0.000000
 ---------------------------------------------------------------------

 SCF Done:  E(UB3LYP) =  -154.443298257     A.U. after   15 cycles

 The electronic state is 2-A".
 Alpha  occ. eigenvalues --  -10.47113 -10.46980 -10.46367 -10.44956  -1.07874
 Alpha  occ. eigenvalues --   -1.00936  -0.88780  -0.78104  -0.74893  -0.70504
 Alpha  occ. eigenvalues --   -0.63841  -0.61246  -0.53794  -0.52229
 Alpha virt. eigenvalues --   -0.31394  -0.21633  -0.15296  -0.15181  -0.12905
 Alpha virt. eigenvalues --   -0.12539  -0.11103  -0.09498  -0.08251  -0.07014
 Alpha virt. eigenvalues --   -0.06748  -0.05051  -0.04508  -0.03234  -0.03094

  Beta  occ. eigenvalues --  -10.46965 -10.46329 -10.45687 -10.44885  -1.06708
  Beta  occ. eigenvalues --   -0.98672  -0.87720  -0.77448  -0.74491  -0.69964
  Beta  occ. eigenvalues --   -0.63552  -0.57774  -0.53132
  Beta virt. eigenvalues --   -0.42290  -0.27244  -0.21232  -0.15053  -0.13223
  Beta virt. eigenvalues --   -0.12755  -0.12330  -0.10877  -0.08991  -0.08121
  Beta virt. eigenvalues --   -0.06911  -0.06365  -0.04357  -0.04340  -0.03081

 Mulliken charges and spin densities:
               1          2
     1  H    0.230153  -0.020149
     2  C    1.442739   0.013025
     3  C   -1.561254   0.409283
     4  H    0.232506  -0.017556
     5  C    0.410375   0.169002
     6  C   -0.276015   0.471122
     7  H    0.274273  -0.003501
     8  H    0.247222  -0.021227
 Sum of Mulliken charges =   1.00000   1.00000

 Dipole moment (field-independent basis, Debye):
    X=             -0.3564    Y=             -0.3352    Z=              0.0000  Tot=              0.4893
 Quadrupole moment (field-independent basis, Debye-Ang):
   XX=            -17.4082   YY=             -2.0172   ZZ=            -22.5000
   XY=             -4.4777   XZ=              0.0000   YZ=             -0.0000

  Exact polarizability:  33.074  -9.924  78.468   0.000  -0.001  20.365
 Approx polarizability:  48.709 -21.910 132.180   0.000  -0.000  27.875

                      1                      2                      3
                     A'                     A"                     A"
 Frequencies --    212.7427               285.2313               523.8228
 Red. masses --      3.2051                 1.7642                 1.6277
 Frc consts  --      0.0855                 0.0846                 0.2631
 IR Inten    --      6.1325                13.7410                 1.5853

                      4                      5                      6
                     A'                     A'                     A"
 Frequencies --    551.2075               688.9790               779.0417
 Red. masses --      3.6694                 1.2343                 1.3887
 Frc consts  --      0.6569                 0.3452                 0.4966
 IR Inten    --      9.7763                50.9668                14.0632

                      7                      8                      9
                     A"                     A'                     A"
 Frequencies --    889.6903               934.7904              1060.6318
 Red. masses --      1.2438                 2.0731                 1.4347
 Frc consts  --      0.5801                 1.0673                 0.9509
 IR Inten    --     30.7624                 0.9681                11.0892

                     10                     11                     12
                     A'                     A'                     A'
 Frequencies --   1130.3092              1274.5566              1431.9901
 Red. masses --      1.7980                 1.6703                 1.5684
 Frc consts  --      1.3535                 1.5987                 1.8949
 IR Inten    --      0.4576                28.8002                64.8554

                     13                     14                     15
                     A'                     A'                     A'
 Frequencies --   1533.9989              2123.6056              3143.7226
 Red. masses --      1.7176                 6.5198                 1.0554
 Frc consts  --      2.3814                17.3233                 6.1453
 IR Inten    --     39.1466               124.4229                16.4873

                     16                     17                     18
                     A'                     A'                     A'
 Frequencies --   3156.1123              3256.1108              3390.6595
 Red. masses --      1.0920                 1.1222                 1.1537
 Frc consts  --      6.4087                 7.0099                 7.8144
 IR Inten    --     14.7525                14.4924               141.6753

 - Thermochemistry -
 -------------------
 Temperature   298.150 Kelvin.  Pressure   1.00000 Atm.
 Atom     1 has atomic number  1 and mass   1.00783

 Molecular mass:    52.03130 amu.
 Principal axes and moments of inertia in atomic units:
                           1         2         3
     Eigenvalues --    38.79852 373.32772 412.12623
           X           -0.18201   0.98330   0.00000
           Y            0.98330   0.18201   0.00000
           Z           -0.00000  -0.00000   1.00000
 This molecule is an asymmetric top.
 Rotational symmetry number  1.
 Rotational temperatures (Kelvin)      2.23240     0.23200     0.21016
 Rotational constants (GHZ):          46.51572     4.83420     4.37910
 Zero-point vibrational energy     157710.9 (Joules/Mol)
                                   37.69381 (Kcal/Mol)
 Warning -- explicit consideration of   4 degrees of freedom as
           vibrations may cause significant error
 Vibrational temperatures:    306.09   410.38   753.66   793.06   991.29
          (Kelvin)           1120.87  1280.06  1344.95  1526.01  1626.26
                             1833.80  2060.31  2207.08  3055.39  4523.11
                             4540.94  4684.81  4878.40

 Zero-point correction=                           0.060069 (Hartree/Particle)
 Thermal correction to Energy=                    0.064657
 Thermal correction to Enthalpy=                  0.065602
 Thermal correction to Gibbs Free Energy=         0.033238
 Sum of electronic and zero-point Energies=           -154.383229
 Sum of electronic and thermal Energies=              -154.378641
 Sum of electronic and thermal Enthalpies=            -154.377697
 Sum of electronic and thermal Free Energies=         -154.410060

                     E (Thermal)             CV                S
                      KCal/Mol        Cal/Mol-Kelvin    Cal/Mol-Kelvin
 Total                   40.573             15.224             68.115
 Electronic               0.000              0.000              1.377
 Translational            0.889              2.981             37.771
 Rotational               0.889              2.981             23.305
 Vibrational             38.796              9.262              5.662
 Vibration     1          0.644              1.821              2.020
 Vibration     2          0.683              1.701              1.502
 Vibration     3          0.879              1.197              0.601
 Vibration     4          0.907              1.137              0.542

 Optimization completed.
    -- Stationary point found.
 Normal termination of Gaussian 09 at Thu Jan 24 16:04:27 2019.
