 Gaussian 09, Revision D.01,
 Gaussian 09:  ES64L-G09RevD.01 24-Apr-2013

 ---------------------------
 #p b3lyp/6-311++g(d,p) freq
 ---------------------------

 ---
 min
 ---
 Symbolic Z-matrix:
 Charge =  1 Multiplicity = 2

                         Standard orientation:
 ---------------------------------------------------------------------
 Center     Atomic      Atomic             Coordinates (Angstroms)
 Number     Number       Type             X           Y           Z
 ---------------------------------------------------------------------
      1          6           0       -0.000000    0.851028    0.383934
      2          1           0       -0.000000    1.645530    1.115592
      3          6           0       -0.851028    0.000000   -0.383934
      4          1           0       -1.645530    0.000000   -1.115592
      5          6           0       -0.000000   -0.851028    0.383934
      6          1           0       -0.000000   -1.645530    1.115592
      7          6           0        0.851028   -0.000000   -0.383934
      8          1           0        1.645530   -0.000000   -1.115592
 ---------------------------------------------------------------------

 SCF Done:  E(UB3LYP) =  -154.388991271     A.U. after   10 cycles

 The electronic state is 2-A1.
 Alpha  occ. eigenvalues --  -10.49099 -10.49046 -10.49046 -10.49014  -1.26442
 Alpha  occ. eigenvalues --   -0.89124  -0.89124  -0.84113  -0.78999  -0.68708
 Alpha  occ. eigenvalues --   -0.68708  -0.62728  -0.60012  -0.44602
 Alpha virt. eigenvalues --   -0.22867  -0.22867  -0.15580  -0.14378  -0.13260
 Alpha virt. eigenvalues --   -0.13260  -0.10244  -0.09308  -0.08538  -0.08538
 Alpha virt. eigenvalues --   -0.07151  -0.06907  -0.05356  -0.05037  -0.02635

  Beta  occ. eigenvalues --  -10.48706 -10.48655 -10.48655 -10.48618  -1.25453
  Beta  occ. eigenvalues --   -0.87769  -0.87769  -0.82366  -0.78367  -0.67905
  Beta  occ. eigenvalues --   -0.67905  -0.60272  -0.59218
  Beta virt. eigenvalues --   -0.35140  -0.20565  -0.20565  -0.15009  -0.14276
  Beta virt. eigenvalues --   -0.12649  -0.12649  -0.09876  -0.09120  -0.08367
  Beta virt. eigenvalues --   -0.08367  -0.07004  -0.06887  -0.04800  -0.04155

 Mulliken charges and spin densities:
               1          2
     1  C   -0.033063   0.254634
     2  H    0.283063  -0.004634
     3  C   -0.033063   0.254634
     4  H    0.283063  -0.004634
     5  C   -0.033063   0.254634
     6  H    0.283063  -0.004634
     7  C   -0.033063   0.254634
     8  H    0.283063  -0.004634
 Sum of Mulliken charges =   1.00000   1.00000

 Dipole moment (field-independent basis, Debye):
    X=              0.0000    Y=              0.0000    Z=              0.0000  Tot=              0.0000
 Quadrupole moment (field-independent basis, Debye-Ang):
   XX=            -16.3946   YY=            -16.3946   ZZ=            -17.0320
   XY=             -0.0000   XZ=             -0.0000   YZ=             -0.0000

  Exact polarizability:  35.639  -0.000  35.639  -0.000  -0.000  29.849
 Approx polarizability:  58.411   0.000  58.411   0.000   0.000  43.144

                      1                      2                      3
                     A1                     B2                     B2
 Frequencies --    485.1681               614.0540               652.2168
 Red. masses --     11.7067                 8.0809                 1.0467
 Frc consts  --      1.6236                 1.7952                 0.2623
 IR Inten    --      0.0000                14.1259                51.1615

                      4                      5                      6
                     B1                     A1                      E
 Frequencies --    709.5129               759.7871               765.7921
 Red. masses --     11.2692                 1.0102                 1.2821
 Frc consts  --      3.3424                 0.3436                 0.4430
 IR Inten    --      0.0000                 0.0000                45.8940

                      7                      8                      9
                      E                     B1                      E
 Frequencies --    765.7921               930.1186               996.6087
 Red. masses --      1.2821                 1.0133                 1.2326
 Frc consts  --      0.4430                 0.5165                 0.7213
 IR Inten    --     45.8940                 0.0000                26.5490

                     10                     11                     12
                      E                     A2                      E
 Frequencies --    996.6087              1039.7021              1304.2842
 Red. masses --      1.2326                 1.2903                 4.5799
 Frc consts  --      0.7213                 0.8218                 4.5904
 IR Inten    --     26.5490                 0.0000                 3.1047

                     13                     14                     15
                      E                     A1                     B2
 Frequencies --   1304.2842              1448.4011              3248.2615
 Red. masses --      4.5799                 5.1345                 1.0890
 Frc consts  --      4.5904                 6.3464                 6.7698
 IR Inten    --      3.1047                 0.0000                99.5674

                     16                     17                     18
                      E                      E                     A1
 Frequencies --   3251.8614              3251.8614              3282.5878
 Red. masses --      1.1020                 1.1020                 1.1349
 Frc consts  --      6.8658                 6.8658                 7.2054
 IR Inten    --    114.7057               114.7057                 0.0000

 - Thermochemistry -
 -------------------
 Temperature   298.150 Kelvin.  Pressure   1.00000 Atm.
 Atom     1 has atomic number  6 and mass  12.00000

 Molecular mass:    52.03130 amu.
 Principal axes and moments of inertia in atomic units:
                           1         2         3
     Eigenvalues --   124.74613 124.74613 163.12525
           X            0.98577   0.16808   0.00000
           Y           -0.16808   0.98577   0.00000
           Z           -0.00000  -0.00000   1.00000
 This molecule is an oblate symmetric top.
 Rotational symmetry number  4.
 Rotational temperatures (Kelvin)      0.69432     0.69432     0.53097
 Rotational constants (GHZ):          14.46731    14.46731    11.06353
 Zero-point vibrational energy     154359.6 (Joules/Mol)
                                   36.89282 (Kcal/Mol)
 Warning -- explicit consideration of   2 degrees of freedom as
           vibrations may cause significant error
 Vibrational temperatures:    698.05   883.49   938.39  1020.83  1093.16
          (Kelvin)           1101.80  1101.80  1338.23  1433.90  1433.90
                             1495.90  1876.57  1876.57  2083.92  4673.52
                             4678.70  4678.70  4722.91

 Zero-point correction=                           0.058792 (Hartree/Particle)
 Thermal correction to Energy=                    0.062706
 Thermal correction to Enthalpy=                  0.063650
 Thermal correction to Gibbs Free Energy=         0.034281
 Sum of electronic and zero-point Energies=           -154.330199
 Sum of electronic and thermal Energies=              -154.326285
 Sum of electronic and thermal Enthalpies=            -154.325341
 Sum of electronic and thermal Free Energies=         -154.354710

                     E (Thermal)             CV                S
                      KCal/Mol        Cal/Mol-Kelvin    Cal/Mol-Kelvin
 Total                   39.349             14.058             61.812
 Electronic               0.000              0.000              1.377
 Translational            0.889              2.981             37.771
 Rotational               0.889              2.981             19.701
 Vibrational             37.571              8.096              2.964
 Vibration     1          0.841              1.283              0.696
 Vibration     2          0.973              1.002              0.426

 Normal termination of Gaussian 09 at Thu Jan 24 16:01:29 2019.
