 Gaussian 09, Revision D.01,
 Gaussian 09:  ES64L-G09RevD.01 24-Apr-2013

 ---------------------------
 #p b3lyp/6-311++g(d,p) freq
 ---------------------------

 ---
 min
 ---
 Symbolic Z-matrix:
 Charge =  1 Multiplicity = 4

                         Standard orientation:
 ---------------------------------------------------------------------
 Center     Atomic      Atomic             Coordinates (Angstroms)
 Number     Number       Type             X           Y           Z
 ---------------------------------------------------------------------
      1          6           0       -0.000000    0.000000   -0.641059
      2          6           0       -0.000000    0.000000    0.641059
      3          6           0        0.000000   -0.000000    2.014884
      4          6           0        0.000000   -0.000000   -2.014884
      5          1           0       -0.414423    0.840321   -2.573060
      6          1           0        0.414423   -0.840321   -2.573060
      7          1           0       -0.414423   -0.840321    2.573060
      8          1           0        0.414423    0.840321    2.573060
 ---------------------------------------------------------------------

 SCF Done:  E(UB3LYP) =  -154.339005458     A.U. after   12 cycles

 The electronic state is 4-B3.
 Alpha  occ. eigenvalues --  -10.50189 -10.50064 -10.45010 -10.45010  -1.09444
 Alpha  occ. eigenvalues --   -1.01394  -0.93974  -0.75434  -0.72411  -0.70764
 Alpha  occ. eigenvalues --   -0.69097  -0.61982  -0.58946  -0.49552  -0.43031
 Alpha virt. eigenvalues --   -0.24254  -0.17856  -0.16334  -0.14098  -0.11155
 Alpha virt. eigenvalues --   -0.10098  -0.09584  -0.07609  -0.06005  -0.05869
 Alpha virt. eigenvalues --   -0.04461  -0.03920  -0.03419  -0.03221  -0.01591

  Beta  occ. eigenvalues --  -10.49152 -10.49035 -10.43879 -10.43879  -1.04636
  Beta  occ. eigenvalues --   -0.97448  -0.90284  -0.72921  -0.70520  -0.67308
  Beta  occ. eigenvalues --   -0.66551  -0.56802
  Beta virt. eigenvalues --   -0.46016  -0.36591  -0.29574  -0.17933  -0.15840
  Beta virt. eigenvalues --   -0.13125  -0.12926  -0.10869  -0.09698  -0.09222
  Beta virt. eigenvalues --   -0.06780  -0.05605  -0.04305  -0.03476  -0.02671

 Mulliken charges and spin densities:
               1          2
     1  C    0.490443   0.638242
     2  C    0.490443   0.638242
     3  C   -0.456639   0.841644
     4  C   -0.456639   0.841644
     5  H    0.233098   0.010057
     6  H    0.233098   0.010057
     7  H    0.233098   0.010057
     8  H    0.233098   0.010057
 Sum of Mulliken charges =   1.00000   3.00000

 Dipole moment (field-independent basis, Debye):
    X=              0.0000    Y=             -0.0000    Z=              0.0000  Tot=              0.0000
 Quadrupole moment (field-independent basis, Debye-Ang):
   XX=            -23.0020   YY=            -19.1775   ZZ=              0.3802
   XY=              0.0000   XZ=             -0.0000   YZ=              0.0000

  Exact polarizability:  22.296   0.000  24.573  -0.000   0.000  90.531
 Approx polarizability:  28.956   0.000  32.948  -0.000   0.000 147.574

                      1                      2                      3
                     B2                     B3                     B2
 Frequencies --    105.9905               184.6834               353.6790
 Red. masses --      3.2470                 3.2966                 4.5294
 Frc consts  --      0.0215                 0.0662                 0.3338
 IR Inten    --      3.7617                10.6526                 1.1856

                      4                      5                      6
                     B3                      A                     B2
 Frequencies --    393.7640               525.6610               657.9750
 Red. masses --      3.9269                 1.0119                 1.4073
 Frc consts  --      0.3587                 0.1647                 0.3590
 IR Inten    --      0.2507                 0.0000                46.6043

                      7                      8                      9
                     B3                      A                     B2
 Frequencies --    666.7729               808.6564               891.6271
 Red. masses --      1.3871                 4.5514                 1.3302
 Frc consts  --      0.3633                 1.7536                 0.6231
 IR Inten    --     86.4018                 0.0000                 1.5171

                     10                     11                     12
                     B3                     B1                     B1
 Frequencies --    913.8488               977.4124              1348.4655
 Red. masses --      1.4265                 9.4859                 1.0730
 Frc consts  --      0.7019                 5.3393                 1.1496
 IR Inten    --      3.6375                 0.0050                65.8917

                     13                     14                     15
                      A                      A                     B1
 Frequencies --   1356.8593              1968.1527              3055.9115
 Red. masses --      1.1229                11.0315                 1.0416
 Frc consts  --      1.2181                25.1769                 5.7313
 IR Inten    --      0.0000                 0.0000               223.8264

                     16                     17                     18
                      A                     B2                     B3
 Frequencies --   3068.1778              3161.9340              3162.5750
 Red. masses --      1.0479                 1.1147                 1.1151
 Frc consts  --      5.8121                 6.5663                 6.5711
 IR Inten    --      0.0000                90.2186                23.4318

 - Thermochemistry -
 -------------------
 Temperature   298.150 Kelvin.  Pressure   1.00000 Atm.
 Atom     1 has atomic number  6 and mass  12.00000

 Molecular mass:    52.03130 amu.
 Principal axes and moments of inertia in atomic units:
                           1         2         3
     Eigenvalues --    12.63806 480.94823 488.64136
           X           -0.00000   0.00000   1.00000
           Y            0.00000   1.00000  -0.00000
           Z            1.00000  -0.00000   0.00000
 This molecule is an asymmetric top.
 Rotational symmetry number  4.
 Rotational temperatures (Kelvin)      6.85341     0.18009     0.17725
 Rotational constants (GHZ):         142.80205     3.75246     3.69339
 Zero-point vibrational energy     141172.2 (Joules/Mol)
                                   33.74096 (Kcal/Mol)
 Warning -- explicit consideration of   5 degrees of freedom as
           vibrations may cause significant error
 Vibrational temperatures:    152.50   265.72   508.86   566.54   756.31
          (Kelvin)            946.68   959.34  1163.47  1282.85  1314.82
                             1406.28  1940.14  1952.22  2831.73  4396.77
                             4414.42  4549.31  4550.23

 Zero-point correction=                           0.053770 (Hartree/Particle)
 Thermal correction to Energy=                    0.059288
 Thermal correction to Enthalpy=                  0.060233
 Thermal correction to Gibbs Free Energy=         0.026940
 Sum of electronic and zero-point Energies=           -154.285236
 Sum of electronic and thermal Energies=              -154.279717
 Sum of electronic and thermal Enthalpies=            -154.278773
 Sum of electronic and thermal Free Energies=         -154.312065

                     E (Thermal)             CV                S
                      KCal/Mol        Cal/Mol-Kelvin    Cal/Mol-Kelvin
 Total                   37.204             18.112             70.069
 Electronic               0.000              0.000              2.755
 Translational            0.889              2.981             37.771
 Rotational               0.889              2.981             19.857
 Vibrational             35.427             12.150              9.687
 Vibration     1          0.605              1.944              3.341
 Vibration     2          0.631              1.861              2.281
 Vibration     3          0.730              1.568              1.150
 Vibration     4          0.761              1.484              0.986
 Vibration     5          0.881              1.193              0.597

 Optimization completed.
    -- Stationary point found.
 Normal termination of Gaussian 09 at Thu Jan 24 16:07:44 2019.
