 Gaussian 09, Revision D.01,
 Gaussian 09:  ES64L-G09RevD.01 24-Apr-2013

 ---------------------------
 #p b3lyp/6-311++g(d,p) freq
 ---------------------------

 ---
 min
 ---
 Symbolic Z-matrix:
 Charge =  0 Multiplicity = 3

                         Standard orientation:
 ---------------------------------------------------------------------
 Center     Atomic      Atomic             Coordinates (Angstroms)
 Number     Number       Type             X           Y           Z
 ---------------------------------------------------------------------
      1          6           0        0.096307   -0.174525   -0.003211
      2          6           0        1.534237    0.101708   -0.004230
      3          1           0        1.831520    0.607809    0.920524
      4          1           0        2.098981   -0.830885   -0.090897
      5          1           0        1.806526    0.753139   -0.840887
      6          6           0       -1.036331   -0.817454   -0.044499
      7          6           0       -1.274441    0.576319    0.141048
      8          1           0       -1.655658    1.353655   -0.523391
 ---------------------------------------------------------------------

 SCF Done:  E(UB3LYP) =  -154.644106199     A.U. after   16 cycles

 The electronic state is 3-A.
 Alpha  occ. eigenvalues --  -10.22980 -10.21722 -10.21643 -10.20722  -0.90907
 Alpha  occ. eigenvalues --   -0.76698  -0.59431  -0.52107  -0.46933  -0.45610
 Alpha  occ. eigenvalues --   -0.40857  -0.39660  -0.35375  -0.24536  -0.18571
 Alpha virt. eigenvalues --   -0.01194  -0.00975   0.01342   0.02694   0.03147
 Alpha virt. eigenvalues --    0.04776   0.05558   0.07035   0.07765   0.08375
 Alpha virt. eigenvalues --    0.10310   0.11291   0.11593   0.12523   0.12833

  Beta  occ. eigenvalues --  -10.22318 -10.20757 -10.20603 -10.20068  -0.88771
  Beta  occ. eigenvalues --   -0.76202  -0.55963  -0.50654  -0.45616  -0.44953
  Beta  occ. eigenvalues --   -0.37919  -0.35748  -0.31927
  Beta virt. eigenvalues --   -0.12023  -0.05634  -0.01069   0.01380   0.01519
  Beta virt. eigenvalues --    0.02903   0.03358   0.05041   0.05750   0.07348
  Beta virt. eigenvalues --    0.07908   0.09045   0.10604   0.11599   0.12249

 Mulliken charges and spin densities:
               1          2
     1  C    0.450157   0.391581
     2  C   -0.536983  -0.078336
     3  H    0.165983   0.023943
     4  H    0.170564   0.024008
     5  H    0.161596   0.007541
     6  C   -0.290839   0.548739
     7  C   -0.243488   1.065588
     8  H    0.123010   0.016935
 Sum of Mulliken charges =  -0.00000   2.00000

 Dipole moment (field-independent basis, Debye):
    X=              2.3860    Y=              0.9738    Z=             -0.7295  Tot=              2.6783
 Quadrupole moment (field-independent basis, Debye-Ang):
   XX=            -24.1524   YY=            -25.5175   ZZ=            -25.4262
   XY=             -1.2371   XZ=              1.2860   YZ=             -1.1139

  Exact polarizability:  58.600  -0.621  47.590  -0.313   0.985  35.239
 Approx polarizability:  83.934   3.626  72.096  -0.735   2.357  47.923

                      1                      2                      3
                      A                      A                      A
 Frequencies --    154.2744               287.4792               300.4793
 Red. masses --      1.1585                 3.5154                 2.9678
 Frc consts  --      0.0162                 0.1712                 0.1579
 IR Inten    --      0.4684                 3.9072                 3.7245

                      4                      5                      6
                      A                      A                      A
 Frequencies --    585.7109               875.4629               901.8271
 Red. masses --      4.8712                 1.2575                 1.2852
 Frc consts  --      0.9846                 0.5679                 0.6158
 IR Inten    --     14.8534                30.2713                25.2554

                      7                      8                      9
                      A                      A                      A
 Frequencies --    940.6328              1034.6354              1046.9810
 Red. masses --      4.1048                 1.6487                 1.4399
 Frc consts  --      2.1398                 1.0399                 0.9299
 IR Inten    --     16.2263                 0.9323                 0.9519

                     10                     11                     12
                      A                      A                      A
 Frequencies --   1109.0000              1402.6059              1462.8561
 Red. masses --      4.9859                 1.2264                 1.0405
 Frc consts  --      3.6129                 1.4215                 1.3118
 IR Inten    --     25.5001                 0.8372                13.0038

                     13                     14                     15
                      A                      A                      A
 Frequencies --   1473.2481              1805.3598              3012.8527
 Red. masses --      1.0426                11.0784                 1.0337
 Frc consts  --      1.3333                21.2743                 5.5287
 IR Inten    --     12.1522                 1.2010                20.0549

                     16                     17                     18
                      A                      A                      A
 Frequencies --   3064.2825              3066.7946              3088.2735
 Red. masses --      1.0898                 1.0995                 1.1014
 Frc consts  --      6.0292                 6.0926                 6.1893
 IR Inten    --     29.6014                 6.6999                 8.0227

 - Thermochemistry -
 -------------------
 Temperature   298.150 Kelvin.  Pressure   1.00000 Atm.
 Atom     1 has atomic number  6 and mass  12.00000

 Molecular mass:    52.03130 amu.
 Principal axes and moments of inertia in atomic units:
                           1         2         3
     Eigenvalues --    64.21543 272.80775 322.30598
           X            0.99968  -0.02243   0.01198
           Y            0.02304   0.99832  -0.05309
           Z           -0.01077   0.05335   0.99852
 This molecule is an asymmetric top.
 Rotational symmetry number  1.
 Rotational temperatures (Kelvin)      1.34880     0.31749     0.26873
 Rotational constants (GHZ):          28.10448     6.61543     5.59947
 Zero-point vibrational energy     153198.3 (Joules/Mol)
                                   36.61527 (Kcal/Mol)
 Warning -- explicit consideration of   4 degrees of freedom as
           vibrations may cause significant error
 Vibrational temperatures:    221.97   413.62   432.32   842.71  1259.59
          (Kelvin)           1297.53  1353.36  1488.61  1506.37  1595.60
                             2018.03  2104.72  2119.67  2597.51  4334.82
                             4408.81  4412.43  4443.33

 Zero-point correction=                           0.058350 (Hartree/Particle)
 Thermal correction to Energy=                    0.063108
 Thermal correction to Enthalpy=                  0.064052
 Thermal correction to Gibbs Free Energy=         0.030851
 Sum of electronic and zero-point Energies=           -154.585756
 Sum of electronic and thermal Energies=              -154.580998
 Sum of electronic and thermal Enthalpies=            -154.580054
 Sum of electronic and thermal Free Energies=         -154.613255

                     E (Thermal)             CV                S
                      KCal/Mol        Cal/Mol-Kelvin    Cal/Mol-Kelvin
 Total                   39.601             15.010             69.879
 Electronic               0.000              0.000              2.183
 Translational            0.889              2.981             37.771
 Rotational               0.889              2.981             23.250
 Vibrational             37.824              9.048              6.675
 Vibration     1          0.620              1.898              2.619
 Vibration     2          0.685              1.697              1.489
 Vibration     3          0.693              1.673              1.414
 Vibration     4          0.943              1.062              0.475

 Normal termination of Gaussian 09 at Sun Mar  4 21:21:03 2018.
