 Gaussian 09, Revision D.01,
 Gaussian 09:  ES64L-G09RevD.01 24-Apr-2013

 ---------------------------
 #p b3lyp/6-311++g(d,p) freq
 ---------------------------

 ---
 min
 ---
 Symbolic Z-matrix:
 Charge =  0 Multiplicity = 1

                         Standard orientation:
 ---------------------------------------------------------------------
 Center     Atomic      Atomic             Coordinates (Angstroms)
 Number     Number       Type             X           Y           Z
 ---------------------------------------------------------------------
      1          6           0       -1.489896    0.745174   -0.000000
      2          6           0        0.000000    0.494932   -0.000000
      3          8           0        0.825448    1.383720   -0.000000
      4          6           0        0.407465   -0.905182    0.000000
      5          6           0        0.736666   -2.063144    0.000000
      6          1           0       -1.680755    1.817688   -0.000000
      7          1           0       -1.946029    0.281699    0.879953
      8          1           0       -1.946029    0.281699   -0.879953
      9          1           0        1.043816   -3.081519    0.000000
 ---------------------------------------------------------------------

 SCF Done:  E(RB3LYP) =  -230.046248687     A.U. after   13 cycles

 The electronic state is 1-A'.
 Alpha  occ. eigenvalues --  -19.13520 -10.29705 -10.20470 -10.19943 -10.19064
 Alpha  occ. eigenvalues --   -1.06920  -0.80204  -0.75867  -0.64711  -0.55051
 Alpha  occ. eigenvalues --   -0.50023  -0.46516  -0.46088  -0.41879  -0.38886
 Alpha  occ. eigenvalues --   -0.31512  -0.31425  -0.28206
 Alpha virt. eigenvalues --   -0.07676  -0.01062   0.00295   0.00571   0.02786
 Alpha virt. eigenvalues --    0.03473   0.04133   0.04917   0.06915   0.07474
 Alpha virt. eigenvalues --    0.08712   0.08953   0.09317   0.10575   0.11643

 Mulliken charges:
               1
     1  C   -0.496203
     2  C    0.236413
     3  O   -0.224941
     4  C    1.813747
     5  C   -1.965140
     6  H    0.181062
     7  H    0.154859
     8  H    0.154859
     9  H    0.145344
 Sum of Mulliken charges =  -0.00000

 Dipole moment (field-independent basis, Debye):
    X=             -2.1541    Y=             -2.3593    Z=             -0.0000  Tot=              3.1948
 Quadrupole moment (field-independent basis, Debye-Ang):
   XX=            -29.7937   YY=            -26.8387   ZZ=            -29.4581
   XY=             -5.2157   XZ=              0.0000   YZ=              0.0000

  Exact polarizability:  45.019  -5.373  67.560   0.000   0.000  31.109
 Approx polarizability:  59.724  -2.783 111.896   0.000  -0.000  42.411

                      1                      2                      3
                     A"                     A'                     A"
 Frequencies --    105.7428               175.6125               234.5088
 Red. masses --      1.0460                 3.7044                 4.3619
 Frc consts  --      0.0069                 0.0673                 0.1413
 IR Inten    --      0.0010                 5.1399                 1.8543

                      4                      5                      6
                     A'                     A"                     A'
 Frequencies --    439.4265               597.1304               601.8982
 Red. masses --      3.4023                 2.6049                 6.5379
 Frc consts  --      0.3871                 0.5472                 1.3955
 IR Inten    --      2.3533                 5.0227                12.5306

                      7                      8                      9
                     A'                     A"                     A'
 Frequencies --    685.9127               742.1949               742.8668
 Red. masses --      1.2874                 1.2847                 4.2964
 Frc consts  --      0.3569                 0.4169                 1.3969
 IR Inten    --     47.6999                36.4528                14.2552

                     10                     11                     12
                     A'                     A"                     A'
 Frequencies --    979.4428              1042.9417              1207.2073
 Red. masses --      1.9186                 1.8152                 3.3661
 Frc consts  --      1.0844                 1.1633                 2.8903
 IR Inten    --     33.7807                 5.2111               151.0665

                     13                     14                     15
                     A'                     A'                     A"
 Frequencies --   1386.7711              1461.9073              1466.7182
 Red. masses --      1.2910                 1.0554                 1.0465
 Frc consts  --      1.4628                 1.3290                 1.3264
 IR Inten    --     38.5924                19.1664                11.5157

                     16                     17                     18
                     A'                     A'                     A'
 Frequencies --   1748.8790              2192.3971              3032.3848
 Red. masses --     10.8949                 5.9029                 1.0359
 Frc consts  --     19.6332                16.7168                 5.6121
 IR Inten    --    227.1836                50.5523                 0.8960

                     19                     20                     21
                     A"                     A'                     A'
 Frequencies --   3091.1997              3141.7625              3467.7616
 Red. masses --      1.0991                 1.1031                 1.1622
 Frc consts  --      6.1877                 6.4151                 8.2344
 IR Inten    --      4.7815                 7.1008                53.8951

 - Thermochemistry -
 -------------------
 Temperature   298.150 Kelvin.  Pressure   1.00000 Atm.
 Atom     1 has atomic number  6 and mass  12.00000

 Molecular mass:    68.02621 amu.
 Principal axes and moments of inertia in atomic units:
                           1         2         3
     Eigenvalues --   176.16428 447.47200 612.48918
           X           -0.35458   0.93502  -0.00000
           Y            0.93502   0.35458   0.00000
           Z           -0.00000  -0.00000   1.00000
 This molecule is an asymmetric top.
 Rotational symmetry number  1.
 Rotational temperatures (Kelvin)      0.49167     0.19356     0.14141
 Rotational constants (GHZ):          10.24465     4.03319     2.94657
 Zero-point vibrational energy     170735.0 (Joules/Mol)
                                   40.80665 (Kcal/Mol)
 Warning -- explicit consideration of   6 degrees of freedom as
           vibrations may cause significant error
 Vibrational temperatures:    152.14   252.67   337.41   632.24   859.14
          (Kelvin)            866.00   986.87  1067.85  1068.82  1409.20
                             1500.56  1736.90  1995.25  2103.36  2110.28
                             2516.24  3154.37  4362.92  4447.54  4520.29
                             4989.33

 Zero-point correction=                           0.065030 (Hartree/Particle)
 Thermal correction to Energy=                    0.070708
 Thermal correction to Enthalpy=                  0.071652
 Thermal correction to Gibbs Free Energy=         0.036322
 Sum of electronic and zero-point Energies=           -229.981219
 Sum of electronic and thermal Energies=              -229.975541
 Sum of electronic and thermal Enthalpies=            -229.974596
 Sum of electronic and thermal Free Energies=         -230.009927

                     E (Thermal)             CV                S
                      KCal/Mol        Cal/Mol-Kelvin    Cal/Mol-Kelvin
 Total                   44.370             18.623             74.359
 Electronic               0.000              0.000              0.000
 Translational            0.889              2.981             38.570
 Rotational               0.889              2.981             25.382
 Vibrational             42.593             12.662             10.407
 Vibration     1          0.605              1.945              3.346
 Vibration     2          0.628              1.872              2.375
 Vibration     3          0.654              1.788              1.844
 Vibration     4          0.799              1.384              0.828
 Vibration     5          0.955              1.038              0.455
 Vibration     6          0.960              1.028              0.446

 Optimization completed.
    -- Stationary point found.
 Normal termination of Gaussian 09 at Sun Mar  4 21:21:58 2018.
