 Gaussian 09, Revision D.01,
 Gaussian 09:  ES64L-G09RevD.01 24-Apr-2013

 ---------------------------
 #p b3lyp/6-311++g(d,p) freq
 ---------------------------

 ---
 min
 ---
 Symbolic Z-matrix:
 Charge =  0 Multiplicity = 1

                         Standard orientation:
 ---------------------------------------------------------------------
 Center     Atomic      Atomic             Coordinates (Angstroms)
 Number     Number       Type             X           Y           Z
 ---------------------------------------------------------------------
      1          6           0        0.000000    1.158533    0.000000
      2          6           0       -0.857698   -0.966767    0.000000
      3          8           0       -1.159191    0.317618    0.000000
      4          6           0        0.654661   -1.011419    0.000000
      5          6           0        1.101531    0.424515    0.000000
      6          1           0       -0.206388    2.216360    0.000000
      7          1           0        0.986689   -1.589585    0.872472
      8          1           0        0.986689   -1.589585   -0.872472
      9          1           0        2.115583    0.792691    0.000000
 ---------------------------------------------------------------------

 SCF Done:  E(RB3LYP) =  -229.996243831     A.U. after   12 cycles

 The electronic state is 1-A'.
 Alpha  occ. eigenvalues --  -19.20924 -10.24536 -10.23492 -10.20120 -10.19665
 Alpha  occ. eigenvalues --   -1.12373  -0.82330  -0.75816  -0.63042  -0.56803
 Alpha  occ. eigenvalues --   -0.53999  -0.48510  -0.44029  -0.41677  -0.41470
 Alpha  occ. eigenvalues --   -0.38445  -0.28624  -0.22877
 Alpha virt. eigenvalues --   -0.05820  -0.01180  -0.00756   0.00873   0.01940
 Alpha virt. eigenvalues --    0.02235   0.04889   0.05805   0.07135   0.07307
 Alpha virt. eigenvalues --    0.09655   0.10051   0.10820   0.11398   0.11920

 Mulliken charges:
               1
     1  C   -0.260447
     2  C   -0.092109
     3  O    0.011970
     4  C   -0.518750
     5  C    0.128691
     6  H    0.184735
     7  H    0.182736
     8  H    0.182736
     9  H    0.180436
 Sum of Mulliken charges =  -0.00000

 Dipole moment (field-independent basis, Debye):
    X=              3.3923    Y=              1.6632    Z=             -0.0000  Tot=              3.7781
 Quadrupole moment (field-independent basis, Debye-Ang):
   XX=            -32.4937   YY=            -28.8042   ZZ=            -29.8792
   XY=             -3.9937   XZ=              0.0000   YZ=              0.0000

  Exact polarizability:  53.318   0.021  57.054   0.000   0.000  36.306
 Approx polarizability:  82.209  -7.992  82.820   0.000   0.000  53.787

                      1                      2                      3
                     A"                     A"                     A"
 Frequencies --    293.0527               520.4072               714.2875
 Red. masses --      1.4880                 3.1470                 1.5730
 Frc consts  --      0.0753                 0.5022                 0.4728
 IR Inten    --     12.0665                 8.0224                10.6816

                      4                      5                      6
                     A'                     A"                     A'
 Frequencies --    806.9206               814.3815               848.3784
 Red. masses --      5.5628                 1.8217                 7.6534
 Frc consts  --      2.1340                 0.7118                 3.2455
 IR Inten    --      8.0088                50.1502                 6.2210

                      7                      8                      9
                     A'                     A"                     A'
 Frequencies --    866.0314               900.2965               926.9556
 Red. masses --      4.3134                 1.2792                 3.7001
 Frc consts  --      1.9061                 0.6109                 1.8732
 IR Inten    --     11.8256                 0.9375                 6.1589

                     10                     11                     12
                     A'                     A"                     A'
 Frequencies --    954.3434              1103.6529              1115.5181
 Red. masses --      1.9674                 1.1559                 1.2273
 Frc consts  --      1.0557                 0.8296                 0.8998
 IR Inten    --      9.1477                 0.0013                 1.1082

                     13                     14                     15
                     A'                     A'                     A'
 Frequencies --   1182.5692              1254.8616              1327.0542
 Red. masses --      4.1122                 1.9686                 1.8732
 Frc consts  --      3.3883                 1.8264                 1.9436
 IR Inten    --     68.6681                42.6137                 2.0911

                     16                     17                     18
                     A'                     A'                     A'
 Frequencies --   1382.9575              1648.7071              3025.9327
 Red. masses --      1.1162                 5.7931                 1.0627
 Frc consts  --      1.2578                 9.2779                 5.7332
 IR Inten    --     16.5201                 6.7225                 2.3286

                     19                     20                     21
                     A"                     A'                     A'
 Frequencies --   3048.4973              3241.8809              3274.8983
 Red. masses --      1.0975                 1.0896                 1.1108
 Frc consts  --      6.0091                 6.7472                 7.0192
 IR Inten    --      0.0332                 0.4745                 1.2839

 - Thermochemistry -
 -------------------
 Temperature   298.150 Kelvin.  Pressure   1.00000 Atm.
 Atom     1 has atomic number  6 and mass  12.00000

 Molecular mass:    68.02621 amu.
 Principal axes and moments of inertia in atomic units:
                           1         2         3
     Eigenvalues --   198.43720 206.67006 394.14889
           X            0.99636   0.08522   0.00000
           Y           -0.08522   0.99636   0.00000
           Z           -0.00000   0.00000   1.00000
 This molecule is an asymmetric top.
 Rotational symmetry number  1.
 Rotational temperatures (Kelvin)      0.43648     0.41909     0.21975
 Rotational constants (GHZ):           9.09477     8.73248     4.57883
 Zero-point vibrational energy     174963.3 (Joules/Mol)
                                   41.81724 (Kcal/Mol)
 Warning -- explicit consideration of   2 degrees of freedom as
           vibrations may cause significant error
 Vibrational temperatures:    421.64   748.75  1027.70  1160.98  1171.71
          (Kelvin)           1220.63  1246.02  1295.32  1333.68  1373.09
                             1587.91  1604.98  1701.45  1805.46  1909.33
                             1989.76  2372.12  4353.64  4386.10  4664.34
                             4711.84

 Zero-point correction=                           0.066640 (Hartree/Particle)
 Thermal correction to Energy=                    0.070742
 Thermal correction to Enthalpy=                  0.071687
 Thermal correction to Gibbs Free Energy=         0.040056
 Sum of electronic and zero-point Energies=           -229.929604
 Sum of electronic and thermal Energies=              -229.925501
 Sum of electronic and thermal Enthalpies=            -229.924557
 Sum of electronic and thermal Free Energies=         -229.956188

                     E (Thermal)             CV                S
                      KCal/Mol        Cal/Mol-Kelvin    Cal/Mol-Kelvin
 Total                   44.391             14.662             66.573
 Electronic               0.000              0.000              0.000
 Translational            0.889              2.981             38.570
 Rotational               0.889              2.981             24.295
 Vibrational             42.614              8.701              3.708
 Vibration     1          0.688              1.687              1.456
 Vibration     2          0.875              1.205              0.609

 Optimization completed.
    -- Stationary point found.
 Normal termination of Gaussian 09 at Sun Mar  4 21:21:45 2018.
