 Gaussian 09, Revision D.01,
 Gaussian 09:  ES64L-G09RevD.01 24-Apr-2013

 ---------------------------
 #p b3lyp/6-311++g(d,p) freq
 ---------------------------

 ---
 min
 ---
 Symbolic Z-matrix:
 Charge =  1 Multiplicity = 2

                         Standard orientation:
 ---------------------------------------------------------------------
 Center     Atomic      Atomic             Coordinates (Angstroms)
 Number     Number       Type             X           Y           Z
 ---------------------------------------------------------------------
      1          6           0        0.723894    0.827564    0.000079
      2          6           0       -1.167390   -0.371112    0.000032
      3          8           0       -0.558986    0.968889   -0.000071
      4          6           0        0.024560   -1.223337   -0.000014
      5          6           0        1.175962   -0.523053   -0.000020
      6          1           0        1.310632    1.741894    0.000020
      7          1           0       -1.792456   -0.449283    0.895269
      8          1           0       -1.792580   -0.449334   -0.895112
      9          1           0        2.204134   -0.854760   -0.000068
 ---------------------------------------------------------------------

 SCF Done:  E(UB3LYP) =  -229.705443683     A.U. after   15 cycles

 The electronic state is 2-A.
 Alpha  occ. eigenvalues --  -19.45301 -10.53258 -10.49138 -10.48578 -10.43469
 Alpha  occ. eigenvalues --   -1.38109  -1.08070  -1.01470  -0.84939  -0.83605
 Alpha  occ. eigenvalues --   -0.77912  -0.74512  -0.70337  -0.66582  -0.62431
 Alpha  occ. eigenvalues --   -0.62422  -0.54688  -0.53482
 Alpha virt. eigenvalues --   -0.33595  -0.20169  -0.16459  -0.14773  -0.12989
 Alpha virt. eigenvalues --   -0.11721  -0.11484  -0.10171  -0.09001  -0.07588
 Alpha virt. eigenvalues --   -0.06594  -0.05000  -0.03877  -0.03724  -0.01896

  Beta  occ. eigenvalues --  -19.45218 -10.53157 -10.48494 -10.47364 -10.43509
  Beta  occ. eigenvalues --   -1.37786  -1.06484  -1.01110  -0.84523  -0.82377
  Beta  occ. eigenvalues --   -0.76349  -0.74428  -0.69946  -0.65737  -0.62482
  Beta  occ. eigenvalues --   -0.61863  -0.54013
  Beta virt. eigenvalues --   -0.35865  -0.32302  -0.19536  -0.16355  -0.14329
  Beta virt. eigenvalues --   -0.12790  -0.11675  -0.11217  -0.09866  -0.08760
  Beta virt. eigenvalues --   -0.07592  -0.06247  -0.04927  -0.03667  -0.03445

 Mulliken charges and spin densities:
               1          2
     1  C    0.131232  -0.005304
     2  C   -0.649846   0.053931
     3  O    0.053811   0.019244
     4  C    0.585420   0.855282
     5  C   -0.251368   0.047543
     6  H    0.302086   0.006028
     7  H    0.288507   0.001351
     8  H    0.288469   0.001354
     9  H    0.251688   0.020572
 Sum of Mulliken charges =   1.00000   1.00000

 Dipole moment (field-independent basis, Debye):
    X=              0.6221    Y=             -0.4141    Z=              0.0002  Tot=              0.7473
 Quadrupole moment (field-independent basis, Debye-Ang):
   XX=            -15.2981   YY=            -22.4964   ZZ=            -25.9630
   XY=              3.4229   XZ=             -0.0003   YZ=              0.0003

  Exact polarizability:  48.519   3.507  42.764  -0.000   0.000  26.534
 Approx polarizability:  75.907   7.962  75.981   0.001   0.001  38.494

                      1                      2                      3
                      A                      A                      A
 Frequencies --    365.3587               488.8345               797.7329
 Red. masses --      1.8835                 2.5862                 8.5763
 Frc consts  --      0.1481                 0.3641                 3.2156
 IR Inten    --     26.0263                 8.5206                 2.5497

                      4                      5                      6
                      A                      A                      A
 Frequencies --    819.2311               829.9545               866.0993
 Red. masses --      6.5195                 1.3834                 6.1763
 Frc consts  --      2.5780                 0.5614                 2.7297
 IR Inten    --     11.3239                29.9082                28.9626

                      7                      8                      9
                      A                      A                      A
 Frequencies --    914.7796               997.1867              1022.8477
 Red. masses --      1.6152                 2.0981                 1.5323
 Frc consts  --      0.7964                 1.2292                 0.9446
 IR Inten    --     13.4728                13.9365                 0.5929

                     10                     11                     12
                      A                      A                      A
 Frequencies --   1068.5622              1172.5767              1242.0443
 Red. masses --      1.8309                 1.0886                 2.1536
 Frc consts  --      1.2317                 0.8819                 1.9575
 IR Inten    --     31.3907                 3.8292                42.2387

                     13                     14                     15
                      A                      A                      A
 Frequencies --   1253.2475              1344.5368              1397.0310
 Red. masses --      1.4013                 2.0438                 1.2693
 Frc consts  --      1.2968                 2.1769                 1.4596
 IR Inten    --     18.6975                18.4217                92.9913

                     16                     17                     18
                      A                      A                      A
 Frequencies --   1450.0592              1581.0557              3060.4056
 Red. masses --      2.4994                 5.7400                 1.0579
 Frc consts  --      3.0964                 8.4540                 5.8376
 IR Inten    --     80.0720                43.8869                58.3666

                     19                     20                     21
                      A                      A                      A
 Frequencies --   3109.2189              3201.1841              3244.4258
 Red. masses --      1.1070                 1.0989                 1.1015
 Frc consts  --      6.3055                 6.6350                 6.8314
 IR Inten    --     28.2100                15.8177                42.9826

 - Thermochemistry -
 -------------------
 Temperature   298.150 Kelvin.  Pressure   1.00000 Atm.
 Atom     1 has atomic number  6 and mass  12.00000

 Molecular mass:    68.02621 amu.
 Principal axes and moments of inertia in atomic units:
                           1         2         3
     Eigenvalues --   183.61898 212.43010 384.51259
           X            0.96687   0.25527  -0.00001
           Y           -0.25527   0.96687   0.00000
           Z            0.00001   0.00000   1.00000
 This molecule is an asymmetric top.
 Rotational symmetry number  1.
 Rotational temperatures (Kelvin)      0.47170     0.40773     0.22526
 Rotational constants (GHZ):           9.82873     8.49569     4.69358
 Zero-point vibrational energy     180793.9 (Joules/Mol)
                                   43.21077 (Kcal/Mol)
 Warning -- explicit consideration of   2 degrees of freedom as
           vibrations may cause significant error
 Vibrational temperatures:    525.67   703.32  1147.76  1178.69  1194.12
          (Kelvin)           1246.12  1316.16  1434.73  1471.65  1537.42
                             1687.07  1787.02  1803.14  1934.49  2010.01
                             2086.31  2274.78  4403.24  4473.47  4605.78
                             4668.00

 Zero-point correction=                           0.068861 (Hartree/Particle)
 Thermal correction to Energy=                    0.072777
 Thermal correction to Enthalpy=                  0.073721
 Thermal correction to Gibbs Free Energy=         0.041764
 Sum of electronic and zero-point Energies=           -229.636583
 Sum of electronic and thermal Energies=              -229.632667
 Sum of electronic and thermal Enthalpies=            -229.631722
 Sum of electronic and thermal Free Energies=         -229.663680

                     E (Thermal)             CV                S
                      KCal/Mol        Cal/Mol-Kelvin    Cal/Mol-Kelvin
 Total                   45.668             13.681             67.259
 Electronic               0.000              0.000              1.377
 Translational            0.889              2.981             38.570
 Rotational               0.889              2.981             24.221
 Vibrational             43.891              7.720              3.092
 Vibration     1          0.739              1.544              1.099
 Vibration     2          0.845              1.275              0.687

 Optimization completed.
    -- Stationary point found.
 Normal termination of Gaussian 09 at Thu Jan 24 16:18:42 2019.
