 Gaussian 09, Revision D.01,
 Gaussian 09:  ES64L-G09RevD.01 24-Apr-2013

 ---------------------------
 #p b3lyp/6-311++g(d,p) freq
 ---------------------------

 ---
 min
 ---
 Symbolic Z-matrix:
 Charge =  0 Multiplicity = 3

                         Standard orientation:
 ---------------------------------------------------------------------
 Center     Atomic      Atomic             Coordinates (Angstroms)
 Number     Number       Type             X           Y           Z
 ---------------------------------------------------------------------
      1          6           0       -1.573366   -0.158088   -0.000087
      2          1           0       -1.888619   -1.193255   -0.000009
      3          1           0       -2.335938    0.612956   -0.000211
      4          6           0       -0.264690    0.184810   -0.000035
      5          6           0        1.190980   -0.512212    0.000127
      6          1           0        1.507152   -1.006891   -0.918503
      7          1           0        1.507032   -1.006715    0.918891
      8          6           0        0.848805    0.917807   -0.000033
 ---------------------------------------------------------------------

 SCF Done:  E(UB3LYP) =  -154.664680448     A.U. after   15 cycles

 The electronic state is 3-A.
 Alpha  occ. eigenvalues --  -10.21915 -10.21857 -10.21769 -10.19784  -0.89768
 Alpha  occ. eigenvalues --   -0.75198  -0.62245  -0.51871  -0.47270  -0.47051
 Alpha  occ. eigenvalues --   -0.40999  -0.37988  -0.32625  -0.24819  -0.21625
 Alpha virt. eigenvalues --   -0.00473   0.01177   0.01891   0.02159   0.03833
 Alpha virt. eigenvalues --    0.04986   0.05504   0.07587   0.08345   0.09529
 Alpha virt. eigenvalues --    0.10222   0.10969   0.11923   0.12694   0.13410

  Beta  occ. eigenvalues --  -10.21906 -10.21501 -10.19780 -10.18993  -0.87750
  Beta  occ. eigenvalues --   -0.73199  -0.60351  -0.50485  -0.45889  -0.45886
  Beta  occ. eigenvalues --   -0.36369  -0.35230  -0.29759
  Beta virt. eigenvalues --   -0.12197  -0.09877  -0.00276   0.01281   0.02388
  Beta virt. eigenvalues --    0.02546   0.05288   0.05295   0.05757   0.07727
  Beta virt. eigenvalues --    0.09754   0.10342   0.11134   0.11558   0.12564

 Mulliken charges and spin densities:
               1          2
     1  C   -0.545449   0.605340
     2  H    0.154099  -0.028429
     3  H    0.142729  -0.007684
     4  C    0.418651  -0.063356
     5  C   -0.387028   0.297124
     6  H    0.139541   0.018486
     7  H    0.139541   0.018486
     8  C   -0.062083   1.160034
 Sum of Mulliken charges =  -0.00000   2.00000

 Dipole moment (field-independent basis, Debye):
    X=             -0.6379    Y=             -1.5426    Z=              0.0001  Tot=              1.6693
 Quadrupole moment (field-independent basis, Debye-Ang):
   XX=            -22.9909   YY=            -25.0341   ZZ=            -25.6207
   XY=             -1.9190   XZ=              0.0004   YZ=             -0.0002

  Exact polarizability:  67.538   3.029  46.072   0.002  -0.001  33.187
 Approx polarizability: 101.945  12.306  70.634   0.003  -0.002  44.218

                      1                      2                      3
                      A                      A                      A
 Frequencies --    329.8480               366.4716               539.4236
 Red. masses --      2.5573                 3.2846                 1.0436
 Frc consts  --      0.1639                 0.2599                 0.1789
 IR Inten    --      6.6573                 2.2369                 0.8312

                      4                      5                      6
                      A                      A                      A
 Frequencies --    587.9507               752.7620               885.7107
 Red. masses --      5.1396                 1.3137                 1.2306
 Frc consts  --      1.0468                 0.4386                 0.5688
 IR Inten    --      9.7675                56.3191                 0.1519

                      7                      8                      9
                      A                      A                      A
 Frequencies --    976.8098               992.0417              1007.0177
 Red. masses --      1.3236                 3.0205                 1.3063
 Frc consts  --      0.7441                 1.7514                 0.7805
 IR Inten    --     40.1672                30.2695                 0.0772

                     10                     11                     12
                      A                      A                      A
 Frequencies --   1053.7282              1122.2387              1442.6576
 Red. masses --      1.9438                 4.6259                 1.1733
 Frc consts  --      1.2716                 3.4325                 1.4388
 IR Inten    --      9.1376                 1.6919                 2.9137

                     13                     14                     15
                      A                      A                      A
 Frequencies --   1476.0531              1617.6565              3048.1815
 Red. masses --      1.1511                 8.9589                 1.0466
 Frc consts  --      1.4776                13.8127                 5.7295
 IR Inten    --      4.5673                13.5405                20.4993

                     16                     17                     18
                      A                      A                      A
 Frequencies --   3124.2402              3138.0587              3233.6193
 Red. masses --      1.1166                 1.0535                 1.1161
 Frc consts  --      6.4215                 6.1125                 6.8758
 IR Inten    --     13.6161                 2.2663                 0.9937

 - Thermochemistry -
 -------------------
 Temperature   298.150 Kelvin.  Pressure   1.00000 Atm.
 Atom     1 has atomic number  6 and mass  12.00000

 Molecular mass:    52.03130 amu.
 Principal axes and moments of inertia in atomic units:
                           1         2         3
     Eigenvalues --    68.95702 255.85427 312.66098
           X            0.99917  -0.04085  -0.00007
           Y            0.04085   0.99917   0.00010
           Z            0.00006  -0.00010   1.00000
 This molecule is an asymmetric top.
 Rotational symmetry number  1.
 Rotational temperatures (Kelvin)      1.25606     0.33853     0.27702
 Rotational constants (GHZ):          26.17197     7.05379     5.77220
 Zero-point vibrational energy     153687.1 (Joules/Mol)
                                   36.73209 (Kcal/Mol)
 Warning -- explicit consideration of   4 degrees of freedom as
           vibrations may cause significant error
 Vibrational temperatures:    474.58   527.27   776.11   845.93  1083.06
          (Kelvin)           1274.34  1405.41  1427.32  1448.87  1516.08
                             1614.65  2075.66  2123.71  2327.44  4385.65
                             4495.08  4514.96  4652.45

 Zero-point correction=                           0.058536 (Hartree/Particle)
 Thermal correction to Energy=                    0.062791
 Thermal correction to Enthalpy=                  0.063736
 Thermal correction to Gibbs Free Energy=         0.031698
 Sum of electronic and zero-point Energies=           -154.606144
 Sum of electronic and thermal Energies=              -154.601889
 Sum of electronic and thermal Enthalpies=            -154.600945
 Sum of electronic and thermal Free Energies=         -154.632982

                     E (Thermal)             CV                S
                      KCal/Mol        Cal/Mol-Kelvin    Cal/Mol-Kelvin
 Total                   39.402             14.556             67.428
 Electronic               0.000              0.000              2.183
 Translational            0.889              2.981             37.771
 Rotational               0.889              2.981             23.227
 Vibrational             37.625              8.594              4.248
 Vibration     1          0.713              1.616              1.261
 Vibration     2          0.739              1.541              1.095
 Vibration     3          0.894              1.163              0.567
 Vibration     4          0.945              1.057              0.471

 Optimization completed.
    -- Stationary point found.
 Normal termination of Gaussian 09 at Sun Mar  4 21:21:02 2018.
