 Gaussian 09, Revision D.01,
 Gaussian 09:  ES64L-G09RevD.01 24-Apr-2013

 ---------------------------
 #p b3lyp/6-311++g(d,p) freq
 ---------------------------

 ---
 min
 ---
 Symbolic Z-matrix:
 Charge =  1 Multiplicity = 4

                         Standard orientation:
 ---------------------------------------------------------------------
 Center     Atomic      Atomic             Coordinates (Angstroms)
 Number     Number       Type             X           Y           Z
 ---------------------------------------------------------------------
      1          6           0        1.849270   -0.018554    0.000211
      2          6           0        0.518393   -0.317338   -0.000347
      3          6           0       -0.688055    0.365749   -0.000325
      4          1           0        2.201883    1.016675    0.000490
      5          1           0        2.602155   -0.804217    0.000523
      6          1           0       -0.682960    1.467807   -0.000234
      7          6           0       -1.877170   -0.299040    0.000222
      8          1           0       -2.935706   -0.065165    0.000660
 ---------------------------------------------------------------------

 SCF Done:  E(UB3LYP) =  -154.337945843     A.U. after   14 cycles

 The electronic state is 4-A.
 Alpha  occ. eigenvalues --  -10.48359 -10.47421 -10.47123 -10.46055  -1.08542
 Alpha  occ. eigenvalues --   -1.01196  -0.87947  -0.77410  -0.73834  -0.71187
 Alpha  occ. eigenvalues --   -0.67535  -0.60773  -0.51839  -0.50471  -0.48155
 Alpha virt. eigenvalues --   -0.32007  -0.18672  -0.15116  -0.13565  -0.12001
 Alpha virt. eigenvalues --   -0.10372  -0.09493  -0.09086  -0.07609  -0.05691
 Alpha virt. eigenvalues --   -0.05326  -0.04028  -0.03198  -0.02816  -0.02029

  Beta  occ. eigenvalues --  -10.46420 -10.46107 -10.46023 -10.45660  -1.05304
  Beta  occ. eigenvalues --   -0.97324  -0.84337  -0.74166  -0.71231  -0.68957
  Beta  occ. eigenvalues --   -0.65882  -0.56664
  Beta virt. eigenvalues --   -0.41046  -0.32191  -0.31379  -0.26259  -0.15311
  Beta virt. eigenvalues --   -0.14666  -0.12964  -0.11530  -0.09847  -0.09033
  Beta virt. eigenvalues --   -0.08574  -0.07212  -0.04693  -0.04657  -0.03151

 Mulliken charges and spin densities:
               1          2
     1  C   -0.283920   0.450606
     2  C    0.390390   1.000581
     3  C   -0.107162  -0.012898
     4  H    0.220622   0.047568
     5  H    0.252012   0.004503
     6  H    0.250145   0.116158
     7  C    0.001739   1.395600
     8  H    0.276174  -0.002118
 Sum of Mulliken charges =   1.00000   3.00000

 Dipole moment (field-independent basis, Debye):
    X=              0.2642    Y=              1.1598    Z=              0.0011  Tot=              1.1895
 Quadrupole moment (field-independent basis, Debye-Ang):
   XX=             -0.2724   YY=            -19.6780   ZZ=            -22.9071
   XY=             -0.6671   XZ=              0.0000   YZ=             -0.0004

  Exact polarizability:  86.092   1.470  32.601   0.000  -0.000  22.212
 Approx polarizability: 136.319   4.237  45.593  -0.000  -0.001  30.668

                      1                      2                      3
                      A                      A                      A
 Frequencies --    154.3444               240.7379               495.0908
 Red. masses --      3.0317                 2.6025                 3.2476
 Frc consts  --      0.0426                 0.0889                 0.4690
 IR Inten    --     14.0308                 6.7119                 1.5730

                      4                      5                      6
                      A                      A                      A
 Frequencies --    514.7370               684.4642               783.6890
 Red. masses --      1.1697                 1.3355                 1.3709
 Frc consts  --      0.1826                 0.3686                 0.4961
 IR Inten    --      4.0864                24.0958                18.7170

                      7                      8                      9
                      A                      A                      A
 Frequencies --    919.7328               940.9810              1013.1005
 Red. masses --      1.4630                 1.4722                 1.3752
 Frc consts  --      0.7292                 0.7680                 0.8316
 IR Inten    --      1.1523                 4.3063                29.7461

                     10                     11                     12
                      A                      A                      A
 Frequencies --   1130.0060              1234.2160              1369.2940
 Red. masses --      3.4985                 1.2751                 3.3546
 Frc consts  --      2.6320                 1.1444                 3.7058
 IR Inten    --     27.5738                 0.4040               165.2095

                     13                     14                     15
                      A                      A                      A
 Frequencies --   1451.1353              1637.1589              2970.2298
 Red. masses --      1.3086                 8.7781                 1.0816
 Frc consts  --      1.6236                13.8623                 5.6220
 IR Inten    --      7.5637                 1.2287                10.2469

                     16                     17                     18
                      A                      A                      A
 Frequencies --   3065.9235              3185.8782              3226.4941
 Red. masses --      1.0574                 1.1116                 1.0997
 Frc consts  --      5.8559                 6.6477                 6.7449
 IR Inten    --     24.3198                24.8634                53.7126

 - Thermochemistry -
 -------------------
 Temperature   298.150 Kelvin.  Pressure   1.00000 Atm.
 Atom     1 has atomic number  6 and mass  12.00000

 Molecular mass:    52.03130 amu.
 Principal axes and moments of inertia in atomic units:
                           1         2         3
     Eigenvalues --    27.52234 403.78762 431.30992
           X            0.99998  -0.00592  -0.00001
           Y            0.00592   0.99998   0.00017
           Z            0.00001  -0.00017   1.00000
 This molecule is an asymmetric top.
 Rotational symmetry number  1.
 Rotational temperatures (Kelvin)      3.14704     0.21450     0.20082
 Rotational constants (GHZ):          65.57369     4.46953     4.18433
 Zero-point vibrational energy     149636.2 (Joules/Mol)
                                   35.76390 (Kcal/Mol)
 Warning -- explicit consideration of   4 degrees of freedom as
           vibrations may cause significant error
 Vibrational temperatures:    222.07   346.37   712.32   740.59   984.79
          (Kelvin)           1127.55  1323.29  1353.86  1457.62  1625.82
                             1775.76  1970.11  2087.86  2355.50  4273.49
                             4411.17  4583.76  4642.20

 Zero-point correction=                           0.056993 (Hartree/Particle)
 Thermal correction to Energy=                    0.061790
 Thermal correction to Enthalpy=                  0.062734
 Thermal correction to Gibbs Free Energy=         0.029316
 Sum of electronic and zero-point Energies=           -154.280952
 Sum of electronic and thermal Energies=              -154.276156
 Sum of electronic and thermal Enthalpies=            -154.275211
 Sum of electronic and thermal Free Energies=         -154.308630

                     E (Thermal)             CV                S
                      KCal/Mol        Cal/Mol-Kelvin    Cal/Mol-Kelvin
 Total                   38.774             15.628             70.336
 Electronic               0.000              0.000              2.755
 Translational            0.889              2.981             37.771
 Rotational               0.889              2.981             23.087
 Vibrational             36.996              9.666              6.723
 Vibration     1          0.620              1.898              2.618
 Vibration     2          0.658              1.778              1.797
 Vibration     3          0.851              1.261              0.671
 Vibration     4          0.870              1.217              0.622

 Optimization completed.
    -- Stationary point found.
 Normal termination of Gaussian 09 at Thu Jan 24 16:10:25 2019.
