 Gaussian 09, Revision D.01,
 Gaussian 09:  ES64L-G09RevD.01 24-Apr-2013

 ---------------------------
 #p b3lyp/6-311++g(d,p) freq
 ---------------------------

 ---
 min
 ---
 Symbolic Z-matrix:
 Charge =  1 Multiplicity = 4

                         Standard orientation:
 ---------------------------------------------------------------------
 Center     Atomic      Atomic             Coordinates (Angstroms)
 Number     Number       Type             X           Y           Z
 ---------------------------------------------------------------------
      1          6           0       -1.611553   -0.328247    0.000009
      2          1           0       -2.193071   -0.065711    0.889206
      3          1           0       -1.380648   -1.390692   -0.001318
      4          1           0       -2.194854   -0.063792   -0.887415
      5          6           0       -0.355686    0.526888   -0.000286
      6          1           0       -0.482946    1.619057    0.001160
      7          6           0        0.888521    0.099370   -0.000166
      8          6           0        2.120638   -0.314488    0.000171
 ---------------------------------------------------------------------

 SCF Done:  E(UB3LYP) =  -154.279347379     A.U. after   16 cycles

 The electronic state is 4-A.
 Alpha  occ. eigenvalues --  -10.56984 -10.52582 -10.46721 -10.39748  -1.11033
 Alpha  occ. eigenvalues --   -1.02352  -0.90852  -0.75993  -0.69524  -0.67271
 Alpha  occ. eigenvalues --   -0.65884  -0.61152  -0.60704  -0.59335  -0.47603
 Alpha virt. eigenvalues --   -0.29589  -0.20209  -0.16254  -0.12967  -0.11821
 Alpha virt. eigenvalues --   -0.10498  -0.08691  -0.07900  -0.07841  -0.07256
 Alpha virt. eigenvalues --   -0.05313  -0.04748  -0.03666  -0.02490  -0.02447

  Beta  occ. eigenvalues --  -10.52998 -10.52172 -10.45807 -10.39663  -1.07061
  Beta  occ. eigenvalues --   -0.97670  -0.89029  -0.73835  -0.65013  -0.63425
  Beta  occ. eigenvalues --   -0.60173  -0.57534
  Beta virt. eigenvalues --   -0.45622  -0.44216  -0.33775  -0.21580  -0.15655
  Beta virt. eigenvalues --   -0.15106  -0.12627  -0.11106  -0.10049  -0.08062
  Beta virt. eigenvalues --   -0.07438  -0.07074  -0.06675  -0.04723  -0.04017

 Mulliken charges and spin densities:
               1          2
     1  C   -0.657855   0.027602
     2  H    0.224562   0.027198
     3  H    0.190219   0.002353
     4  H    0.224469   0.027144
     5  C   -0.794380   0.609664
     6  H    0.296964   0.026090
     7  C    1.106011   0.365853
     8  C    0.410010   1.914096
 Sum of Mulliken charges =   1.00000   3.00000

 Dipole moment (field-independent basis, Debye):
    X=              1.4553    Y=              0.3771    Z=              0.0018  Tot=              1.5034
 Quadrupole moment (field-independent basis, Debye-Ang):
   XX=             -6.3099   YY=            -17.7484   ZZ=            -22.6177
   XY=             -1.3688   XZ=              0.0003   YZ=              0.0032

  Exact polarizability:  67.739  -5.797  29.578   0.001   0.003  25.236
 Approx polarizability: 112.194 -16.907  43.380   0.007  -0.001  33.124

                      1                      2                      3
                      A                      A                      A
 Frequencies --    132.2770               153.8012               371.0974
 Red. masses --      1.1669                 4.2937                 5.3482
 Frc consts  --      0.0120                 0.0598                 0.4339
 IR Inten    --      1.2857                 2.0623                 6.0160

                      4                      5                      6
                      A                      A                      A
 Frequencies --    557.1396               631.2987               843.3843
 Red. masses --      6.1792                 1.3703                 4.0406
 Frc consts  --      1.1301                 0.3218                 1.6934
 IR Inten    --      4.0030                32.2060                 2.0801

                      7                      8                      9
                      A                      A                      A
 Frequencies --    977.8893               981.5993              1113.3438
 Red. masses --      1.2569                 1.3439                 1.6976
 Frc consts  --      0.7082                 0.7629                 1.2398
 IR Inten    --     32.2676                 0.6589                 0.6210

                     10                     11                     12
                      A                      A                      A
 Frequencies --   1216.6077              1387.1716              1449.4847
 Red. masses --      2.3639                 1.2514                 1.0471
 Frc consts  --      2.0615                 1.4188                 1.2961
 IR Inten    --     26.6455                 0.7317                15.9457

                     13                     14                     15
                      A                      A                      A
 Frequencies --   1453.8409              1772.1197              3018.2972
 Red. masses --      1.0651                10.7506                 1.0725
 Frc consts  --      1.3264                19.8915                 5.7564
 IR Inten    --     35.8346                16.9009                96.8437

                     16                     17                     18
                      A                      A                      A
 Frequencies --   3030.4554              3095.4845              3167.6606
 Red. masses --      1.0389                 1.1014                 1.1031
 Frc consts  --      5.6214                 6.2181                 6.5212
 IR Inten    --     43.7259                 5.3981                 6.2902

 - Thermochemistry -
 -------------------
 Temperature   298.150 Kelvin.  Pressure   1.00000 Atm.
 Atom     1 has atomic number  6 and mass  12.00000

 Molecular mass:    52.03130 amu.
 Principal axes and moments of inertia in atomic units:
                           1         2         3
     Eigenvalues --    43.20703 388.71794 420.56507
           X            0.99990   0.01447  -0.00002
           Y           -0.01447   0.99990   0.00008
           Z            0.00003  -0.00008   1.00000
 This molecule is an asymmetric top.
 Rotational symmetry number  1.
 Rotational temperatures (Kelvin)      2.00462     0.22282     0.20595
 Rotational constants (GHZ):          41.76962     4.64280     4.29123
 Zero-point vibrational energy     151644.3 (Joules/Mol)
                                   36.24387 (Kcal/Mol)
 Warning -- explicit consideration of   4 degrees of freedom as
           vibrations may cause significant error
 Vibrational temperatures:    190.32   221.29   533.93   801.60   908.30
          (Kelvin)           1213.44  1406.96  1412.30  1601.85  1750.42
                             1995.83  2085.48  2091.75  2549.68  4342.65
                             4360.14  4453.71  4557.55

 Zero-point correction=                           0.057758 (Hartree/Particle)
 Thermal correction to Energy=                    0.062777
 Thermal correction to Enthalpy=                  0.063721
 Thermal correction to Gibbs Free Energy=         0.029480
 Sum of electronic and zero-point Energies=           -154.221589
 Sum of electronic and thermal Energies=              -154.216571
 Sum of electronic and thermal Enthalpies=            -154.215626
 Sum of electronic and thermal Free Energies=         -154.249867

                     E (Thermal)             CV                S
                      KCal/Mol        Cal/Mol-Kelvin    Cal/Mol-Kelvin
 Total                   39.393             15.564             72.066
 Electronic               0.000              0.000              2.755
 Translational            0.889              2.981             37.771
 Rotational               0.889              2.981             23.472
 Vibrational             37.616              9.603              8.068
 Vibration     1          0.612              1.921              2.913
 Vibration     2          0.619              1.898              2.625
 Vibration     3          0.743              1.532              1.075
 Vibration     4          0.913              1.124              0.530

 Normal termination of Gaussian 09 at Thu Jan 24 16:10:21 2019.
