 Gaussian 09, Revision D.01,
 Gaussian 09:  ES64L-G09RevD.01 24-Apr-2013

 ---------------------------
 #p b3lyp/6-311++g(d,p) freq
 ---------------------------

 ---
 min
 ---
 Symbolic Z-matrix:
 Charge =  0 Multiplicity = 1

                         Standard orientation:
 ---------------------------------------------------------------------
 Center     Atomic      Atomic             Coordinates (Angstroms)
 Number     Number       Type             X           Y           Z
 ---------------------------------------------------------------------
      1          6           0        0.000000   -0.000000    0.632950
      2          6           0        0.000000    0.000000   -0.632950
      3          6           0       -0.000000    0.000000   -1.947992
      4          1           0        0.000000    0.926413   -2.514504
      5          1           0       -0.000000   -0.926413   -2.514504
      6          6           0       -0.000000   -0.000000    1.947992
      7          1           0       -0.000000   -0.926413    2.514504
      8          1           0       -0.000000    0.926413    2.514504
 ---------------------------------------------------------------------

 SCF Done:  E(RB3LYP) =  -154.777699843     A.U. after   10 cycles

 The electronic state is 1-AG.
 Alpha  occ. eigenvalues --  -10.19585 -10.19559 -10.19489 -10.19376  -0.81268
 Alpha  occ. eigenvalues --   -0.75636  -0.66675  -0.51058  -0.47943  -0.46333
 Alpha  occ. eigenvalues --   -0.44707  -0.35698  -0.26831  -0.25345
 Alpha virt. eigenvalues --   -0.06925  -0.00389   0.00743   0.00950   0.02408
 Alpha virt. eigenvalues --    0.04977   0.05078   0.06276   0.06587   0.08785
 Alpha virt. eigenvalues --    0.10728   0.11494   0.12910   0.13744   0.14885

 Mulliken charges:
               1
     1  C    0.263657
     2  C    0.263657
     3  C   -0.537288
     4  H    0.136816
     5  H    0.136816
     6  C   -0.537288
     7  H    0.136816
     8  H    0.136816
 Sum of Mulliken charges =  -0.00000

 Dipole moment (field-independent basis, Debye):
    X=              0.0000    Y=             -0.0000    Z=              0.0000  Tot=              0.0000
 Quadrupole moment (field-independent basis, Debye-Ang):
   XX=            -27.1033   YY=            -23.3356   ZZ=            -18.3695
   XY=             -0.0000   XZ=              0.0000   YZ=              0.0000

  Exact polarizability:  27.855  -0.000  29.832   0.000  -0.000 108.860
 Approx polarizability:  35.444  -0.000  38.400  -0.000   0.000 203.756

                      1                      2                      3
                     B2U                    B3U                    B3G
 Frequencies --    225.7213               232.4642               365.9308
 Red. masses --      2.4814                 3.9193                 3.5910
 Frc consts  --      0.0745                 0.1248                 0.2833
 IR Inten    --      8.4761                 7.3782                 0.0000

                      4                      5                      6
                     B2G                    AU                     B2G
 Frequencies --    573.6718               772.8330               889.3447
 Red. masses --      7.4126                 1.0078                 1.3209
 Frc consts  --      1.4373                 0.3547                 0.6155
 IR Inten    --      0.0000                 0.0000                 0.0000

                      7                      8                      9
                     B3U                    AG                     B3G
 Frequencies --    893.1618               901.0016              1021.6026
 Red. masses --      1.3333                 3.7729                 1.4498
 Frc consts  --      0.6267                 1.8046                 0.8915
 IR Inten    --    109.3989                 0.0000                 0.0000

                     10                     11                     12
                     B2U                    B1U                    AG
 Frequencies --   1041.4583              1407.5405              1464.9342
 Red. masses --      1.4326                 1.1212                 1.1783
 Frc consts  --      0.9155                 1.3087                 1.4899
 IR Inten    --      0.1811                 0.0411                 0.0000

                     13                     14                     15
                     B1U                    AG                     AG
 Frequencies --   1675.6078              2197.9549              3113.2323
 Red. masses --      6.2426                11.2146                 1.0546
 Frc consts  --     10.3267                31.9206                 6.0221
 IR Inten    --     26.2763                 0.0000                 0.0000

                     16                     17                     18
                     B1U                    B2U                    B3G
 Frequencies --   3116.2064              3189.7784              3190.0774
 Red. masses --      1.0579                 1.1156                 1.1153
 Frc consts  --      6.0527                 6.6880                 6.6873
 IR Inten    --      5.6456                 4.5953                 0.0000

 - Thermochemistry -
 -------------------
 Temperature   298.150 Kelvin.  Pressure   1.00000 Atm.
 Atom     1 has atomic number  6 and mass  12.00000

 Molecular mass:    52.03130 amu.
 Principal axes and moments of inertia in atomic units:
                           1         2         3
     Eigenvalues --    12.35527 450.58264 462.93791
           X           -0.00000  -0.00000   1.00000
           Y            0.00000   1.00000   0.00000
           Z            1.00000  -0.00000   0.00000
 This molecule is an asymmetric top.
 Rotational symmetry number  4.
 Rotational temperatures (Kelvin)      7.01027     0.19223     0.18710
 Rotational constants (GHZ):         146.07059     4.00535     3.89845
 Zero-point vibrational energy     157144.6 (Joules/Mol)
                                   37.55846 (Kcal/Mol)
 Warning -- explicit consideration of   4 degrees of freedom as
           vibrations may cause significant error
 Vibrational temperatures:    324.76   334.46   526.49   825.38  1111.93
          (Kelvin)           1279.57  1285.06  1296.34  1469.86  1498.42
                             2025.13  2107.71  2410.82  3162.36  4479.24
                             4483.52  4589.37  4589.80

 Zero-point correction=                           0.059853 (Hartree/Particle)
 Thermal correction to Energy=                    0.064571
 Thermal correction to Enthalpy=                  0.065515
 Thermal correction to Gibbs Free Energy=         0.035242
 Sum of electronic and zero-point Energies=           -154.717847
 Sum of electronic and thermal Energies=              -154.713129
 Sum of electronic and thermal Enthalpies=            -154.712185
 Sum of electronic and thermal Free Energies=         -154.742457

                     E (Thermal)             CV                S
                      KCal/Mol        Cal/Mol-Kelvin    Cal/Mol-Kelvin
 Total                   40.519             15.327             63.714
 Electronic               0.000              0.000              0.000
 Translational            0.889              2.981             37.771
 Rotational               0.889              2.981             19.716
 Vibrational             38.741              9.365              6.227
 Vibration     1          0.650              1.802              1.913
 Vibration     2          0.653              1.791              1.860
 Vibration     3          0.739              1.542              1.097
 Vibration     4          0.930              1.088              0.497

 Optimization completed.
    -- Stationary point found.

 1\1\ CITASK-GV2401\Freq\RB3LYP\6-311++G(d,p)\C4H4\EERD\04-Mar-2018\0\\
 #p b3lyp/6-311++g(d,p) freq\\min\\0,1\C,-0.0000439945,0.63295,0.\C,0.0
 000439945,-0.63295,0.\C,0.0001353993,-1.947992,0.\H,-0.926238224,-2.51
 4568392,0.\H,0.9265877757,-2.5144396075,0.\C,-0.0001353993,1.947992,0.
 \H,0.926238224,2.514568392,0.\H,-0.9265877757,2.5144396075,0.\\Version
 =ES64L-G09RevD.01\State=1-AG\HF=-154.7776998\RMSD=5.952e-10\RMSF=7.785
 e-05\ZeroPoint=0.0598532\Thermal=0.0645707\Dipole=0.,0.,0.\DipoleDeriv
 =-0.1596825,-0.0000287,0.,-0.0000287,0.2532505,0.,0.,0.,-0.0347062,-0.

 Normal termination of Gaussian 09 at Sun Mar  4 21:17:50 2018.
