 Gaussian 09, Revision D.01,
 Gaussian 09:  ES64L-G09RevD.01 24-Apr-2013

 ---------------------------
 #p b3lyp/6-311++g(d,p) freq
 ---------------------------

 ---
 min
 ---
 Symbolic Z-matrix:
 Charge =  1 Multiplicity = 2

                         Standard orientation:
 ---------------------------------------------------------------------
 Center     Atomic      Atomic             Coordinates (Angstroms)
 Number     Number       Type             X           Y           Z
 ---------------------------------------------------------------------
      1          6           0        0.630400   -0.000000   -0.000000
      2          6           0       -0.630400    0.000000   -0.000000
      3          6           0       -1.957716    0.000000   -0.000000
      4          6           0        1.957716   -0.000000   -0.000000
      5          1           0        2.517742    0.879029    0.317909
      6          1           0        2.517742   -0.879029   -0.317909
      7          1           0       -2.517742    0.879029   -0.317909
      8          1           0       -2.517742   -0.879029    0.317909
 ---------------------------------------------------------------------

 SCF Done:  E(UB3LYP) =  -154.449807658     A.U. after   13 cycles

 The electronic state is 2-B2.
 Alpha  occ. eigenvalues --  -10.46521 -10.46398 -10.46327 -10.46305  -1.07464
 Alpha  occ. eigenvalues --   -1.01482  -0.92554  -0.75356  -0.72633  -0.70558
 Alpha  occ. eigenvalues --   -0.69036  -0.60657  -0.54446  -0.48609
 Alpha virt. eigenvalues --   -0.33991  -0.21090  -0.15997  -0.13633  -0.13281
 Alpha virt. eigenvalues --   -0.11089  -0.09749  -0.09562  -0.07639  -0.05636
 Alpha virt. eigenvalues --   -0.05046  -0.04141  -0.03126  -0.02915  -0.00970

  Beta  occ. eigenvalues --  -10.46288 -10.46145 -10.45839 -10.45837  -1.06120
  Beta  occ. eigenvalues --   -0.99808  -0.91370  -0.74474  -0.71935  -0.69458
  Beta  occ. eigenvalues --   -0.68209  -0.58512  -0.53091
  Beta virt. eigenvalues --   -0.39627  -0.30879  -0.19525  -0.15828  -0.13333
  Beta virt. eigenvalues --   -0.12026  -0.11009  -0.09636  -0.09443  -0.07203
  Beta virt. eigenvalues --   -0.05611  -0.04234  -0.03946  -0.02822  -0.02555

 Mulliken charges and spin densities:
               1          2
     1  C    0.427397   0.136029
     2  C    0.427397   0.136029
     3  C   -0.391206   0.365040
     4  C   -0.391206   0.365040
     5  H    0.231905  -0.000535
     6  H    0.231905  -0.000535
     7  H    0.231905  -0.000535
     8  H    0.231905  -0.000535
 Sum of Mulliken charges =   1.00000   1.00000

 Dipole moment (field-independent basis, Debye):
    X=              0.0000    Y=             -0.0000    Z=             -0.0000  Tot=              0.0000
 Quadrupole moment (field-independent basis, Debye-Ang):
   XX=              2.6563   YY=            -19.4177   ZZ=            -22.4597
   XY=             -0.0000   XZ=             -0.0000   YZ=             -0.0000

  Exact polarizability:  95.735   0.000  24.592   0.000   0.000  20.538
 Approx polarizability: 178.609  -0.000  32.288  -0.000  -0.000  27.274

                      1                      2                      3
                     B1                     B2                     B1
 Frequencies --    206.8938               212.2382               370.7586
 Red. masses --      3.6392                 2.5872                 3.3918
 Frc consts  --      0.0918                 0.0687                 0.2747
 IR Inten    --     14.8793                15.7661                 0.3152

                      4                      5                      6
                     B2                      A                      A
 Frequencies --    493.6897               688.8692               879.6612
 Red. masses --      5.2634                 1.0176                 3.7349
 Frc consts  --      0.7558                 0.2845                 1.7028
 IR Inten    --      0.2862                 0.0000                 0.0000

                      7                      8                      9
                     B2                     B1                     B1
 Frequencies --    952.8803               953.4388               990.1171
 Red. masses --      1.4291                 1.4371                 1.4051
 Frc consts  --      0.7645                 0.7697                 0.8116
 IR Inten    --      0.7023                37.4201                30.9944

                     10                     11                     12
                     B2                     B3                      A
 Frequencies --    999.5094              1365.6441              1419.6100
 Red. masses --      1.3961                 1.1657                 1.1727
 Frc consts  --      0.8218                 1.2809                 1.3924
 IR Inten    --      5.2835                71.2919                 0.0000

                     13                     14                     15
                     B3                      A                      A
 Frequencies --   1559.2266              1907.1881              3093.0418
 Red. masses --      5.1877                11.2565                 1.0512
 Frc consts  --      7.4309                24.1235                 5.9251
 IR Inten    --      2.3599                 0.0000                 0.0000

                     16                     17                     18
                     B3                     B1                     B2
 Frequencies --   3094.8897              3187.2838              3187.2982
 Red. masses --      1.0562                 1.1165                 1.1169
 Frc consts  --      5.9608                 6.6830                 6.6853
 IR Inten    --    161.7266                 9.3367                75.1002

 - Thermochemistry -
 -------------------
 Temperature   298.150 Kelvin.  Pressure   1.00000 Atm.
 Atom     1 has atomic number  6 and mass  12.00000

 Molecular mass:    52.03130 amu.
 Principal axes and moments of inertia in atomic units:
                           1         2         3
     Eigenvalues --    12.57864 455.25112 464.91987
           X            1.00000   0.00000   0.00000
           Y           -0.00000   1.00000   0.00000
           Z           -0.00000   0.00000   1.00000
 This molecule is an asymmetric top.
 Rotational symmetry number  4.
 Rotational temperatures (Kelvin)      6.88578     0.19026     0.18630
 Rotational constants (GHZ):         143.47662     3.96428     3.88183
 Zero-point vibrational energy     152896.1 (Joules/Mol)
                                   36.54305 (Kcal/Mol)
 Warning -- explicit consideration of   4 degrees of freedom as
           vibrations may cause significant error
 Vibrational temperatures:    297.67   305.36   533.44   710.31   991.13
          (Kelvin)           1265.63  1370.98  1371.78  1424.56  1438.07
                             1964.85  2042.50  2243.38  2744.01  4450.19
                             4452.85  4585.78  4585.81

 Zero-point correction=                           0.058235 (Hartree/Particle)
 Thermal correction to Energy=                    0.063086
 Thermal correction to Enthalpy=                  0.064030
 Thermal correction to Gibbs Free Energy=         0.032824
 Sum of electronic and zero-point Energies=           -154.391573
 Sum of electronic and thermal Energies=              -154.386721
 Sum of electronic and thermal Enthalpies=            -154.385777
 Sum of electronic and thermal Free Energies=         -154.416983

                     E (Thermal)             CV                S
                      KCal/Mol        Cal/Mol-Kelvin    Cal/Mol-Kelvin
 Total                   39.587             15.714             65.679
 Electronic               0.000              0.000              1.377
 Translational            0.889              2.981             37.771
 Rotational               0.889              2.981             19.748
 Vibrational             37.810              9.752              6.782
 Vibration     1          0.641              1.830              2.071
 Vibration     2          0.643              1.822              2.024
 Vibration     3          0.743              1.532              1.077
 Vibration     4          0.849              1.264              0.674

 Optimization completed.
    -- Stationary point found.
 Normal termination of Gaussian 09 at Thu Jan 24 16:01:32 2019.
