 Gaussian 09, Revision D.01,
 Gaussian 09:  ES64L-G09RevD.01 24-Apr-2013

 ---------------------------
 #p b3lyp/6-311++g(d,p) freq
 ---------------------------

 ---
 min
 ---
 Symbolic Z-matrix:
 Charge =  1 Multiplicity = 4

                         Standard orientation:
 ---------------------------------------------------------------------
 Center     Atomic      Atomic             Coordinates (Angstroms)
 Number     Number       Type             X           Y           Z
 ---------------------------------------------------------------------
      1          6           0       -0.951893   -0.777608   -0.294702
      2          6           0        0.164110   -0.164852    0.403835
      3          1           0        0.187354   -0.361576    1.505229
      4          6           0        1.506313    0.139516   -0.176632
      5          1           0        2.138016   -0.700736   -0.440390
      6          1           0        1.846848    1.166701   -0.211700
      7          6           0       -1.139318    0.536721   -0.056475
      8          1           0       -1.647494    1.492947   -0.109292
 ---------------------------------------------------------------------

 SCF Done:  E(UB3LYP) =  -154.268062106     A.U. after   15 cycles

 The electronic state is 4-A.
 Alpha  occ. eigenvalues --  -10.53579 -10.53256 -10.49919 -10.42022  -1.20405
 Alpha  occ. eigenvalues --   -0.97381  -0.86330  -0.81866  -0.72901  -0.70711
 Alpha  occ. eigenvalues --   -0.66510  -0.63837  -0.56586  -0.53004  -0.45161
 Alpha virt. eigenvalues --   -0.31360  -0.17103  -0.15817  -0.14113  -0.12966
 Alpha virt. eigenvalues --   -0.11588  -0.09615  -0.09578  -0.07478  -0.06639
 Alpha virt. eigenvalues --   -0.05560  -0.05097  -0.03724  -0.02394  -0.01872

  Beta  occ. eigenvalues --  -10.52188 -10.51736 -10.49617 -10.40359  -1.17208
  Beta  occ. eigenvalues --   -0.92968  -0.83779  -0.77946  -0.68415  -0.67520
  Beta  occ. eigenvalues --   -0.63433  -0.60590
  Beta virt. eigenvalues --   -0.44454  -0.39270  -0.28793  -0.25029  -0.15627
  Beta virt. eigenvalues --   -0.15254  -0.13063  -0.11986  -0.10649  -0.09223
  Beta virt. eigenvalues --   -0.08254  -0.06552  -0.05987  -0.04960  -0.04452

 Mulliken charges and spin densities:
               1          2
     1  C    0.110441   0.895451
     2  C   -0.001111   0.133596
     3  H    0.282823   0.152146
     4  C   -0.389261   1.174570
     5  H    0.227643  -0.027285
     6  H    0.216265  -0.032027
     7  C    0.228195   0.719579
     8  H    0.325004  -0.016031
 Sum of Mulliken charges =   1.00000   3.00000

 Dipole moment (field-independent basis, Debye):
    X=             -1.1753    Y=              1.2763    Z=              0.7423  Tot=              1.8871
 Quadrupole moment (field-independent basis, Debye-Ang):
   XX=            -13.0617   YY=            -17.7013   ZZ=            -20.2099
   XY=             -2.6141   XZ=             -0.3614   YZ=             -0.6555

  Exact polarizability:  48.964   0.688  36.235   1.944   1.023  29.150
 Approx polarizability:  69.401   2.043  60.415   5.305   4.064  43.416

                      1                      2                      3
                      A                      A                      A
 Frequencies --    161.1898               299.0789               394.7255
 Red. masses --      1.1015                 2.3289                 6.0292
 Frc consts  --      0.0169                 0.1227                 0.5535
 IR Inten    --      0.0922                 3.3079                 1.1795

                      4                      5                      6
                      A                      A                      A
 Frequencies --    465.4433               659.9464               680.2901
 Red. masses --      1.1998                 1.3381                 2.8661
 Frc consts  --      0.1531                 0.3434                 0.7815
 IR Inten    --     70.2276                 9.1969                 6.7475

                      7                      8                      9
                      A                      A                      A
 Frequencies --    850.5820               866.7463               892.9242
 Red. masses --      1.1836                 4.9550                 1.3982
 Frc consts  --      0.5045                 2.1932                 0.6568
 IR Inten    --     52.6300                 4.8080                39.2653

                     10                     11                     12
                      A                      A                      A
 Frequencies --    997.8363              1035.1026              1136.1235
 Red. masses --      1.5948                 1.3141                 3.9200
 Frc consts  --      0.9356                 0.8295                 2.9811
 IR Inten    --     12.4385                34.9187                11.8611

                     13                     14                     15
                      A                      A                      A
 Frequencies --   1374.8464              1500.9177              2755.2983
 Red. masses --      1.1649                 5.9587                 1.0701
 Frc consts  --      1.2973                 7.9089                 4.7865
 IR Inten    --      2.2359                 9.3785                80.4317

                     16                     17                     18
                      A                      A                      A
 Frequencies --   3130.2684              3229.4386              3268.7701
 Red. masses --      1.0439                 1.1107                 1.1241
 Frc consts  --      6.0263                 6.8251                 7.0768
 IR Inten    --     34.4224               110.1829                22.0494

 - Thermochemistry -
 -------------------
 Temperature   298.150 Kelvin.  Pressure   1.00000 Atm.
 Atom     1 has atomic number  6 and mass  12.00000

 Molecular mass:    52.03130 amu.
 Principal axes and moments of inertia in atomic units:
                           1         2         3
     Eigenvalues --    76.17110 252.33425 286.44620
           X            0.99924  -0.03708  -0.01217
           Y            0.03625   0.99741  -0.06215
           Z            0.01445   0.06166   0.99799
 This molecule is an asymmetric top.
 Rotational symmetry number  1.
 Rotational temperatures (Kelvin)      1.13710     0.34325     0.30237
 Rotational constants (GHZ):          23.69325     7.15218     6.30045
 Zero-point vibrational energy     141754.7 (Joules/Mol)
                                   33.88018 (Kcal/Mol)
 Warning -- explicit consideration of   4 degrees of freedom as
           vibrations may cause significant error
 Vibrational temperatures:    231.92   430.31   567.92   669.67   949.51
          (Kelvin)            978.78  1223.80  1247.05  1284.72  1435.66
                             1489.28  1634.63  1978.09  2159.48  3964.25
                             4503.75  4646.44  4703.03

 Zero-point correction=                           0.053991 (Hartree/Particle)
 Thermal correction to Energy=                    0.058971
 Thermal correction to Enthalpy=                  0.059916
 Thermal correction to Gibbs Free Energy=         0.026247
 Sum of electronic and zero-point Energies=           -154.214071
 Sum of electronic and thermal Energies=              -154.209091
 Sum of electronic and thermal Enthalpies=            -154.208147
 Sum of electronic and thermal Free Energies=         -154.241816

                     E (Thermal)             CV                S
                      KCal/Mol        Cal/Mol-Kelvin    Cal/Mol-Kelvin
 Total                   37.005             16.899             70.862
 Electronic               0.000              0.000              2.755
 Translational            0.889              2.981             37.771
 Rotational               0.889              2.981             23.225
 Vibrational             35.228             10.938              7.112
 Vibration     1          0.622              1.890              2.536
 Vibration     2          0.692              1.675              1.422
 Vibration     3          0.762              1.481              0.982
 Vibration     4          0.823              1.327              0.750

 Optimization completed.
    -- Stationary point found.
 Normal termination of Gaussian 09 at Thu Jan 24 16:11:46 2019.
