 Gaussian 09, Revision D.01,
 Gaussian 09:  ES64L-G09RevD.01 24-Apr-2013

 ---------------------------
 #p b3lyp/6-311++g(d,p) freq
 ---------------------------

 ---
 min
 ---
 Symbolic Z-matrix:
 Charge =  1 Multiplicity = 2

                         Standard orientation:
 ---------------------------------------------------------------------
 Center     Atomic      Atomic             Coordinates (Angstroms)
 Number     Number       Type             X           Y           Z
 ---------------------------------------------------------------------
      1          6           0       -0.271190   -1.114798    0.000000
      2          6           0       -0.271190    1.489769    0.658918
      3          8           0        0.393165   -2.077543    0.000000
      4          6           0       -0.271190    1.489769   -0.658918
      5          6           0        0.433226    0.398553   -0.000000
      6          1           0       -1.375985   -1.086185    0.000000
      7          1           0       -0.496566    1.963959   -1.602364
      8          1           0       -0.496566    1.963959    1.602364
      9          1           0        1.505857    0.198852   -0.000000
 ---------------------------------------------------------------------

 SCF Done:  E(UB3LYP) =  -229.672503316     A.U. after   15 cycles

 The electronic state is 2-A'.
 Alpha  occ. eigenvalues --  -19.43456 -10.53352 -10.46686 -10.46099 -10.46002
 Alpha  occ. eigenvalues --   -1.36324  -1.16388  -0.91282  -0.83171  -0.81737
 Alpha  occ. eigenvalues --   -0.76969  -0.73086  -0.71651  -0.68023  -0.62611
 Alpha  occ. eigenvalues --   -0.57650  -0.57293  -0.50254
 Alpha virt. eigenvalues --   -0.29203  -0.25032  -0.14659  -0.13893  -0.13040
 Alpha virt. eigenvalues --   -0.12987  -0.11278  -0.10023  -0.09342  -0.07349
 Alpha virt. eigenvalues --   -0.07056  -0.06501  -0.05181  -0.05109  -0.02490

  Beta  occ. eigenvalues --  -19.42405 -10.53248 -10.46506 -10.45846 -10.45752
  Beta  occ. eigenvalues --   -1.34461  -1.15603  -0.89182  -0.81751  -0.81258
  Beta  occ. eigenvalues --   -0.76218  -0.71633  -0.69006  -0.67249  -0.61389
  Beta  occ. eigenvalues --   -0.57033  -0.53686
  Beta virt. eigenvalues --   -0.41261  -0.28539  -0.23384  -0.14410  -0.13608
  Beta virt. eigenvalues --   -0.12930  -0.12857  -0.10920  -0.09413  -0.09173
  Beta virt. eigenvalues --   -0.07215  -0.07046  -0.06187  -0.04972  -0.04698

 Mulliken charges and spin densities:
               1          2
     1  C   -0.028252   0.026884
     2  C   -0.158596   0.174255
     3  O    0.044872   0.376724
     4  C   -0.158596   0.174255
     5  C    0.204241   0.071440
     6  H    0.253250   0.120677
     7  H    0.269598  -0.005291
     8  H    0.269598  -0.005291
     9  H    0.303884   0.066349
 Sum of Mulliken charges =   1.00000   1.00000

 Dipole moment (field-independent basis, Debye):
    X=             -1.6687    Y=              2.6703    Z=              0.0000  Tot=              3.1488
 Quadrupole moment (field-independent basis, Debye-Ang):
   XX=            -23.0188   YY=            -17.9788   ZZ=            -21.5615
   XY=              0.8280   XZ=             -0.0000   YZ=             -0.0000

  Exact polarizability:  33.257  -5.943  83.873  -0.000   0.000  34.980
 Approx polarizability:  50.085 -18.898 150.309  -0.000  -0.000  56.578

                      1                      2                      3
                     A"                     A"                     A'
 Frequencies --     48.6829               270.3090               326.0829
 Red. masses --      3.2126                 2.1554                 4.6265
 Frc consts  --      0.0045                 0.0928                 0.2898
 IR Inten    --     11.2863                 6.6220                 1.8226

                      4                      5                      6
                     A'                     A'                     A'
 Frequencies --    379.1113               536.0771               741.6509
 Red. masses --      6.2127                 5.2740                 1.2918
 Frc consts  --      0.5261                 0.8930                 0.4186
 IR Inten    --      2.5060                24.5669                53.3554

                      7                      8                      9
                     A"                     A"                     A"
 Frequencies --    809.1491               859.8597               937.7874
 Red. masses --      1.3238                 1.7279                 1.6523
 Frc consts  --      0.5106                 0.7527                 0.8561
 IR Inten    --     13.6983                 0.4843                 7.4474

                     10                     11                     12
                     A'                     A"                     A"
 Frequencies --    942.1552              1026.9299              1074.0824
 Red. masses --      1.1225                 1.4680                 2.4705
 Frc consts  --      0.5871                 0.9122                 1.6792
 IR Inten    --     14.0478                 1.0635                48.2526

                     13                     14                     15
                     A'                     A'                     A'
 Frequencies --   1130.6576              1185.1854              1226.9431
 Red. masses --      2.3389                 1.4671                 1.1212
 Frc consts  --      1.7617                 1.2141                 0.9944
 IR Inten    --     93.9199                 2.2089                 2.4015

                     16                     17                     18
                     A'                     A'                     A'
 Frequencies --   1616.0250              1884.3002              2952.0072
 Red. masses --      5.1754                 9.8672                 1.0933
 Frc consts  --      7.9633                20.6416                 5.6135
 IR Inten    --    106.6062                61.9139                22.4700

                     19                     20                     21
                     A'                     A"                     A'
 Frequencies --   3081.3078              3244.7549              3287.8838
 Red. masses --      1.0863                 1.0898                 1.1455
 Frc consts  --      6.0770                 6.7600                 7.2960
 IR Inten    --     39.1139                76.7103                22.5708

 - Thermochemistry -
 -------------------
 Temperature   298.150 Kelvin.  Pressure   1.00000 Atm.
 Atom     1 has atomic number  6 and mass  12.00000

 Molecular mass:    68.02621 amu.
 Principal axes and moments of inertia in atomic units:
                           1         2         3
     Eigenvalues --    91.09658 571.53142 591.81973
           X           -0.12348   0.00000   0.99235
           Y            0.99235   0.00000   0.12348
           Z           -0.00000   1.00000   0.00000
 This molecule is an asymmetric top.
 Rotational symmetry number  1.
 Rotational temperatures (Kelvin)      0.95079     0.15155     0.14635
 Rotational constants (GHZ):          19.81129     3.15773     3.04948
 Zero-point vibrational energy     164851.0 (Joules/Mol)
                                   39.40035 (Kcal/Mol)
 Warning -- explicit consideration of   5 degrees of freedom as
           vibrations may cause significant error
 Vibrational temperatures:     70.04   388.91   469.16   545.46   771.29
          (Kelvin)           1067.07  1164.18  1237.14  1349.27  1355.55
                             1477.52  1545.36  1626.76  1705.22  1765.30
                             2325.10  2711.08  4247.27  4433.31  4668.47
                             4730.53

 Zero-point correction=                           0.062788 (Hartree/Particle)
 Thermal correction to Energy=                    0.068283
 Thermal correction to Enthalpy=                  0.069227
 Thermal correction to Gibbs Free Energy=         0.033400
 Sum of electronic and zero-point Energies=           -229.609715
 Sum of electronic and thermal Energies=              -229.604220
 Sum of electronic and thermal Enthalpies=            -229.603276
 Sum of electronic and thermal Free Energies=         -229.639103

                     E (Thermal)             CV                S
                      KCal/Mol        Cal/Mol-Kelvin    Cal/Mol-Kelvin
 Total                   42.848             18.193             75.404
 Electronic               0.000              0.000              1.377
 Translational            0.889              2.981             38.570
 Rotational               0.889              2.981             24.936
 Vibrational             41.071             12.232             10.521
 Vibration     1          0.595              1.978              4.870
 Vibration     2          0.674              1.728              1.594
 Vibration     3          0.710              1.623              1.279
 Vibration     4          0.749              1.515              1.043
 Vibration     5          0.891              1.170              0.574

 Optimization completed.
    -- Stationary point found.
 Normal termination of Gaussian 09 at Thu Jan 24 16:14:47 2019.
