 Gaussian 09, Revision D.01,
 Gaussian 09:  ES64L-G09RevD.01 24-Apr-2013

 ---------------------------
 #p b3lyp/6-311++g(d,p) freq
 ---------------------------

 ---
 min
 ---
 Symbolic Z-matrix:
 Charge =  0 Multiplicity = 3

                         Standard orientation:
 ---------------------------------------------------------------------
 Center     Atomic      Atomic             Coordinates (Angstroms)
 Number     Number       Type             X           Y           Z
 ---------------------------------------------------------------------
      1          6           0        0.000000   -0.000000    1.078929
      2          1           0       -0.000000    2.124896    0.203495
      3          6           0       -0.000000    1.047452    0.171951
      4          1           0       -0.000000   -2.124896    0.203495
      5          6           0       -0.000000   -1.047452    0.171951
      6          6           0       -0.000000    0.000000   -0.962646
      7          1           0       -0.900891    0.000000   -1.584048
      8          1           0        0.900891   -0.000000   -1.584048
 ---------------------------------------------------------------------

 SCF Done:  E(UB3LYP) =  -154.673487397     A.U. after   13 cycles

 The electronic state is 3-A2.
 Alpha  occ. eigenvalues --  -10.20597 -10.20547 -10.20009 -10.20006  -0.89652
 Alpha  occ. eigenvalues --   -0.66548  -0.66181  -0.53602  -0.46161  -0.45134
 Alpha  occ. eigenvalues --   -0.41796  -0.37624  -0.30972  -0.24465  -0.20451
 Alpha virt. eigenvalues --   -0.00400   0.01092   0.01782   0.02048   0.02366
 Alpha virt. eigenvalues --    0.05316   0.07306   0.07367   0.08622   0.09363
 Alpha virt. eigenvalues --    0.09614   0.10556   0.12401   0.12856   0.13492

  Beta  occ. eigenvalues --  -10.20429 -10.19470 -10.18956 -10.18955  -0.87269
  Beta  occ. eigenvalues --   -0.64860  -0.63536  -0.52133  -0.44753  -0.41568
  Beta  occ. eigenvalues --   -0.40137  -0.36590  -0.27934
  Beta virt. eigenvalues --   -0.09892  -0.08556  -0.00345   0.01191   0.02301
  Beta virt. eigenvalues --    0.02405   0.05151   0.05941   0.07392   0.07525
  Beta virt. eigenvalues --    0.08756   0.09915   0.10343   0.11036   0.12725

 Mulliken charges and spin densities:
               1          2
     1  C   -0.067217   0.460501
     2  H    0.163703  -0.024523
     3  C   -0.049148   0.811052
     4  H    0.163703  -0.024523
     5  C   -0.049148   0.811052
     6  C   -0.433273  -0.069912
     7  H    0.135690   0.018176
     8  H    0.135690   0.018176
 Sum of Mulliken charges =  -0.00000   2.00000

 Dipole moment (field-independent basis, Debye):
    X=              0.0000    Y=             -0.0000    Z=             -1.4919  Tot=              1.4919
 Quadrupole moment (field-independent basis, Debye-Ang):
   XX=            -25.9119   YY=            -21.4675   ZZ=            -25.8356
   XY=             -0.0000   XZ=             -0.0000   YZ=             -0.0000

  Exact polarizability:  34.463   0.000  52.938   0.000  -0.000  48.064
 Approx polarizability:  47.219   0.000  82.848  -0.000  -0.000  70.211

                      1                      2                      3
                     B1                     B1                     A2
 Frequencies --    390.2683               533.3188               552.9204
 Red. masses --      2.4504                 1.1915                 1.2706
 Frc consts  --      0.2199                 0.1997                 0.2289
 IR Inten    --      5.7641                76.2161                 0.0000

                      4                      5                      6
                     B2                     A1                     A1
 Frequencies --    837.3869               871.9633               890.9817
 Red. masses --      3.5255                 6.4334                 1.8754
 Frc consts  --      1.4565                 2.8819                 0.8772
 IR Inten    --      2.6707                 4.5498                 7.5899

                      7                      8                      9
                     B1                     B2                     A2
 Frequencies --    916.1873              1056.1924              1081.2065
 Red. masses --      1.5567                 1.7084                 1.0705
 Frc consts  --      0.7699                 1.1229                 0.7373
 IR Inten    --      0.0382                19.4325                 0.0000

                     10                     11                     12
                     B2                     A1                     B2
 Frequencies --   1098.6533              1173.7022              1217.6941
 Red. masses --      1.8869                 2.0610                 1.7902
 Frc consts  --      1.3419                 1.6728                 1.5639
 IR Inten    --      1.0182                12.8279                 8.8190

                     13                     14                     15
                     A1                     A1                     A1
 Frequencies --   1385.9389              1473.3887              3017.9707
 Red. masses --      3.4631                 1.2091                 1.0525
 Frc consts  --      3.9192                 1.5464                 5.6481
 IR Inten    --      1.3862                 3.0209                33.6243

                     16                     17                     18
                     B1                     B2                     A1
 Frequencies --   3075.8343              3254.0468              3258.2291
 Red. masses --      1.1094                 1.0920                 1.1005
 Frc consts  --      6.1838                 6.8127                 6.8833
 IR Inten    --     15.1905                 0.4359                 0.6035

 - Thermochemistry -
 -------------------
 Temperature   298.150 Kelvin.  Pressure   1.00000 Atm.
 Atom     1 has atomic number  6 and mass  12.00000

 Molecular mass:    52.03130 amu.
 Principal axes and moments of inertia in atomic units:
                           1         2         3
     Eigenvalues --   115.81582 132.37473 236.50665
           X            0.00000  -0.00000   1.00000
           Y            1.00000   0.00000  -0.00000
           Z           -0.00000   1.00000   0.00000
 This molecule is an asymmetric top.
 Rotational symmetry number  2.
 Rotational temperatures (Kelvin)      0.74786     0.65431     0.36622
 Rotational constants (GHZ):          15.58286    13.63358     7.63083
 Zero-point vibrational energy     156028.2 (Joules/Mol)
                                   37.29164 (Kcal/Mol)
 Warning -- explicit consideration of   3 degrees of freedom as
           vibrations may cause significant error
 Vibrational temperatures:    561.51   767.33   795.53  1204.81  1254.56
          (Kelvin)           1281.92  1318.19  1519.62  1555.61  1580.72
                             1688.69  1751.99  1994.05  2119.88  4342.18
                             4425.43  4681.84  4687.86

 Zero-point correction=                           0.059428 (Hartree/Particle)
 Thermal correction to Energy=                    0.063332
 Thermal correction to Enthalpy=                  0.064276
 Thermal correction to Gibbs Free Energy=         0.033661
 Sum of electronic and zero-point Energies=           -154.614059
 Sum of electronic and thermal Energies=              -154.610155
 Sum of electronic and thermal Enthalpies=            -154.609211
 Sum of electronic and thermal Free Energies=         -154.639827

                     E (Thermal)             CV                S
                      KCal/Mol        Cal/Mol-Kelvin    Cal/Mol-Kelvin
 Total                   39.741             13.391             64.435
 Electronic               0.000              0.000              2.183
 Translational            0.889              2.981             37.771
 Rotational               0.889              2.981             21.432
 Vibrational             37.964              7.429              3.049
 Vibration     1          0.758              1.491              0.999
 Vibration     2          0.888              1.176              0.580
 Vibration     3          0.908              1.133              0.538

 Optimization completed.
    -- Stationary point found.
 Normal termination of Gaussian 09 at Sun Mar  4 21:18:58 2018.
