 Gaussian 09, Revision D.01,
 Gaussian 09:  ES64L-G09RevD.01 24-Apr-2013

 ---------------------------
 #p b3lyp/6-311++g(d,p) freq
 ---------------------------

 ---
 min
 ---
 Symbolic Z-matrix:
 Charge =  0 Multiplicity = 3

                         Standard orientation:
 ---------------------------------------------------------------------
 Center     Atomic      Atomic             Coordinates (Angstroms)
 Number     Number       Type             X           Y           Z
 ---------------------------------------------------------------------
      1          6           0        1.784484   -0.187158   -0.000041
      2          1           0        2.338791   -0.337504    0.925653
      3          1           0        2.338763   -0.338913   -0.925519
      4          6           0        0.530652    0.156491   -0.000294
      5          6           0       -0.773748    0.504773   -0.000393
      6          1           0       -1.004994    1.571587    0.000904
      7          1           0       -1.945816   -1.454826    0.000535
      8          6           0       -1.829179   -0.380830    0.000464
 ---------------------------------------------------------------------

 SCF Done:  E(UB3LYP) =  -154.686579236     A.U. after   15 cycles

 The electronic state is 3-A.
 Alpha  occ. eigenvalues --  -10.21323 -10.20654 -10.20458 -10.18790  -0.82859
 Alpha  occ. eigenvalues --   -0.75583  -0.64230  -0.54189  -0.48329  -0.45980
 Alpha  occ. eigenvalues --   -0.45715  -0.33663  -0.29370  -0.26346  -0.20297
 Alpha virt. eigenvalues --   -0.01282  -0.00218   0.01290   0.01585   0.02061
 Alpha virt. eigenvalues --    0.03306   0.06069   0.07511   0.07694   0.08241
 Alpha virt. eigenvalues --    0.11073   0.11393   0.11415   0.12081   0.12871

  Beta  occ. eigenvalues --  -10.20792 -10.19689 -10.18894 -10.18873  -0.81090
  Beta  occ. eigenvalues --   -0.74142  -0.60213  -0.52795  -0.47323  -0.44716
  Beta  occ. eigenvalues --   -0.44283  -0.30668  -0.28462
  Beta virt. eigenvalues --   -0.09180  -0.07853  -0.00820   0.00141   0.01833
  Beta virt. eigenvalues --    0.02333   0.02784   0.03876   0.06512   0.07488
  Beta virt. eigenvalues --    0.08452   0.08953   0.11458   0.11703   0.12228

 Mulliken charges and spin densities:
               1          2
     1  C   -0.653422  -0.067632
     2  H    0.128706   0.046287
     3  H    0.128698   0.046284
     4  C    0.416427   0.582769
     5  C   -0.172059  -0.263844
     6  H    0.167629   0.042556
     7  H    0.154611  -0.017507
     8  C   -0.170590   1.631086
 Sum of Mulliken charges =  -0.00000   2.00000

 Dipole moment (field-independent basis, Debye):
    X=              0.7649    Y=             -0.1909    Z=              0.0012  Tot=              0.7884
 Quadrupole moment (field-independent basis, Debye-Ang):
   XX=            -24.1548   YY=            -23.2943   ZZ=            -25.6137
   XY=             -0.2446   XZ=             -0.0006   YZ=              0.0032

  Exact polarizability:  84.025  -0.425  38.681  -0.005  -0.001  31.740
 Approx polarizability: 122.530  -2.834  52.593  -0.005  -0.003  41.195

                      1                      2                      3
                      A                      A                      A
 Frequencies --    206.5879               213.2343               471.0509
 Red. masses --      3.2483                 2.6858                 1.0399
 Frc consts  --      0.0817                 0.0720                 0.1360
 IR Inten    --      0.4475                 4.5702                17.5677

                      4                      5                      6
                      A                      A                      A
 Frequencies --    537.7198               582.3433               866.1095
 Red. masses --      2.9897                 1.8392                 1.4090
 Frc consts  --      0.5093                 0.3675                 0.6227
 IR Inten    --     16.6685                11.3759                21.8201

                      7                      8                      9
                      A                      A                      A
 Frequencies --    866.2279               889.5002               981.0220
 Red. masses --      1.4019                 1.3172                 1.3981
 Frc consts  --      0.6198                 0.6141                 0.7928
 IR Inten    --     22.1264                52.9576                 0.0345

                     10                     11                     12
                      A                      A                      A
 Frequencies --   1008.8693              1190.0570              1343.8312
 Red. masses --      2.9251                 2.0972                 1.8169
 Frc consts  --      1.7541                 1.7500                 1.9331
 IR Inten    --      4.9179                 5.7958                 4.5710

                     13                     14                     15
                      A                      A                      A
 Frequencies --   1442.9201              1898.7373              3071.5280
 Red. masses --      1.2284                10.1118                 1.0552
 Frc consts  --      1.5069                21.4786                 5.8652
 IR Inten    --      1.8917                20.4223                12.0717

                     16                     17                     18
                      A                      A                      A
 Frequencies --   3084.4413              3132.6241              3234.6450
 Red. masses --      1.0828                 1.1134                 1.0931
 Frc consts  --      6.0693                 6.4372                 6.7383
 IR Inten    --      1.0854                 4.8305                 0.2273

 - Thermochemistry -
 -------------------
 Temperature   298.150 Kelvin.  Pressure   1.00000 Atm.
 Atom     1 has atomic number  6 and mass  12.00000

 Molecular mass:    52.03130 amu.
 Principal axes and moments of inertia in atomic units:
                           1         2         3
     Eigenvalues --    43.15497 380.16649 410.98821
           X            0.99999  -0.00367   0.00011
           Y            0.00367   0.99999   0.00035
           Z           -0.00011  -0.00035   1.00000
 This molecule is an asymmetric top.
 Rotational symmetry number  1.
 Rotational temperatures (Kelvin)      2.00704     0.22783     0.21075
 Rotational constants (GHZ):          41.82001     4.74724     4.39122
 Zero-point vibrational energy     149661.5 (Joules/Mol)
                                   35.76996 (Kcal/Mol)
 Warning -- explicit consideration of   5 degrees of freedom as
           vibrations may cause significant error
 Vibrational temperatures:    297.23   306.80   677.74   773.66   837.86
          (Kelvin)           1246.14  1246.31  1279.79  1411.47  1451.54
                             1712.22  1933.47  2076.04  2731.86  4419.24
                             4437.82  4507.14  4653.93

 Zero-point correction=                           0.057003 (Hartree/Particle)
 Thermal correction to Energy=                    0.061828
 Thermal correction to Enthalpy=                  0.062773
 Thermal correction to Gibbs Free Energy=         0.029516
 Sum of electronic and zero-point Energies=           -154.629576
 Sum of electronic and thermal Energies=              -154.624751
 Sum of electronic and thermal Enthalpies=            -154.623807
 Sum of electronic and thermal Free Energies=         -154.657063

                     E (Thermal)             CV                S
                      KCal/Mol        Cal/Mol-Kelvin    Cal/Mol-Kelvin
 Total                   38.798             15.988             69.995
 Electronic               0.000              0.000              2.183
 Translational            0.889              2.981             37.771
 Rotational               0.889              2.981             23.426
 Vibrational             37.020             10.027              6.615
 Vibration     1          0.641              1.830              2.074
 Vibration     2          0.644              1.821              2.016
 Vibration     3          0.828              1.314              0.735
 Vibration     4          0.893              1.167              0.570
 Vibration     5          0.939              1.070              0.481

 Normal termination of Gaussian 09 at Sun Mar  4 21:20:58 2018.
