 Gaussian 09, Revision D.01,
 Gaussian 09:  ES64L-G09RevD.01 24-Apr-2013

 ---------------------------
 #p b3lyp/6-311++g(d,p) freq
 ---------------------------

 ---
 min
 ---
 Symbolic Z-matrix:
 Charge =  1 Multiplicity = 4

                         Standard orientation:
 ---------------------------------------------------------------------
 Center     Atomic      Atomic             Coordinates (Angstroms)
 Number     Number       Type             X           Y           Z
 ---------------------------------------------------------------------
      1          6           0       -0.829009    0.000000   -0.254091
      2          6           0        0.000000   -1.176168    0.135761
      3          6           0        0.829009   -0.000000   -0.254091
      4          6           0        0.000000    1.176168    0.135761
      5          1           0        0.000000   -2.061494   -0.501804
      6          1           0        0.000000   -1.412450    1.211788
      7          1           0        0.000000    2.061494   -0.501804
      8          1           0        0.000000    1.412450    1.211788
 ---------------------------------------------------------------------

 SCF Done:  E(UB3LYP) =  -154.274169304     A.U. after   11 cycles

 The electronic state is 4-B1.
 Alpha  occ. eigenvalues --  -10.54056 -10.54043 -10.46983 -10.46981  -1.21694
 Alpha  occ. eigenvalues --   -0.97769  -0.84038  -0.82547  -0.75633  -0.70077
 Alpha  occ. eigenvalues --   -0.65858  -0.64568  -0.62065  -0.51656  -0.49803
 Alpha virt. eigenvalues --   -0.28402  -0.16275  -0.14503  -0.13570  -0.13034
 Alpha virt. eigenvalues --   -0.10086  -0.09485  -0.09329  -0.07130  -0.05528
 Alpha virt. eigenvalues --   -0.05433  -0.04540  -0.03377  -0.03297  -0.02862

  Beta  occ. eigenvalues --  -10.51513 -10.51506 -10.46948 -10.46946  -1.18320
  Beta  occ. eigenvalues --   -0.96781  -0.80361  -0.75885  -0.72167  -0.68083
  Beta  occ. eigenvalues --   -0.64696  -0.62704
  Beta virt. eigenvalues --   -0.43462  -0.37498  -0.31071  -0.21012  -0.15813
  Beta virt. eigenvalues --   -0.13406  -0.13265  -0.12669  -0.09778  -0.09256
  Beta virt. eigenvalues --   -0.08636  -0.06027  -0.05056  -0.04090  -0.03794

 Mulliken charges and spin densities:
               1          2
     1  C    0.457704   1.358278
     2  C   -0.476351  -0.017247
     3  C    0.457704   1.358278
     4  C   -0.476351  -0.017247
     5  H    0.261505   0.043074
     6  H    0.257143   0.115895
     7  H    0.261505   0.043074
     8  H    0.257143   0.115895
 Sum of Mulliken charges =   1.00000   3.00000

 Dipole moment (field-independent basis, Debye):
    X=              0.0000    Y=              0.0000    Z=              0.7579  Tot=              0.7579
 Quadrupole moment (field-independent basis, Debye-Ang):
   XX=            -20.6827   YY=            -12.1712   ZZ=            -19.4793
   XY=              0.0000   XZ=             -0.0000   YZ=             -0.0000

  Exact polarizability:  31.597  -0.000  43.336  -0.000  -0.000  28.348
 Approx polarizability:  58.909   0.000  60.635  -0.000   0.000  40.330

                      1                      2                      3
                     A1                     B1                     A2
 Frequencies --    387.5590               655.1281               689.5357
 Red. masses --      1.8982                 3.0046                 6.6447
 Frc consts  --      0.1680                 0.7598                 1.8614
 IR Inten    --      3.0492                10.5731                 0.0000

                      4                      5                      6
                     B2                     A1                     A2
 Frequencies --    855.8559               860.2930               862.1482
 Red. masses --      1.2606                 7.1192                 1.0714
 Frc consts  --      0.5440                 3.1044                 0.4692
 IR Inten    --      0.2898                 0.4565                 0.0000

                      7                      8                      9
                     A1                     B1                     A2
 Frequencies --   1034.3305              1085.0344              1108.4744
 Red. masses --      1.9826                 1.2276                 1.2496
 Frc consts  --      1.2497                 0.8515                 0.9046
 IR Inten    --      1.1816                19.4895                 0.0000

                     10                     11                     12
                     A1                     B1                     B2
 Frequencies --   1138.6947              1165.8281              1195.8322
 Red. masses --      3.9421                 1.4228                 7.8069
 Frc consts  --      3.0116                 1.1394                 6.5777
 IR Inten    --      0.0034                57.1650                 4.8411

                     13                     14                     15
                     B2                     A1                     B2
 Frequencies --   1394.0913              1424.4215              2953.7722
 Red. masses --      1.0900                 1.1398                 1.0614
 Frc consts  --      1.2481                 1.3626                 5.4563
 IR Inten    --     52.6187                12.7639                62.6736

                     16                     17                     18
                     A1                     B2                     A1
 Frequencies --   2975.9716              3115.4822              3122.7472
 Red. masses --      1.0666                 1.0934                 1.1010
 Frc consts  --      5.5657                 6.2529                 6.3256
 IR Inten    --     26.4607                41.6358                20.3198

 - Thermochemistry -
 -------------------
 Temperature   298.150 Kelvin.  Pressure   1.00000 Atm.
 Atom     1 has atomic number  6 and mass  12.00000

 Molecular mass:    52.03130 amu.
 Principal axes and moments of inertia in atomic units:
                           1         2         3
     Eigenvalues --    78.26066 182.87165 222.41417
           X           -0.00000   1.00000   0.00000
           Y            1.00000   0.00000   0.00000
           Z           -0.00000   0.00000   1.00000
 This molecule is an asymmetric top.
 Rotational symmetry number  2.
 Rotational temperatures (Kelvin)      1.10674     0.47363     0.38943
 Rotational constants (GHZ):          23.06064     9.86890     8.11433
 Zero-point vibrational energy     155665.3 (Joules/Mol)
                                   37.20489 (Kcal/Mol)
 Warning -- explicit consideration of   1 degrees of freedom as
           vibrations may cause significant error
 Vibrational temperatures:    557.61   942.58   992.09  1231.38  1237.77
          (Kelvin)           1240.44  1488.17  1561.12  1594.85  1638.33
                             1677.36  1720.53  2005.78  2049.42  4249.81
                             4281.75  4482.48  4492.93

 Zero-point correction=                           0.059290 (Hartree/Particle)
 Thermal correction to Energy=                    0.063036
 Thermal correction to Enthalpy=                  0.063981
 Thermal correction to Gibbs Free Energy=         0.033383
 Sum of electronic and zero-point Energies=           -154.214880
 Sum of electronic and thermal Energies=              -154.211133
 Sum of electronic and thermal Enthalpies=            -154.210189
 Sum of electronic and thermal Free Energies=         -154.240786

                     E (Thermal)             CV                S
                      KCal/Mol        Cal/Mol-Kelvin    Cal/Mol-Kelvin
 Total                   39.556             12.696             64.398
 Electronic               0.000              0.000              2.755
 Translational            0.889              2.981             37.771
 Rotational               0.889              2.981             21.303
 Vibrational             37.779              6.734              2.570
 Vibration     1          0.756              1.497              1.010

 Optimization completed.
    -- Stationary point found.
 Normal termination of Gaussian 09 at Thu Jan 24 16:07:42 2019.
