 Gaussian 09, Revision D.01,
 Gaussian 09:  ES64L-G09RevD.01 24-Apr-2013

 ---------------------------
 #p b3lyp/6-311++g(d,p) freq
 ---------------------------

 ---
 min
 ---
 Symbolic Z-matrix:
 Charge =  1 Multiplicity = 2

                         Standard orientation:
 ---------------------------------------------------------------------
 Center     Atomic      Atomic             Coordinates (Angstroms)
 Number     Number       Type             X           Y           Z
 ---------------------------------------------------------------------
      1          6           0       -0.985378   -0.402329   -0.000041
      2          6           0        2.538747   -0.195919   -0.000025
      3          8           0       -2.244541   -0.123111    0.000066
      4          6           0        1.362593    0.140125   -0.000160
      5          6           0        0.051642    0.543105   -0.000018
      6          1           0       -0.783721   -1.469978   -0.000163
      7          1           0       -2.456839    0.828335    0.000174
      8          1           0        3.567233   -0.491373    0.000829
      9          1           0       -0.175971    1.608008    0.000096
 ---------------------------------------------------------------------

 SCF Done:  E(UB3LYP) =  -229.723501753     A.U. after   16 cycles

 The electronic state is 2-A.
 Alpha  occ. eigenvalues --  -19.43639 -10.52016 -10.45439 -10.43144 -10.42014
 Alpha  occ. eigenvalues --   -1.35626  -1.05895  -0.98242  -0.90930  -0.80495
 Alpha  occ. eigenvalues --   -0.77011  -0.73930  -0.68356  -0.67761  -0.62219
 Alpha  occ. eigenvalues --   -0.57991  -0.51542  -0.47787
 Alpha virt. eigenvalues --   -0.27665  -0.20050  -0.17722  -0.14079  -0.13723
 Alpha virt. eigenvalues --   -0.12998  -0.10667  -0.09502  -0.08217  -0.07235
 Alpha virt. eigenvalues --   -0.06262  -0.04961  -0.04612  -0.03764  -0.02884

  Beta  occ. eigenvalues --  -19.43202 -10.51780 -10.44984 -10.42431 -10.42077
  Beta  occ. eigenvalues --   -1.34785  -1.04719  -0.96403  -0.90266  -0.79864
  Beta  occ. eigenvalues --   -0.76588  -0.73318  -0.67508  -0.65721  -0.61740
  Beta  occ. eigenvalues --   -0.54612  -0.50980
  Beta virt. eigenvalues --   -0.38624  -0.24371  -0.19748  -0.17563  -0.13991
  Beta virt. eigenvalues --   -0.12841  -0.11941  -0.10442  -0.08964  -0.08026
  Beta virt. eigenvalues --   -0.07085  -0.06085  -0.04508  -0.04408  -0.03233

 Mulliken charges and spin densities:
               1          2
     1  C   -0.236241   0.162745
     2  C   -0.168792   0.493974
     3  O   -0.009761   0.138411
     4  C    0.570523  -0.092788
     5  C   -0.229096   0.343187
     6  H    0.250514  -0.008149
     7  H    0.314739  -0.004416
     8  H    0.258351  -0.017968
     9  H    0.249763  -0.014996
 Sum of Mulliken charges =   1.00000   1.00000

 Dipole moment (field-independent basis, Debye):
    X=              0.6578    Y=              0.9430    Z=              0.0009  Tot=              1.1498
 Quadrupole moment (field-independent basis, Debye-Ang):
   XX=             -4.0422   YY=            -21.8561   ZZ=            -28.0129
   XY=             -5.9694   XZ=              0.0026   YZ=              0.0002

  Exact polarizability:  97.625  -4.486  34.507  -0.002   0.004  23.159
 Approx polarizability: 161.872 -10.543  49.154  -0.005   0.001  31.596

                      1                      2                      3
                      A                      A                      A
 Frequencies --    153.5176               167.6876               415.8833
 Red. masses --      2.9858                 4.2119                 3.4232
 Frc consts  --      0.0415                 0.0698                 0.3488
 IR Inten    --      5.1977                 3.0479                10.6835

                      4                      5                      6
                      A                      A                      A
 Frequencies --    433.8646               547.6395               646.5929
 Red. masses --      3.7472                 6.3808                 1.2956
 Frc consts  --      0.4156                 1.1275                 0.3192
 IR Inten    --     20.1482                 5.0545                76.6741

                      7                      8                      9
                      A                      A                      A
 Frequencies --    711.8957               718.6896               851.5205
 Red. masses --      1.2470                 1.3604                 1.5885
 Frc consts  --      0.3724                 0.4140                 0.6786
 IR Inten    --     45.5251                16.3638                65.9107

                     10                     11                     12
                      A                      A                      A
 Frequencies --   1020.5011              1085.9312              1165.0425
 Red. masses --      1.2660                 2.8588                 1.3829
 Frc consts  --      0.7768                 1.9863                 1.1059
 IR Inten    --     43.7857                27.2261                69.3747

                     13                     14                     15
                      A                      A                      A
 Frequencies --   1290.4937              1367.7490              1402.9048
 Red. masses --      1.5959                 2.4534                 1.5222
 Frc consts  --      1.5659                 2.7041                 1.7651
 IR Inten    --    146.7147                91.6640                 8.9427

                     16                     17                     18
                      A                      A                      A
 Frequencies --   1594.0243              2101.5136              3139.0389
 Red. masses --      3.6902                 6.5963                 1.0906
 Frc consts  --      5.5244                17.1639                 6.3314
 IR Inten    --    423.9591               146.9959                13.4539

                     19                     20                     21
                      A                      A                      A
 Frequencies --   3191.9399              3404.2701              3684.3614
 Red. masses --      1.0952                 1.1506                 1.0665
 Frc consts  --      6.5742                 7.8565                 8.5299
 IR Inten    --     12.3799               129.9654               264.3370

 - Thermochemistry -
 -------------------
 Temperature   298.150 Kelvin.  Pressure   1.00000 Atm.
 Atom     1 has atomic number  6 and mass  12.00000

 Molecular mass:    68.02621 amu.
 Principal axes and moments of inertia in atomic units:
                           1         2         3
     Eigenvalues --    43.18809 755.23793 798.42601
           X            0.99989  -0.01451   0.00001
           Y            0.01451   0.99989   0.00001
           Z           -0.00001  -0.00001   1.00000
 This molecule is an asymmetric top.
 Rotational symmetry number  1.
 Rotational temperatures (Kelvin)      2.00550     0.11468     0.10848
 Rotational constants (GHZ):          41.78794     2.38963     2.26037
 Zero-point vibrational energy     174027.1 (Joules/Mol)
                                   41.59348 (Kcal/Mol)
 Warning -- explicit consideration of   5 degrees of freedom as
           vibrations may cause significant error
 Vibrational temperatures:    220.88   241.26   598.36   624.23   787.93
          (Kelvin)            930.30  1024.26  1034.03  1225.15  1468.27
                             1562.41  1676.23  1856.73  1967.88  2018.46
                             2293.44  3023.61  4516.37  4592.48  4897.98
                             5300.97

 Zero-point correction=                           0.066283 (Hartree/Particle)
 Thermal correction to Energy=                    0.071655
 Thermal correction to Enthalpy=                  0.072599
 Thermal correction to Gibbs Free Energy=         0.037674
 Sum of electronic and zero-point Energies=           -229.657218
 Sum of electronic and thermal Energies=              -229.651847
 Sum of electronic and thermal Enthalpies=            -229.650903
 Sum of electronic and thermal Free Energies=         -229.685827

                     E (Thermal)             CV                S
                      KCal/Mol        Cal/Mol-Kelvin    Cal/Mol-Kelvin
 Total                   44.964             18.139             73.504
 Electronic               0.000              0.000              1.377
 Translational            0.889              2.981             38.570
 Rotational               0.889              2.981             24.769
 Vibrational             43.186             12.177              8.788
 Vibration     1          0.619              1.899              2.628
 Vibration     2          0.624              1.882              2.461
 Vibration     3          0.779              1.436              0.906
 Vibration     4          0.795              1.396              0.846
 Vibration     5          0.903              1.145              0.549

 Optimization completed.
    -- Stationary point found.
 Normal termination of Gaussian 09 at Thu Jan 24 16:16:57 2019.
