 Gaussian 09, Revision D.01,
 Gaussian 09:  ES64L-G09RevD.01 24-Apr-2013

 ---------------------------
 #p b3lyp/6-311++g(d,p) freq
 ---------------------------

 ---
 min
 ---
 Symbolic Z-matrix:
 Charge =  0 Multiplicity = 1

                         Standard orientation:
 ---------------------------------------------------------------------
 Center     Atomic      Atomic             Coordinates (Angstroms)
 Number     Number       Type             X           Y           Z
 ---------------------------------------------------------------------
      1          6           0        2.370513   -0.499354    0.000000
      2          6           0       -1.215105   -0.243427    0.000000
      3          8           0       -2.339264    0.204407    0.000000
      4          6           0        0.000000    0.597481    0.000000
      5          6           0        1.199055    0.062619    0.000000
      6          1           0        2.879275   -0.739001    0.928806
      7          1           0       -1.028304   -1.335739    0.000000
      8          1           0       -0.142918    1.674574    0.000000
      9          1           0        2.879275   -0.739001   -0.928806
 ---------------------------------------------------------------------

 SCF Done:  E(RB3LYP) =  -230.054426204     A.U. after   13 cycles

 The electronic state is 1-A'.
 Alpha  occ. eigenvalues --  -19.12920 -10.27273 -10.23080 -10.20931 -10.20767
 Alpha  occ. eigenvalues --   -1.05929  -0.83701  -0.75708  -0.61962  -0.55993
 Alpha  occ. eigenvalues --   -0.50542  -0.47929  -0.46816  -0.44002  -0.41151
 Alpha  occ. eigenvalues --   -0.31424  -0.29968  -0.27032
 Alpha virt. eigenvalues --   -0.07382  -0.02882  -0.01231   0.01573   0.01712
 Alpha virt. eigenvalues --    0.01749   0.02807   0.05231   0.06402   0.07241
 Alpha virt. eigenvalues --    0.07252   0.10214   0.10507   0.11041   0.12104

 Mulliken charges:
               1
     1  C   -0.472171
     2  C   -0.145474
     3  O   -0.253922
     4  C   -0.335081
     5  C    0.593572
     6  H    0.149061
     7  H    0.107328
     8  H    0.207626
     9  H    0.149061
 Sum of Mulliken charges =  -0.00000

 Dipole moment (field-independent basis, Debye):
    X=              3.7898    Y=             -0.8036    Z=              0.0000  Tot=              3.8740
 Quadrupole moment (field-independent basis, Debye-Ang):
   XX=            -34.2632   YY=            -28.5108   ZZ=            -28.9934
   XY=             -0.2614   XZ=             -0.0000   YZ=              0.0000

  Exact polarizability:  90.807 -13.866  43.732   0.000  -0.000  30.960
 Approx polarizability: 143.057 -29.313  62.078  -0.000   0.000  42.093

                      1                      2                      3
                     A"                     A'                     A"
 Frequencies --    129.6879               166.3131               387.6019
 Red. masses --      3.4166                 4.3145                 2.3107
 Frc consts  --      0.0339                 0.0703                 0.2045
 IR Inten    --      5.3857                 0.8205                 9.9082

                      4                      5                      6
                     A'                     A"                     A'
 Frequencies --    476.0531               541.5051               558.6297
 Red. masses --      4.5807                 1.2278                 7.4953
 Frc consts  --      0.6116                 0.2121                 1.3781
 IR Inten    --     37.3091                 5.2006                 8.1484

                      7                      8                      9
                     A'                     A"                     A"
 Frequencies --    881.6356               907.8487               996.9310
 Red. masses --      1.3129                 1.1331                 1.5825
 Frc consts  --      0.6013                 0.5502                 0.9267
 IR Inten    --     58.6760                27.4777                 0.0335

                     10                     11                     12
                     A"                     A'                     A'
 Frequencies --   1017.8919              1072.1457              1122.1245
 Red. masses --      1.7422                 3.7374                 1.8620
 Frc consts  --      1.0635                 2.5312                 1.3814
 IR Inten    --      0.0688                43.8305                70.0003

                     13                     14                     15
                     A'                     A'                     A'
 Frequencies --   1299.5049              1410.2474              1458.9907
 Red. masses --      1.5357                 1.1623                 1.5392
 Frc consts  --      1.5280                 1.3620                 1.9305
 IR Inten    --      2.4916                 0.5713                 2.5974

                     16                     17                     18
                     A'                     A'                     A'
 Frequencies --   1759.1568              2023.3606              2914.7930
 Red. masses --      9.7175                 9.9468                 1.0849
 Frc consts  --     17.7179                23.9928                 5.4306
 IR Inten    --    417.3225               142.9217                72.8954

                     19                     20                     21
                     A'                     A'                     A"
 Frequencies --   3121.4845              3154.5731              3197.1257
 Red. masses --      1.0590                 1.0897                 1.1145
 Frc consts  --      6.0796                 6.3892                 6.7118
 IR Inten    --      0.8588                 0.0373                 0.2225

 - Thermochemistry -
 -------------------
 Temperature   298.150 Kelvin.  Pressure   1.00000 Atm.
 Atom     1 has atomic number  6 and mass  12.00000

 Molecular mass:    68.02621 amu.
 Principal axes and moments of inertia in atomic units:
                           1         2         3
     Eigenvalues --    49.99518 754.59904 792.17504
           X            0.99454   0.10433   0.00000
           Y           -0.10433   0.99454   0.00000
           Z           -0.00000   0.00000   1.00000
 This molecule is an asymmetric top.
 Rotational symmetry number  1.
 Rotational temperatures (Kelvin)      1.73244     0.11478     0.10934
 Rotational constants (GHZ):          36.09831     2.39166     2.27821
 Zero-point vibrational energy     171051.7 (Joules/Mol)
                                   40.88233 (Kcal/Mol)
 Warning -- explicit consideration of   6 degrees of freedom as
           vibrations may cause significant error
 Vibrational temperatures:    186.59   239.29   557.67   684.93   779.10
          (Kelvin)            803.74  1268.48  1306.19  1434.36  1464.52
                             1542.58  1614.48  1869.70  2029.03  2099.16
                             2531.03  2911.16  4193.73  4491.11  4538.72
                             4599.95

 Zero-point correction=                           0.065150 (Hartree/Particle)
 Thermal correction to Energy=                    0.070480
 Thermal correction to Enthalpy=                  0.071424
 Thermal correction to Gibbs Free Energy=         0.037034
 Sum of electronic and zero-point Energies=           -229.989276
 Sum of electronic and thermal Energies=              -229.983946
 Sum of electronic and thermal Enthalpies=            -229.983002
 Sum of electronic and thermal Free Energies=         -230.017392

                     E (Thermal)             CV                S
                      KCal/Mol        Cal/Mol-Kelvin    Cal/Mol-Kelvin
 Total                   44.227             17.546             72.379
 Electronic               0.000              0.000              0.000
 Translational            0.889              2.981             38.570
 Rotational               0.889              2.981             24.906
 Vibrational             42.449             11.584              8.904
 Vibration     1          0.612              1.924              2.951
 Vibration     2          0.624              1.884              2.477
 Vibration     3          0.756              1.497              1.009
 Vibration     4          0.833              1.303              0.721
 Vibration     5          0.897              1.158              0.562
 Vibration     6          0.914              1.121              0.527

 Optimization completed.
    -- Stationary point found.
 Normal termination of Gaussian 09 at Sun Mar  4 21:21:28 2018.
