 Gaussian 09, Revision D.01,
 Gaussian 09:  ES64L-G09RevD.01 24-Apr-2013

 ---------------------------
 #p b3lyp/6-311++g(d,p) freq
 ---------------------------

 ---
 min
 ---
 Symbolic Z-matrix:
 Charge =  1 Multiplicity = 2

                         Standard orientation:
 ---------------------------------------------------------------------
 Center     Atomic      Atomic             Coordinates (Angstroms)
 Number     Number       Type             X           Y           Z
 ---------------------------------------------------------------------
      1          6           0        1.309723    1.064652    0.000000
      2          1           0        1.513718    2.130494    0.000000
      3          1           0        2.156368    0.384935    0.000000
      4          6           0       -0.000000    0.598936    0.000000
      5          1           0       -0.820414    1.310172    0.000000
      6          6           0       -1.565690   -1.259790   -0.000000
      7          6           0       -0.298871   -0.781725   -0.000000
      8          1           0        0.479359   -1.558042   -0.000000
 ---------------------------------------------------------------------

 SCF Done:  E(UB3LYP) =  -154.362313987     A.U. after   18 cycles

 The electronic state is 2-A".
 Alpha  occ. eigenvalues --  -10.53138 -10.48039 -10.47432 -10.45896  -1.10267
 Alpha  occ. eigenvalues --   -1.01732  -0.86672  -0.80223  -0.72556  -0.69382
 Alpha  occ. eigenvalues --   -0.63838  -0.61873  -0.55140  -0.52448
 Alpha virt. eigenvalues --   -0.36084  -0.32025  -0.20636  -0.15656  -0.15121
 Alpha virt. eigenvalues --   -0.12789  -0.10265  -0.09955  -0.08960  -0.07711
 Alpha virt. eigenvalues --   -0.05702  -0.05689  -0.04166  -0.03879  -0.03254

  Beta  occ. eigenvalues --  -10.52565 -10.47917 -10.46726 -10.45767  -1.09177
  Beta  occ. eigenvalues --   -0.99567  -0.85545  -0.79826  -0.72141  -0.68686
  Beta  occ. eigenvalues --   -0.63577  -0.58598  -0.54208
  Beta virt. eigenvalues --   -0.42606  -0.35370  -0.27525  -0.18502  -0.15524
  Beta virt. eigenvalues --   -0.15068  -0.12569  -0.09841  -0.09819  -0.08863
  Beta virt. eigenvalues --   -0.07604  -0.05565  -0.05292  -0.03798  -0.03497

 Mulliken charges and spin densities:
               1          2
     1  C   -0.268181   0.518610
     2  H    0.245278  -0.024653
     3  H    0.217876  -0.023570
     4  C    0.152957   0.060061
     5  H    0.256298  -0.005458
     6  C    0.248265   0.350288
     7  C   -0.127155   0.131464
     8  H    0.274662  -0.006741
 Sum of Mulliken charges =   1.00000   1.00000

 Dipole moment (field-independent basis, Debye):
    X=              2.2008    Y=              0.9073    Z=              0.0000  Tot=              2.3804
 Quadrupole moment (field-independent basis, Debye-Ang):
   XX=            -16.2614   YY=            -12.8428   ZZ=            -23.2410
   XY=              1.9616   XZ=             -0.0000   YZ=              0.0000

  Exact polarizability:  58.236  21.120  54.421  -0.000  -0.000  24.651
 Approx polarizability:  94.333  37.963  85.356   0.000   0.000  33.859

                      1                      2                      3
                     A"                     A'                     A'
 Frequencies --    183.3715               188.9860               431.2119
 Red. masses --      4.4648                 5.4676                 2.6941
 Frc consts  --      0.0885                 0.1151                 0.2951
 IR Inten    --      1.7878                 8.9439                 1.7021

                      4                      5                      6
                     A"                     A"                     A"
 Frequencies --    439.5491               757.0683               962.9947
 Red. masses --      1.1322                 1.4876                 1.1392
 Frc consts  --      0.1289                 0.5024                 0.6224
 IR Inten    --      7.4757                 2.9872                57.6871

                      7                      8                      9
                     A'                     A'                     A"
 Frequencies --    966.6858               996.7612              1046.7849
 Red. masses --      1.5941                 1.3620                 1.4533
 Frc consts  --      0.8777                 0.7973                 0.9383
 IR Inten    --      0.2361                 0.3107                14.3849

                     10                     11                     12
                     A'                     A'                     A'
 Frequencies --   1220.9239              1282.9858              1403.0767
 Red. masses --      2.1231                 1.9032                 1.8360
 Frc consts  --      1.8646                 1.8458                 2.1296
 IR Inten    --      4.2505                68.9326               158.8667

                     13                     14                     15
                     A'                     A'                     A'
 Frequencies --   1503.7249              1617.0508              3047.1138
 Red. masses --      1.3994                 4.4467                 1.0839
 Frc consts  --      1.8644                 6.8507                 5.9296
 IR Inten    --     33.1155                72.0862                57.5862

                     16                     17                     18
                     A'                     A'                     A'
 Frequencies --   3140.7699              3181.4248              3250.5967
 Red. masses --      1.0562                 1.0933                 1.1215
 Frc consts  --      6.1383                 6.5199                 6.9817
 IR Inten    --     17.7185                12.3240                13.5811

 - Thermochemistry -
 -------------------
 Temperature   298.150 Kelvin.  Pressure   1.00000 Atm.
 Atom     1 has atomic number  6 and mass  12.00000

 Molecular mass:    52.03130 amu.
 Principal axes and moments of inertia in atomic units:
                           1         2         3
     Eigenvalues --    37.58760 361.85879 399.44639
           X            0.72889  -0.68463   0.00000
           Y            0.68463   0.72889   0.00000
           Z            0.00000  -0.00000   1.00000
 This molecule is an asymmetric top.
 Rotational symmetry number  1.
 Rotational temperatures (Kelvin)      2.30432     0.23936     0.21683
 Rotational constants (GHZ):          48.01427     4.98742     4.51811
 Zero-point vibrational energy     153248.1 (Joules/Mol)
                                   36.62717 (Kcal/Mol)
 Warning -- explicit consideration of   4 degrees of freedom as
           vibrations may cause significant error
 Vibrational temperatures:    263.83   271.91   620.42   632.41  1089.25
          (Kelvin)           1385.53  1390.84  1434.12  1506.09  1756.63
                             1845.93  2018.71  2163.52  2326.57  4384.11
                             4518.86  4577.35  4676.88

 Zero-point correction=                           0.058369 (Hartree/Particle)
 Thermal correction to Energy=                    0.063207
 Thermal correction to Enthalpy=                  0.064151
 Thermal correction to Gibbs Free Energy=         0.031219
 Sum of electronic and zero-point Energies=           -154.303945
 Sum of electronic and thermal Energies=              -154.299107
 Sum of electronic and thermal Enthalpies=            -154.298163
 Sum of electronic and thermal Free Energies=         -154.331095

                     E (Thermal)             CV                S
                      KCal/Mol        Cal/Mol-Kelvin    Cal/Mol-Kelvin
 Total                   39.663             15.310             69.311
 Electronic               0.000              0.000              1.377
 Translational            0.889              2.981             37.771
 Rotational               0.889              2.981             23.212
 Vibrational             37.885              9.349              6.951
 Vibration     1          0.631              1.862              2.294
 Vibration     2          0.633              1.855              2.238
 Vibration     3          0.792              1.402              0.855
 Vibration     4          0.800              1.384              0.828

 Normal termination of Gaussian 09 at Thu Jan 24 16:01:27 2019.
