 Gaussian 09, Revision D.01,
 Gaussian 09:  ES64L-G09RevD.01 24-Apr-2013

 ---------------------------
 #p b3lyp/6-311++g(d,p) freq
 ---------------------------

 ---
 min
 ---
 Symbolic Z-matrix:
 Charge =  0 Multiplicity = 1

                         Standard orientation:
 ---------------------------------------------------------------------
 Center     Atomic      Atomic             Coordinates (Angstroms)
 Number     Number       Type             X           Y           Z
 ---------------------------------------------------------------------
      1          8           0       -1.539999    2.075536    0.000000
      2          6           0        1.690241   -1.682630    0.000000
      3          6           0        0.303665   -1.126294    0.000000
      4          6           0        0.000000    0.167445    0.000000
      5          6           0       -0.877196    1.110358    0.000000
      6          1           0        1.836779   -2.325114    0.876680
      7          1           0        1.836779   -2.325114   -0.876680
      8          1           0        2.442217   -0.894455    0.000000
      9          1           0       -0.496045   -1.872879    0.000000
 ---------------------------------------------------------------------

 SCF Done:  E(RB3LYP) =  -230.052234101     A.U. after   13 cycles

 The electronic state is 1-A'.
 Alpha  occ. eigenvalues --  -19.17963 -10.28673 -10.23942 -10.19104 -10.18075
 Alpha  occ. eigenvalues --   -1.10960  -0.82933  -0.75305  -0.65299  -0.52715
 Alpha  occ. eigenvalues --   -0.50499  -0.45763  -0.45332  -0.43783  -0.42789
 Alpha  occ. eigenvalues --   -0.40271  -0.29968  -0.23829
 Alpha virt. eigenvalues --   -0.09812  -0.02045   0.00704   0.01801   0.02422
 Alpha virt. eigenvalues --    0.03949   0.05215   0.06108   0.06538   0.06879
 Alpha virt. eigenvalues --    0.07008   0.08891   0.10388   0.11712   0.12048

 Mulliken charges:
               1
     1  O   -0.190229
     2  C   -0.462231
     3  C    0.009250
     4  C    0.718638
     5  C   -0.706273
     6  H    0.151123
     7  H    0.151123
     8  H    0.163043
     9  H    0.165555
 Sum of Mulliken charges =  -0.00000

 Dipole moment (field-independent basis, Debye):
    X=              1.3046    Y=             -3.2407    Z=              0.0000  Tot=              3.4935
 Quadrupole moment (field-independent basis, Debye-Ang):
   XX=            -30.3454   YY=            -30.5369   ZZ=            -29.3456
   XY=              1.2701   XZ=              0.0000   YZ=             -0.0000

  Exact polarizability:  57.508 -27.746  78.778  -0.000   0.000  31.805
 Approx polarizability:  90.709 -57.621 140.106   0.000  -0.000  43.404

                      1                      2                      3
                     A'                     A"                     A"
 Frequencies --     98.3511               133.5772               190.8753
 Red. masses --      5.1295                 1.8115                 2.2677
 Frc consts  --      0.0292                 0.0190                 0.0487
 IR Inten    --      7.4540                 0.4283                 0.5968

                      4                      5                      6
                     A'                     A'                     A"
 Frequencies --    430.5932               509.7176               619.3036
 Red. masses --      3.4479                11.5794                 5.0534
 Frc consts  --      0.3766                 1.7725                 1.1419
 IR Inten    --     22.2333                12.2803                29.8926

                      7                      8                      9
                     A'                     A"                     A"
 Frequencies --    814.0366               814.3263              1063.0568
 Red. masses --      2.5588                 1.3561                 1.6473
 Frc consts  --      0.9990                 0.5298                 1.0968
 IR Inten    --     18.4348                 2.8958                 0.2393

                     10                     11                     12
                     A'                     A'                     A'
 Frequencies --   1084.0889              1125.3329              1357.2425
 Red. masses --      2.1881                 2.5261                 1.3210
 Frc consts  --      1.5151                 1.8848                 1.4337
 IR Inten    --     12.0852                25.3410                49.8186

                     13                     14                     15
                     A'                     A'                     A"
 Frequencies --   1394.9554              1473.0661              1473.2638
 Red. masses --      1.2430                 1.0778                 1.0453
 Frc consts  --      1.4251                 1.3779                 1.3367
 IR Inten    --     20.5661                13.5554                10.5653

                     16                     17                     18
                     A'                     A'                     A'
 Frequencies --   1774.3746              2236.0149              3010.3006
 Red. masses --      9.6046                12.2619                 1.0394
 Frc consts  --     17.8164                36.1207                 5.5493
 IR Inten    --      7.5784              1439.2127                 5.8886

                     19                     20                     21
                     A"                     A'                     A'
 Frequencies --   3052.5896              3053.9711              3131.7626
 Red. masses --      1.0972                 1.0864                 1.0998
 Frc consts  --      6.0239                 5.9697                 6.3553
 IR Inten    --      8.6953                29.0444                11.7279

 - Thermochemistry -
 -------------------
 Temperature   298.150 Kelvin.  Pressure   1.00000 Atm.
 Atom     1 has atomic number  8 and mass  15.99491

 Molecular mass:    68.02621 amu.
 Principal axes and moments of inertia in atomic units:
                           1         2         3
     Eigenvalues --    34.16779 844.08344 867.18690
           X           -0.61986   0.78471   0.00000
           Y            0.78471   0.61986   0.00000
           Z           -0.00000  -0.00000   1.00000
 This molecule is an asymmetric top.
 Rotational symmetry number  1.
 Rotational temperatures (Kelvin)      2.53496     0.10261     0.09988
 Rotational constants (GHZ):          52.81996     2.13811     2.08114
 Zero-point vibrational energy     172506.3 (Joules/Mol)
                                   41.22999 (Kcal/Mol)
 Warning -- explicit consideration of   6 degrees of freedom as
           vibrations may cause significant error
 Vibrational temperatures:    141.51   192.19   274.63   619.53   733.37
          (Kelvin)            891.04  1171.22  1171.63  1529.50  1559.76
                             1619.10  1952.77  2007.03  2119.41  2119.70
                             2552.93  3217.12  4331.15  4391.99  4393.98
                             4505.90

 Zero-point correction=                           0.065704 (Hartree/Particle)
 Thermal correction to Energy=                    0.071425
 Thermal correction to Enthalpy=                  0.072370
 Thermal correction to Gibbs Free Energy=         0.036989
 Sum of electronic and zero-point Energies=           -229.986530
 Sum of electronic and thermal Energies=              -229.980809
 Sum of electronic and thermal Enthalpies=            -229.979864
 Sum of electronic and thermal Free Energies=         -230.015245

                     E (Thermal)             CV                S
                      KCal/Mol        Cal/Mol-Kelvin    Cal/Mol-Kelvin
 Total                   44.820             17.856             74.465
 Electronic               0.000              0.000              0.000
 Translational            0.889              2.981             38.570
 Rotational               0.889              2.981             24.729
 Vibrational             43.043             11.895             11.166
 Vibration     1          0.604              1.950              3.487
 Vibration     2          0.613              1.920              2.894
 Vibration     3          0.634              1.852              2.219
 Vibration     4          0.792              1.404              0.857
 Vibration     5          0.865              1.228              0.634
 Vibration     6          0.979              0.991              0.418

 Optimization completed.
    -- Stationary point found.
 Normal termination of Gaussian 09 at Sun Mar  4 21:21:56 2018.
