 Gaussian 09, Revision D.01,
 Gaussian 09:  ES64L-G09RevD.01 24-Apr-2013

 ---------------------------
 #p b3lyp/6-311++g(d,p) freq
 ---------------------------

 ---
 min
 ---
 Symbolic Z-matrix:
 Charge =  1 Multiplicity = 2

                         Standard orientation:
 ---------------------------------------------------------------------
 Center     Atomic      Atomic             Coordinates (Angstroms)
 Number     Number       Type             X           Y           Z
 ---------------------------------------------------------------------
      1          8           0        2.067730   -0.473173   -0.000000
      2          6           0       -1.656273   -0.917337    0.000000
      3          6           0        1.126483    0.151994   -0.000000
      4          6           0       -1.307233    0.421537    0.000000
      5          6           0       -0.000000    0.933605   -0.000000
      6          1           0       -2.700170   -1.206645    0.000000
      7          1           0       -0.922498   -1.717738    0.000000
      8          1           0       -2.095415    1.167468   -0.000000
      9          1           0        0.198379    2.003499   -0.000000
 ---------------------------------------------------------------------

 SCF Done:  E(UB3LYP) =  -229.764034701     A.U. after   15 cycles

 The electronic state is 2-A".
 Alpha  occ. eigenvalues --  -19.47507 -10.57196 -10.46695 -10.44554 -10.43510
 Alpha  occ. eigenvalues --   -1.41195  -1.08790  -0.98828  -0.86326  -0.78370
 Alpha  occ. eigenvalues --   -0.76215  -0.73418  -0.72902  -0.69744  -0.64790
 Alpha  occ. eigenvalues --   -0.61292  -0.58348  -0.47773
 Alpha virt. eigenvalues --   -0.28946  -0.27880  -0.17126  -0.15791  -0.13918
 Alpha virt. eigenvalues --   -0.12993  -0.09976  -0.09739  -0.08616  -0.07823
 Alpha virt. eigenvalues --   -0.05876  -0.05736  -0.04886  -0.04574  -0.02926

  Beta  occ. eigenvalues --  -19.47125 -10.57118 -10.46205 -10.44613 -10.42706
  Beta  occ. eigenvalues --   -1.40581  -1.07596  -0.96948  -0.85470  -0.77778
  Beta  occ. eigenvalues --   -0.75848  -0.72318  -0.71426  -0.69405  -0.64288
  Beta  occ. eigenvalues --   -0.60959  -0.55131
  Beta virt. eigenvalues --   -0.38215  -0.28722  -0.24878  -0.16906  -0.13853
  Beta virt. eigenvalues --   -0.13318  -0.12786  -0.09552  -0.09462  -0.08552
  Beta virt. eigenvalues --   -0.07658  -0.05598  -0.05462  -0.04801  -0.04158

 Mulliken charges and spin densities:
               1          2
     1  O    0.021807   0.133793
     2  C   -0.227725   0.595265
     3  C   -0.066637   0.039374
     4  C   -0.001813  -0.053938
     5  C    0.309808   0.361144
     6  H    0.215692  -0.027785
     7  H    0.184212  -0.029720
     8  H    0.264249   0.000686
     9  H    0.300408  -0.018821
 Sum of Mulliken charges =   1.00000   1.00000

 Dipole moment (field-independent basis, Debye):
    X=             -1.8622    Y=              0.9331    Z=             -0.0000  Tot=              2.0829
 Quadrupole moment (field-independent basis, Debye-Ang):
   XX=            -15.1768   YY=            -18.9394   ZZ=            -28.0112
   XY=              2.7607   XZ=             -0.0000   YZ=              0.0000

  Exact polarizability:  71.647   4.937  45.850   0.001  -0.001  23.470
 Approx polarizability: 114.025   2.142  71.169  -0.000  -0.000  32.364

                      1                      2                      3
                     A'                     A"                     A'
 Frequencies --    150.3520               210.3683               420.4803
 Red. masses --      5.1050                 1.9895                 3.6533
 Frc consts  --      0.0680                 0.0519                 0.3806
 IR Inten    --      3.1065                 1.0478                 0.8877

                      4                      5                      6
                     A"                     A"                     A'
 Frequencies --    483.2103               527.8647               680.4128
 Red. masses --      1.2959                 3.5365                 3.9819
 Frc consts  --      0.1783                 0.5806                 1.0861
 IR Inten    --     15.3962                 0.0015                 3.1002

                      7                      8                      9
                     A"                     A'                     A"
 Frequencies --    729.2971               955.7503               968.3625
 Red. masses --      1.5186                 4.9553                 1.2170
 Frc consts  --      0.4759                 2.6669                 0.6724
 IR Inten    --     50.5433                 1.4353                34.0959

                     10                     11                     12
                     A"                     A'                     A'
 Frequencies --   1004.2325              1040.2050              1153.1073
 Red. masses --      1.4059                 1.5395                 1.4699
 Frc consts  --      0.8354                 0.9814                 1.1515
 IR Inten    --      0.0464                 3.9923                 4.4259

                     13                     14                     15
                     A'                     A'                     A'
 Frequencies --   1295.1670              1418.7862              1480.2781
 Red. masses --      1.5628                 1.6829                 2.0383
 Frc consts  --      1.5445                 1.9959                 2.6316
 IR Inten    --      7.3063                64.7536                17.4886

                     16                     17                     18
                     A'                     A'                     A'
 Frequencies --   1545.6892              2280.9304              3142.2668
 Red. masses --      1.8320                13.0021                 1.0578
 Frc consts  --      2.5788                39.8554                 6.1536
 IR Inten    --     17.8200               618.8606                 9.8077

                     19                     20                     21
                     A'                     A'                     A'
 Frequencies --   3154.2828              3186.7428              3249.9424
 Red. masses --      1.0872                 1.0926                 1.1186
 Frc consts  --      6.3732                 6.5373                 6.9611
 IR Inten    --     57.9644                13.4185                 8.6081

 - Thermochemistry -
 -------------------
 Temperature   298.150 Kelvin.  Pressure   1.00000 Atm.
 Atom     1 has atomic number  8 and mass  15.99491

 Molecular mass:    68.02621 amu.
 Principal axes and moments of inertia in atomic units:
                           1         2         3
     Eigenvalues --   129.99014 533.07742 663.06756
           X            0.99997  -0.00762   0.00000
           Y            0.00762   0.99997   0.00000
           Z            0.00000  -0.00000   1.00000
 This molecule is an asymmetric top.
 Rotational symmetry number  1.
 Rotational temperatures (Kelvin)      0.66631     0.16248     0.13063
 Rotational constants (GHZ):          13.88368     3.38551     2.72181
 Zero-point vibrational energy     173923.4 (Joules/Mol)
                                   41.56870 (Kcal/Mol)
 Warning -- explicit consideration of   5 degrees of freedom as
           vibrations may cause significant error
 Vibrational temperatures:    216.32   302.67   604.98   695.23   759.48
          (Kelvin)            978.96  1049.29  1375.11  1393.26  1444.86
                             1496.62  1659.06  1863.45  2041.31  2129.79
                             2223.90  3281.75  4521.02  4538.30  4585.01
                             4675.94

 Zero-point correction=                           0.066244 (Hartree/Particle)
 Thermal correction to Energy=                    0.071418
 Thermal correction to Enthalpy=                  0.072362
 Thermal correction to Gibbs Free Energy=         0.037544
 Sum of electronic and zero-point Energies=           -229.697791
 Sum of electronic and thermal Energies=              -229.692616
 Sum of electronic and thermal Enthalpies=            -229.691672
 Sum of electronic and thermal Free Energies=         -229.726491

                     E (Thermal)             CV                S
                      KCal/Mol        Cal/Mol-Kelvin    Cal/Mol-Kelvin
 Total                   44.816             17.417             73.283
 Electronic               0.000              0.000              1.377
 Translational            0.889              2.981             38.570
 Rotational               0.889              2.981             25.333
 Vibrational             43.038             11.455              8.002
 Vibration     1          0.618              1.902              2.668
 Vibration     2          0.643              1.825              2.040
 Vibration     3          0.783              1.426              0.890
 Vibration     4          0.839              1.287              0.701
 Vibration     5          0.883              1.188              0.592

 Optimization completed.
    -- Stationary point found.
 Normal termination of Gaussian 09 at Thu Jan 24 16:21:35 2019.
