 Gaussian 09, Revision D.01,
 Gaussian 09:  ES64L-G09RevD.01 24-Apr-2013

 ---------------------------
 #p b3lyp/6-311++g(d,p) freq
 ---------------------------

 ---
 min
 ---
 Symbolic Z-matrix:
 Charge =  0 Multiplicity = 3

                         Standard orientation:
 ---------------------------------------------------------------------
 Center     Atomic      Atomic             Coordinates (Angstroms)
 Number     Number       Type             X           Y           Z
 ---------------------------------------------------------------------
      1          6           0       -1.773311    0.063274   -0.164041
      2          1           0       -2.226233    1.018796   -0.381514
      3          6           0       -0.606920   -0.449995    0.129191
      4          1           0       -0.495365   -1.522234    0.290605
      5          6           0        0.676175    0.359109    0.207810
      6          1           0        1.121778    0.252868    1.238897
      7          1           0        0.512248    1.439656    0.067249
      8          6           0        1.885318   -0.170569   -0.375500
 ---------------------------------------------------------------------

 SCF Done:  E(UB3LYP) =  -154.577184991     A.U. after   20 cycles

 The electronic state is 3-A.
 Alpha  occ. eigenvalues --  -10.24395 -10.21923 -10.21457 -10.20874  -0.84581
 Alpha  occ. eigenvalues --   -0.76373  -0.59956  -0.56155  -0.48918  -0.47199
 Alpha  occ. eigenvalues --   -0.42937  -0.32815  -0.29070  -0.26321  -0.21750
 Alpha virt. eigenvalues --   -0.10078  -0.02272  -0.00698   0.00650   0.01522
 Alpha virt. eigenvalues --    0.03432   0.05305   0.06959   0.07385   0.08082
 Alpha virt. eigenvalues --    0.08736   0.10516   0.11233   0.11876   0.12247

  Beta  occ. eigenvalues --  -10.22955 -10.21842 -10.20907 -10.19897  -0.83282
  Beta  occ. eigenvalues --   -0.74018  -0.57590  -0.53651  -0.47607  -0.46321
  Beta  occ. eigenvalues --   -0.41514  -0.30740  -0.27461
  Beta virt. eigenvalues --   -0.11049  -0.07956  -0.06834  -0.01282  -0.00439
  Beta virt. eigenvalues --    0.00783   0.01859   0.03520   0.05596   0.07339
  Beta virt. eigenvalues --    0.07582   0.08704   0.09549   0.10857   0.11710

 Mulliken charges and spin densities:
               1          2
     1  C   -0.232496   1.043583
     2  H    0.153657   0.011021
     3  C    0.068242  -0.118604
     4  H    0.178546   0.045748
     5  C   -0.325331   0.026838
     6  H    0.168945  -0.017278
     7  H    0.175651   0.053704
     8  C   -0.187214   0.954988
 Sum of Mulliken charges =  -0.00000   2.00000

 Dipole moment (field-independent basis, Debye):
    X=             -1.6226    Y=              1.3757    Z=              1.2163  Tot=              2.4505
 Quadrupole moment (field-independent basis, Debye-Ang):
   XX=            -32.8895   YY=            -23.8653   ZZ=            -25.4257
   XY=             -0.0690   XZ=              3.3536   YZ=             -1.0024

  Exact polarizability:  70.235  -5.098  44.015   0.566  -0.360  37.454
 Approx polarizability:  96.625 -12.715  58.002   2.941  -1.167  55.171

                      1                      2                      3
                      A                      A                      A
 Frequencies --     96.3476               297.9958               378.9479
 Red. masses --      3.5756                 2.9681                 1.6256
 Frc consts  --      0.0196                 0.1553                 0.1375
 IR Inten    --     10.3159                13.4227                 9.2740

                      4                      5                      6
                      A                      A                      A
 Frequencies --    498.1433               667.6263               781.1321
 Red. masses --      2.0348                 1.6282                 1.5155
 Frc consts  --      0.2975                 0.4276                 0.5448
 IR Inten    --      2.6638                 6.0341                62.5070

                      7                      8                      9
                      A                      A                      A
 Frequencies --    846.3398               966.7970               978.2604
 Red. masses --      1.1033                 2.6455                 1.7710
 Frc consts  --      0.4656                 1.4569                 0.9985
 IR Inten    --     71.8180                 5.0730                12.4564

                     10                     11                     12
                      A                      A                      A
 Frequencies --   1120.2657              1228.3308              1297.0626
 Red. masses --      1.5660                 1.4568                 1.4100
 Frc consts  --      1.1580                 1.2950                 1.3976
 IR Inten    --     20.6938                11.1435                38.1107

                     13                     14                     15
                      A                      A                      A
 Frequencies --   1303.5227              1654.7819              2781.5811
 Red. masses --      1.2214                 6.6759                 1.0685
 Frc consts  --      1.2228                10.7707                 4.8710
 IR Inten    --      5.7868                 7.7084                31.7172

                     16                     17                     18
                      A                      A                      A
 Frequencies --   2963.2417              3105.0008              3247.6402
 Red. masses --      1.0820                 1.0857                 1.1050
 Frc consts  --      5.5976                 6.1673                 6.8666
 IR Inten    --     18.0295                 4.0416                 1.0452

 - Thermochemistry -
 -------------------
 Temperature   298.150 Kelvin.  Pressure   1.00000 Atm.
 Atom     1 has atomic number  6 and mass  12.00000

 Molecular mass:    52.03130 amu.
 Principal axes and moments of inertia in atomic units:
                           1         2         3
     Eigenvalues --    51.14217 362.49894 382.12920
           X            0.99973  -0.00412   0.02288
           Y            0.00579   0.99729  -0.07329
           Z           -0.02252   0.07340   0.99705
 This molecule is an asymmetric top.
 Rotational symmetry number  1.
 Rotational temperatures (Kelvin)      1.69359     0.23894     0.22666
 Rotational constants (GHZ):          35.28871     4.97861     4.72286
 Zero-point vibrational energy     144826.0 (Joules/Mol)
                                   34.61425 (Kcal/Mol)
 Warning -- explicit consideration of   4 degrees of freedom as
           vibrations may cause significant error
 Vibrational temperatures:    138.62   428.75   545.22   716.72   960.56
          (Kelvin)           1123.87  1217.69  1391.00  1407.50  1611.81
                             1767.29  1866.18  1875.48  2380.86  4002.07
                             4263.44  4467.40  4672.62

 Zero-point correction=                           0.055161 (Hartree/Particle)
 Thermal correction to Energy=                    0.060135
 Thermal correction to Enthalpy=                  0.061080
 Thermal correction to Gibbs Free Energy=         0.027252
 Sum of electronic and zero-point Energies=           -154.522024
 Sum of electronic and thermal Energies=              -154.517050
 Sum of electronic and thermal Enthalpies=            -154.516105
 Sum of electronic and thermal Free Energies=         -154.549933

                     E (Thermal)             CV                S
                      KCal/Mol        Cal/Mol-Kelvin    Cal/Mol-Kelvin
 Total                   37.736             16.119             71.197
 Electronic               0.000              0.000              2.183
 Translational            0.889              2.981             37.771
 Rotational               0.889              2.981             23.475
 Vibrational             35.958             10.157              7.768
 Vibration     1          0.603              1.952              3.527
 Vibration     2          0.691              1.677              1.428
 Vibration     3          0.749              1.515              1.043
 Vibration     4          0.854              1.254              0.663

 Normal termination of Gaussian 09 at Sun Mar  4 21:21:10 2018.
