 Gaussian 09, Revision D.01,
 Gaussian 09:  ES64L-G09RevD.01 24-Apr-2013

 ---------------------------
 #p b3lyp/6-311++g(d,p) freq
 ---------------------------

 ---
 min
 ---
 Symbolic Z-matrix:
 Charge =  0 Multiplicity = 1

                         Standard orientation:
 ---------------------------------------------------------------------
 Center     Atomic      Atomic             Coordinates (Angstroms)
 Number     Number       Type             X           Y           Z
 ---------------------------------------------------------------------
      1          6           0        1.526402    0.056150   -0.000423
      2          1           0        1.908203    1.078083   -0.025528
      3          1           0        1.911695   -0.498276   -0.861435
      4          1           0        1.906198   -0.450339    0.892242
      5          6           0        0.053666   -0.010849   -0.000630
      6          6           0       -1.087997   -0.858247    0.000047
      7          6           0       -1.150264    0.552566    0.000122
      8          1           0       -1.776936    1.432809    0.000029
 ---------------------------------------------------------------------

 SCF Done:  E(RB3LYP) =  -154.726032622     A.U. after   12 cycles

 The electronic state is 1-A.
 Alpha  occ. eigenvalues --  -10.23039 -10.22005 -10.20292 -10.18550  -0.92560
 Alpha  occ. eigenvalues --   -0.76378  -0.58788  -0.52574  -0.47129  -0.45574
 Alpha  occ. eigenvalues --   -0.41531  -0.36258  -0.32338  -0.23061
 Alpha virt. eigenvalues --   -0.02999  -0.01650  -0.01234   0.00698   0.02709
 Alpha virt. eigenvalues --    0.03341   0.04876   0.06267   0.07090   0.07744
 Alpha virt. eigenvalues --    0.09672   0.10236   0.10695   0.11202   0.12332

 Mulliken charges:
               1
     1  C   -0.676951
     2  H    0.162738
     3  H    0.168279
     4  H    0.168366
     5  C    0.405104
     6  C   -0.513447
     7  C    0.121085
     8  H    0.164826
 Sum of Mulliken charges =  -0.00000

 Dipole moment (field-independent basis, Debye):
    X=              2.3232    Y=              3.0554    Z=              0.0067  Tot=              3.8383
 Quadrupole moment (field-independent basis, Debye-Ang):
   XX=            -24.0605   YY=            -27.5475   ZZ=            -24.0907
   XY=             -5.5171   XZ=              0.0123   YZ=             -0.0002

  Exact polarizability:  53.770  -0.499  44.984   0.013   0.006  32.355
 Approx polarizability:  73.826  -3.785  65.107   0.030   0.009  46.816

                      1                      2                      3
                      A                      A                      A
 Frequencies --     57.8697               338.6132               384.7861
 Red. masses --      1.1686                 2.9443                 2.7738
 Frc consts  --      0.0023                 0.1989                 0.2420
 IR Inten    --      9.7502                 9.9020                 0.0462

                      4                      5                      6
                      A                      A                      A
 Frequencies --    756.8274               892.8867               923.0842
 Red. masses --      3.3798                 1.2892                 1.3298
 Frc consts  --      1.1406                 0.6056                 0.6676
 IR Inten    --      1.1550                 5.7132                 9.7148

                      7                      8                      9
                      A                      A                      A
 Frequencies --   1009.9880              1036.3643              1194.5773
 Red. masses --      1.7691                 1.5899                 3.8386
 Frc consts  --      1.0633                 1.0061                 3.2274
 IR Inten    --      7.5307                 6.9728                14.4955

                     10                     11                     12
                      A                      A                      A
 Frequencies --   1310.4774              1395.8854              1474.6642
 Red. masses --      5.9519                 1.2218                 1.0697
 Frc consts  --      6.0224                 1.4027                 1.3706
 IR Inten    --     33.2721                 7.5048                17.3053

                     13                     14                     15
                      A                      A                      A
 Frequencies --   1477.6755              1773.8093              3030.1059
 Red. masses --      1.0438                 7.9640                 1.0346
 Frc consts  --      1.3428                14.7637                 5.5969
 IR Inten    --      9.6582                17.1026                 8.4503

                     16                     17                     18
                      A                      A                      A
 Frequencies --   3088.2153              3111.6372              3224.5315
 Red. masses --      1.0984                 1.1041                 1.1137
 Frc consts  --      6.1719                 6.2982                 6.8229
 IR Inten    --      3.6456                14.3517                 0.1560

 - Thermochemistry -
 -------------------
 Temperature   298.150 Kelvin.  Pressure   1.00000 Atm.
 Atom     1 has atomic number  6 and mass  12.00000

 Molecular mass:    52.03130 amu.
 Principal axes and moments of inertia in atomic units:
                           1         2         3
     Eigenvalues --    63.05793 262.87450 314.85594
           X            0.99925  -0.03872   0.00008
           Y            0.03872   0.99925  -0.00001
           Z           -0.00008   0.00001   1.00000
 This molecule is an asymmetric top.
 Rotational symmetry number  1.
 Rotational temperatures (Kelvin)      1.37356     0.32949     0.27509
 Rotational constants (GHZ):          28.62037     6.86541     5.73196
 Zero-point vibrational energy     158397.5 (Joules/Mol)
                                   37.85792 (Kcal/Mol)
 Warning -- explicit consideration of   3 degrees of freedom as
           vibrations may cause significant error
 Vibrational temperatures:     83.26   487.19   553.62  1088.90  1284.66
          (Kelvin)           1328.11  1453.15  1491.10  1718.73  1885.48
                             2008.37  2121.71  2126.04  2552.11  4359.64
                             4443.25  4476.95  4639.38

 Zero-point correction=                           0.060330 (Hartree/Particle)
 Thermal correction to Energy=                    0.064992
 Thermal correction to Enthalpy=                  0.065936
 Thermal correction to Gibbs Free Energy=         0.033383
 Sum of electronic and zero-point Energies=           -154.665702
 Sum of electronic and thermal Energies=              -154.661041
 Sum of electronic and thermal Enthalpies=            -154.660096
 Sum of electronic and thermal Free Energies=         -154.692649

                     E (Thermal)             CV                S
                      KCal/Mol        Cal/Mol-Kelvin    Cal/Mol-Kelvin
 Total                   40.783             14.096             68.513
 Electronic               0.000              0.000              0.000
 Translational            0.889              2.981             37.771
 Rotational               0.889              2.981             23.172
 Vibrational             39.006              8.134              7.571
 Vibration     1          0.596              1.974              4.529
 Vibration     2          0.719              1.598              1.219
 Vibration     3          0.754              1.503              1.020

 1\1\ CITASK-GV0933\Freq\RB3LYP\6-311++G(d,p)\C4H4\EERD\04-Mar-2018\0\\
 #p b3lyp/6-311++g(d,p) freq\\min\\0,1\C,1.525599,0.056096,-0.000379\H,
 1.907155,1.078109,-0.025936\H,1.911001,-0.49861,-0.861162\H,1.905541,-
 0.449916,0.892495\C,0.05288,-0.011255,-0.000516\C,-1.088581,-0.858926,
 0.00056\C,-1.151185,0.551872,0.000026\H,-1.778068,1.431965,-0.00043\\V
 ersion=ES64L-G09RevD.01\State=1-A\HF=-154.7260326\RMSD=2.586e-09\RMSF=
 3.442e-05\ZeroPoint=0.0603304\Thermal=0.064992\Dipole=0.9137301,1.2022
 977,0.0020964\DipoleDeriv=-0.1227512,0.0518812,-0.0057362,0.1113176,0.

 Normal termination of Gaussian 09 at Sun Mar  4 21:19:13 2018.
