 Gaussian 09, Revision D.01,
 Gaussian 09:  ES64L-G09RevD.01 24-Apr-2013

 ---------------------------
 #p b3lyp/6-311++g(d,p) freq
 ---------------------------

 ---
 min
 ---
 Symbolic Z-matrix:
 Charge =  1 Multiplicity = 4

                         Standard orientation:
 ---------------------------------------------------------------------
 Center     Atomic      Atomic             Coordinates (Angstroms)
 Number     Number       Type             X           Y           Z
 ---------------------------------------------------------------------
      1          6           0        0.408673   -0.442767   -0.000347
      2          6           0        1.673339    0.125492    0.000441
      3          6           0       -2.011507   -0.163805    0.000650
      4          6           0       -0.739683    0.373126   -0.000812
      5          1           0        2.562650   -0.496487    0.000422
      6          1           0        1.811012    1.202824    0.000008
      7          1           0       -0.652276    1.463123    0.000460
      8          1           0        0.293687   -1.521735   -0.000480
 ---------------------------------------------------------------------

 SCF Done:  E(UB3LYP) =  -154.308744207     A.U. after   15 cycles

 The electronic state is 4-A.
 Alpha  occ. eigenvalues --  -10.52233 -10.48037 -10.46459 -10.45545  -1.09163
 Alpha  occ. eigenvalues --   -1.00729  -0.86098  -0.79992  -0.71586  -0.69626
 Alpha  occ. eigenvalues --   -0.62815  -0.62329  -0.60875  -0.52019  -0.48311
 Alpha virt. eigenvalues --   -0.32407  -0.20548  -0.15101  -0.14289  -0.12418
 Alpha virt. eigenvalues --   -0.09799  -0.09309  -0.08519  -0.07753  -0.06027
 Alpha virt. eigenvalues --   -0.05329  -0.03883  -0.03827  -0.03019  -0.01577

  Beta  occ. eigenvalues --  -10.48147 -10.47747 -10.45794 -10.45322  -1.06935
  Beta  occ. eigenvalues --   -0.96438  -0.82993  -0.77537  -0.70167  -0.66723
  Beta  occ. eigenvalues --   -0.62246  -0.57270
  Beta virt. eigenvalues --   -0.40702  -0.40590  -0.28188  -0.25735  -0.17506
  Beta virt. eigenvalues --   -0.14782  -0.14112  -0.11730  -0.09337  -0.08999
  Beta virt. eigenvalues --   -0.08051  -0.07115  -0.05318  -0.04841  -0.02978

 Mulliken charges and spin densities:
               1          2
     1  C    0.157763   0.103814
     2  C   -0.267776   0.501866
     3  C    0.246070   2.212268
     4  C   -0.071877   0.165047
     5  H    0.244294  -0.019654
     6  H    0.214545  -0.019558
     7  H    0.235685   0.056153
     8  H    0.241295   0.000063
 Sum of Mulliken charges =   1.00000   3.00000

 Dipole moment (field-independent basis, Debye):
    X=              0.7280    Y=              0.2708    Z=              0.0013  Tot=              0.7768
 Quadrupole moment (field-independent basis, Debye-Ang):
   XX=             -7.1944   YY=            -17.5301   ZZ=            -22.9155
   XY=              0.2222   XZ=             -0.0018   YZ=              0.0008

  Exact polarizability:  77.849   2.023  33.809   0.001  -0.007  21.851
 Approx polarizability: 127.879   5.618  47.169   0.003  -0.006  30.341

                      1                      2                      3
                      A                      A                      A
 Frequencies --    200.5701               317.9172               487.9928
 Red. masses --      3.9527                 3.0873                 1.1037
 Frc consts  --      0.0937                 0.1838                 0.1549
 IR Inten    --      2.0544                 0.1117                 1.7436

                      4                      5                      6
                      A                      A                      A
 Frequencies --    540.5126               885.2290               963.8138
 Red. masses --      4.4480                 1.6288                 1.4617
 Frc consts  --      0.7656                 0.7520                 0.8000
 IR Inten    --      0.3835                 4.8493                 0.5217

                      7                      8                      9
                      A                      A                      A
 Frequencies --    981.2371              1062.3253              1222.2338
 Red. masses --      1.1237                 1.4451                 2.5901
 Frc consts  --      0.6375                 0.9609                 2.2797
 IR Inten    --     48.3514                12.8246                 1.0238

                     10                     11                     12
                      A                      A                      A
 Frequencies --   1271.5015              1281.9192              1318.0146
 Red. masses --      1.3321                 2.1881                 2.0223
 Frc consts  --      1.2689                 2.1186                 2.0698
 IR Inten    --     32.9232                33.3574                40.7498

                     13                     14                     15
                      A                      A                      A
 Frequencies --   1485.4616              1578.1433              3085.6651
 Red. masses --      1.3781                 2.8222                 1.0881
 Frc consts  --      1.7917                 4.1412                 6.1039
 IR Inten    --     15.4545                20.3879                11.2022

                     16                     17                     18
                      A                      A                      A
 Frequencies --   3139.1165              3189.6094              3247.0247
 Red. masses --      1.0567                 1.0943                 1.1205
 Frc consts  --      6.1349                 6.5592                 6.9602
 IR Inten    --     14.5884                 8.0956                12.9148

 - Thermochemistry -
 -------------------
 Temperature   298.150 Kelvin.  Pressure   1.00000 Atm.
 Atom     1 has atomic number  6 and mass  12.00000

 Molecular mass:    52.03130 amu.
 Principal axes and moments of inertia in atomic units:
                           1         2         3
     Eigenvalues --    38.28852 360.18231 398.47071
           X            0.99999  -0.00491   0.00001
           Y            0.00491   0.99999   0.00011
           Z           -0.00001  -0.00011   1.00000
 This molecule is an asymmetric top.
 Rotational symmetry number  1.
 Rotational temperatures (Kelvin)      2.26214     0.24047     0.21737
 Rotational constants (GHZ):          47.13531     5.01063     4.52917
 Zero-point vibrational energy     157059.4 (Joules/Mol)
                                   37.53811 (Kcal/Mol)
 Warning -- explicit consideration of   4 degrees of freedom as
           vibrations may cause significant error
 Vibrational temperatures:    288.58   457.41   702.11   777.68  1273.65
          (Kelvin)           1386.71  1411.78  1528.45  1758.52  1829.40
                             1844.39  1896.33  2137.25  2270.59  4439.58
                             4516.48  4589.13  4671.74

 Zero-point correction=                           0.059821 (Hartree/Particle)
 Thermal correction to Energy=                    0.064267
 Thermal correction to Enthalpy=                  0.065212
 Thermal correction to Gibbs Free Energy=         0.032416
 Sum of electronic and zero-point Energies=           -154.248923
 Sum of electronic and thermal Energies=              -154.244477
 Sum of electronic and thermal Enthalpies=            -154.243533
 Sum of electronic and thermal Free Energies=         -154.276328

                     E (Thermal)             CV                S
                      KCal/Mol        Cal/Mol-Kelvin    Cal/Mol-Kelvin
 Total                   40.328             14.314             69.024
 Electronic               0.000              0.000              2.755
 Translational            0.889              2.981             37.771
 Rotational               0.889              2.981             23.223
 Vibrational             38.551              8.353              5.276
 Vibration     1          0.638              1.839              2.128
 Vibration     2          0.704              1.639              1.321
 Vibration     3          0.844              1.277              0.689
 Vibration     4          0.896              1.160              0.564

 Optimization completed.
    -- Stationary point found.
 Normal termination of Gaussian 09 at Thu Jan 24 16:09:37 2019.
