 Gaussian 09, Revision D.01,
 Gaussian 09:  ES64L-G09RevD.01 24-Apr-2013

 ---------------------------
 #p b3lyp/6-311++g(d,p) freq
 ---------------------------

 ---
 min
 ---
 Symbolic Z-matrix:
 Charge =  0 Multiplicity = 1

                         Standard orientation:
 ---------------------------------------------------------------------
 Center     Atomic      Atomic             Coordinates (Angstroms)
 Number     Number       Type             X           Y           Z
 ---------------------------------------------------------------------
      1          6           0       -1.087726   -0.061230    0.182850
      2          1           0       -2.159921   -0.020307    0.284220
      3          6           0       -0.030644    0.858437   -0.012868
      4          1           0       -0.034545    1.665762   -0.747942
      5          6           0        1.089075   -0.089418    0.139211
      6          1           0        1.359533   -0.355754    1.154820
      7          1           0        1.951725   -0.013495   -0.521680
      8          6           0       -0.156837   -0.920489   -0.337429
 ---------------------------------------------------------------------

 SCF Done:  E(RB3LYP) =  -154.708030691     A.U. after   12 cycles

 The electronic state is 1-A.
 Alpha  occ. eigenvalues --  -10.22641 -10.20595 -10.20529 -10.20369  -0.92363
 Alpha  occ. eigenvalues --   -0.69447  -0.61278  -0.55297  -0.48458  -0.42236
 Alpha  occ. eigenvalues --   -0.41177  -0.38019  -0.30400  -0.22654
 Alpha virt. eigenvalues --   -0.04489  -0.02224   0.00079   0.01313   0.01581
 Alpha virt. eigenvalues --    0.03172   0.05241   0.07670   0.08164   0.08504
 Alpha virt. eigenvalues --    0.09547   0.10837   0.11502   0.12379   0.13077

 Mulliken charges:
               1
     1  C   -0.038246
     2  H    0.178220
     3  C   -0.020670
     4  H    0.142843
     5  C   -0.420185
     6  H    0.161154
     7  H    0.140046
     8  C   -0.143163
 Sum of Mulliken charges =  -0.00000

 Dipole moment (field-independent basis, Debye):
    X=              0.1039    Y=              1.8445    Z=              0.7679  Tot=              2.0007
 Quadrupole moment (field-independent basis, Debye-Ang):
   XX=            -20.8487   YY=            -27.4333   ZZ=            -25.7008
   XY=             -0.6557   XZ=             -0.5524   YZ=             -3.2769

  Exact polarizability:  49.399   0.847  51.982  -1.125   3.965  35.610
 Approx polarizability:  72.546   0.562 100.804  -5.010  11.867  52.969

                      1                      2                      3
                      A                      A                      A
 Frequencies --    518.8987               615.4838               658.6538
 Red. masses --      2.3479                 2.0787                 3.9771
 Frc consts  --      0.3725                 0.4640                 1.0165
 IR Inten    --      7.8504                74.4139                19.5425

                      4                      5                      6
                      A                      A                      A
 Frequencies --    789.4822               942.3809              1014.2119
 Red. masses --      1.5156                 1.8847                 1.5443
 Frc consts  --      0.5566                 0.9862                 0.9359
 IR Inten    --     40.4181                54.2490                 5.6680

                      7                      8                      9
                      A                      A                      A
 Frequencies --   1032.9351              1065.7629              1101.4290
 Red. masses --      1.2862                 1.3687                 1.2299
 Frc consts  --      0.8086                 0.9159                 0.8791
 IR Inten    --      2.0344                 4.5351                 6.3636

                     10                     11                     12
                      A                      A                      A
 Frequencies --   1152.8039              1249.8368              1309.5318
 Red. masses --      1.7216                 1.9366                 2.4673
 Frc consts  --      1.3480                 1.7824                 2.4929
 IR Inten    --      0.7380                 4.0487                 6.3658

                     13                     14                     15
                      A                      A                      A
 Frequencies --   1463.5073              1501.6403              3075.2754
 Red. masses --      4.2367                 1.2173                 1.0874
 Frc consts  --      5.3465                 1.6173                 6.0589
 IR Inten    --      0.4486                 2.2287                25.8074

                     16                     17                     18
                      A                      A                      A
 Frequencies --   3096.4306              3175.0532              3261.1586
 Red. masses --      1.0623                 1.1097                 1.1047
 Frc consts  --      6.0010                 6.5909                 6.9219
 IR Inten    --     22.5691                 5.1105                 0.2006

 - Thermochemistry -
 -------------------
 Temperature   298.150 Kelvin.  Pressure   1.00000 Atm.
 Atom     1 has atomic number  6 and mass  12.00000

 Molecular mass:    52.03130 amu.
 Principal axes and moments of inertia in atomic units:
                           1         2         3
     Eigenvalues --    93.90465 154.44194 218.95440
           X            0.99958  -0.02912   0.00036
           Y            0.02904   0.99543  -0.09101
           Z            0.00229   0.09098   0.99585
 This molecule is an asymmetric top.
 Rotational symmetry number  1.
 Rotational temperatures (Kelvin)      0.92236     0.56082     0.39558
 Rotational constants (GHZ):          19.21887    11.68556     8.24254
 Zero-point vibrational energy     161642.3 (Joules/Mol)
                                   38.63343 (Kcal/Mol)
 Warning -- explicit consideration of   2 degrees of freedom as
           vibrations may cause significant error
 Vibrational temperatures:    746.58   885.54   947.65  1135.89  1355.87
          (Kelvin)           1459.22  1486.16  1533.39  1584.71  1658.63
                             1798.23  1884.12  2105.66  2160.52  4424.63
                             4455.07  4568.19  4692.07

 Zero-point correction=                           0.061566 (Hartree/Particle)
 Thermal correction to Energy=                    0.065195
 Thermal correction to Enthalpy=                  0.066139
 Thermal correction to Gibbs Free Energy=         0.036387
 Sum of electronic and zero-point Energies=           -154.646464
 Sum of electronic and thermal Energies=              -154.642836
 Sum of electronic and thermal Enthalpies=            -154.641892
 Sum of electronic and thermal Free Energies=         -154.671643

                     E (Thermal)             CV                S
                      KCal/Mol        Cal/Mol-Kelvin    Cal/Mol-Kelvin
 Total                   40.910             12.202             62.617
 Electronic               0.000              0.000              0.000
 Translational            0.889              2.981             37.771
 Rotational               0.889              2.981             22.678
 Vibrational             39.133              6.240              2.169
 Vibration     1          0.874              1.208              0.613
 Vibration     2          0.975              0.999              0.424

 Optimization completed.
    -- Stationary point found.

 1\1\ CITASK-GV1934\Freq\RB3LYP\6-311++G(d,p)\C4H4\EERD\04-Mar-2018\0\\
 #p b3lyp/6-311++g(d,p) freq\\min\\0,1\C,1.087896,0.062329,0.183106\H,2
 .160079,0.021671,0.284714\C,0.030963,-0.857722,-0.011605\H,0.035091,-1
 .665998,-0.745632\C,-1.088901,0.090189,0.139053\H,-1.359568,0.357806,1
 .15427\H,-1.951427,0.013303,-0.521888\C,0.156991,0.920798,-0.338447\\V
 ersion=ES64L-G09RevD.01\State=1-A\HF=-154.7080307\RMSD=5.919e-09\RMSF=
 4.092e-05\ZeroPoint=0.0615663\Thermal=0.0651948\Dipole=-0.0408261,-0.7
 253067,0.3030595\DipoleDeriv=0.0017238,0.2012426,-0.0970257,0.0494439,

 Normal termination of Gaussian 09 at Sun Mar  4 21:19:23 2018.
