 Gaussian 09, Revision D.01,
 Gaussian 09:  ES64L-G09RevD.01 24-Apr-2013

 ---------------------------
 #p b3lyp/6-311++g(d,p) freq
 ---------------------------

 ---
 min
 ---
 Symbolic Z-matrix:
 Charge =  0 Multiplicity = 1

                         Standard orientation:
 ---------------------------------------------------------------------
 Center     Atomic      Atomic             Coordinates (Angstroms)
 Number     Number       Type             X           Y           Z
 ---------------------------------------------------------------------
      1          6           0       -1.271931    0.376491    0.000650
      2          6           0        1.139863    0.240006   -0.000779
      3          8           0       -1.485375   -0.953971   -0.000116
      4          6           0        2.150319   -0.422028   -0.001422
      5          6           0       -0.068416    0.980199    0.000005
      6          1           0       -2.199565    0.934325    0.001521
      7          1           0       -0.632033   -1.413652   -0.001612
      8          1           0        3.042411   -0.999197    0.009730
      9          1           0       -0.026821    2.062286    0.000563
 ---------------------------------------------------------------------

 SCF Done:  E(RB3LYP) =  -230.038034307     A.U. after   13 cycles

 The electronic state is 1-A.
 Alpha  occ. eigenvalues --  -19.17563 -10.25426 -10.19366 -10.18955 -10.17812
 Alpha  occ. eigenvalues --   -1.08801  -0.81134  -0.74607  -0.65610  -0.56617
 Alpha  occ. eigenvalues --   -0.52265  -0.51589  -0.43691  -0.42072  -0.39373
 Alpha  occ. eigenvalues --   -0.33226  -0.29728  -0.23746
 Alpha virt. eigenvalues --   -0.03236  -0.00981  -0.00093   0.01533   0.02274
 Alpha virt. eigenvalues --    0.02865   0.05212   0.06634   0.07115   0.08064
 Alpha virt. eigenvalues --    0.09278   0.10594   0.10625   0.11220   0.11832

 Mulliken charges:
               1
     1  C   -0.370233
     2  C    1.342186
     3  O   -0.183439
     4  C   -1.773880
     5  C    0.256693
     6  H    0.175047
     7  H    0.250544
     8  H    0.128000
     9  H    0.175080
 Sum of Mulliken charges =  -0.00000

 Dipole moment (field-independent basis, Debye):
    X=              0.3412    Y=              0.1354    Z=              0.0127  Tot=              0.3673
 Quadrupole moment (field-independent basis, Debye-Ang):
   XX=            -27.9826   YY=            -26.5575   ZZ=            -32.5688
   XY=             -5.2825   XZ=              0.0426   YZ=             -0.0087

  Exact polarizability:  78.473  -7.085  47.585  -0.110   0.023  31.372
 Approx polarizability: 130.070 -14.023  71.353  -0.151   0.052  41.190

                      1                      2                      3
                      A                      A                      A
 Frequencies --    140.4778               281.5598               407.6611
 Red. masses --      4.6955                 2.4726                 5.0098
 Frc consts  --      0.0546                 0.1155                 0.4905
 IR Inten    --      0.5420                 0.2828                17.6572

                      4                      5                      6
                      A                      A                      A
 Frequencies --    503.2665               587.5014               608.5732
 Red. masses --      1.7550                 1.2415                 2.2378
 Frc consts  --      0.2619                 0.2525                 0.4883
 IR Inten    --     46.0529               116.7368                17.3181

                      7                      8                      9
                      A                      A                      A
 Frequencies --    710.9546               740.9209               742.9196
 Red. masses --      1.2516                 4.3703                 1.2930
 Frc consts  --      0.3727                 1.4135                 0.4205
 IR Inten    --     43.4519                 2.4000                37.4397

                     10                     11                     12
                      A                      A                      A
 Frequencies --    956.6304               959.9274              1103.1197
 Red. masses --      1.2769                 5.3904                 2.1085
 Frc consts  --      0.6885                 2.9265                 1.5117
 IR Inten    --      6.6055                11.0804               115.3494

                     13                     14                     15
                      A                      A                      A
 Frequencies --   1234.0954              1359.0510              1419.3540
 Red. masses --      1.1596                 1.5884                 1.4577
 Frc consts  --      1.0405                 1.7286                 1.7302
 IR Inten    --    124.3354                 7.4718                 9.6704

                     16                     17                     18
                      A                      A                      A
 Frequencies --   1663.9582              2182.8240              3184.6680
 Red. masses --      5.0966                 6.1778                 1.0865
 Frc consts  --      8.3142                17.3428                 6.4923
 IR Inten    --    176.0538                26.3315                 2.1519

                     19                     20                     21
                      A                      A                      A
 Frequencies --   3213.8366              3473.4273              3733.0299
 Red. masses --      1.0961                 1.1557                 1.0650
 Frc consts  --      6.6706                 8.2153                 8.7446
 IR Inten    --      5.3309                90.5102                36.0585

 - Thermochemistry -
 -------------------
 Temperature   298.150 Kelvin.  Pressure   1.00000 Atm.
 Atom     1 has atomic number  6 and mass  12.00000

 Molecular mass:    68.02621 amu.
 Principal axes and moments of inertia in atomic units:
                           1         2         3
     Eigenvalues --   137.92323 502.16347 640.08578
           X            0.99914  -0.04136   0.00020
           Y            0.04136   0.99914  -0.00014
           Z           -0.00019   0.00015   1.00000
 This molecule is an asymmetric top.
 Rotational symmetry number  1.
 Rotational temperatures (Kelvin)      0.62799     0.17248     0.13532
 Rotational constants (GHZ):          13.08511     3.59393     2.81953
 Zero-point vibrational energy     174701.2 (Joules/Mol)
                                   41.75458 (Kcal/Mol)
 Warning -- explicit consideration of   6 degrees of freedom as
           vibrations may cause significant error
 Vibrational temperatures:    202.12   405.10   586.53   724.09   845.28
          (Kelvin)            875.60  1022.90  1066.02  1068.89  1376.38
                             1381.12  1587.14  1775.59  1955.37  2042.13
                             2394.06  3140.59  4582.02  4623.99  4997.48
                             5370.99

 Zero-point correction=                           0.066540 (Hartree/Particle)
 Thermal correction to Energy=                    0.071769
 Thermal correction to Enthalpy=                  0.072713
 Thermal correction to Gibbs Free Energy=         0.038571
 Sum of electronic and zero-point Energies=           -229.971494
 Sum of electronic and thermal Energies=              -229.966266
 Sum of electronic and thermal Enthalpies=            -229.965321
 Sum of electronic and thermal Free Energies=         -229.999463

                     E (Thermal)             CV                S
                      KCal/Mol        Cal/Mol-Kelvin    Cal/Mol-Kelvin
 Total                   45.036             18.241             71.857
 Electronic               0.000              0.000              0.000
 Translational            0.889              2.981             38.570
 Rotational               0.889              2.981             25.298
 Vibrational             43.258             12.280              7.990
 Vibration     1          0.615              1.913              2.797
 Vibration     2          0.681              1.708              1.524
 Vibration     3          0.772              1.454              0.935
 Vibration     4          0.859              1.243              0.650
 Vibration     5          0.945              1.058              0.472
 Vibration     6          0.967              1.014              0.435

 Normal termination of Gaussian 09 at Sun Mar  4 21:22:42 2018.
