 Gaussian 09, Revision D.01,
 Gaussian 09:  ES64L-G09RevD.01 24-Apr-2013

 ---------------------------
 #p b3lyp/6-311++g(d,p) freq
 ---------------------------

 ---
 min
 ---
 Symbolic Z-matrix:
 Charge =  1 Multiplicity = 4

                         Standard orientation:
 ---------------------------------------------------------------------
 Center     Atomic      Atomic             Coordinates (Angstroms)
 Number     Number       Type             X           Y           Z
 ---------------------------------------------------------------------
      1          6           0        0.384749    0.225840    0.000000
      2          1           0        1.350582    0.768257    0.000000
      3          6           0       -0.832747    1.177428    0.000000
      4          1           0       -0.755425    1.802959    0.893171
      5          1           0       -0.755425    1.802959   -0.893171
      6          1           0       -1.768739    0.620843    0.000000
      7          6           0        0.384749   -1.117885    0.682723
      8          6           0        0.384749   -1.117885   -0.682723
 ---------------------------------------------------------------------

 SCF Done:  E(UB3LYP) =  -154.245813169     A.U. after   14 cycles

 The electronic state is 4-A".
 Alpha  occ. eigenvalues --  -10.56921 -10.56848 -10.50970 -10.41228  -1.21842
 Alpha  occ. eigenvalues --   -0.98365  -0.84567  -0.79526  -0.73780  -0.68617
 Alpha  occ. eigenvalues --   -0.64361  -0.63398  -0.60830  -0.56839  -0.53267
 Alpha virt. eigenvalues --   -0.32906  -0.16388  -0.14605  -0.13733  -0.11936
 Alpha virt. eigenvalues --   -0.11906  -0.10856  -0.08601  -0.08259  -0.07496
 Alpha virt. eigenvalues --   -0.05934  -0.05814  -0.03986  -0.03191  -0.02442

  Beta  occ. eigenvalues --  -10.54583 -10.54527 -10.50418 -10.40985  -1.17642
  Beta  occ. eigenvalues --   -0.96285  -0.81311  -0.71215  -0.69931  -0.64642
  Beta  occ. eigenvalues --   -0.61874  -0.60856
  Beta virt. eigenvalues --   -0.44649  -0.44356  -0.38845  -0.24826  -0.15748
  Beta virt. eigenvalues --   -0.13388  -0.11538  -0.11091  -0.10202  -0.09891
  Beta virt. eigenvalues --   -0.08211  -0.07512  -0.07163  -0.05316  -0.04854

 Mulliken charges and spin densities:
               1          2
     1  C    0.023310   0.277727
     2  H    0.303307   0.101396
     3  C   -0.562488   0.122680
     4  H    0.227336   0.021846
     5  H    0.227336   0.021846
     6  H    0.191243   0.009969
     7  C    0.294978   1.222268
     8  C    0.294978   1.222268
 Sum of Mulliken charges =   1.00000   3.00000

 Dipole moment (field-independent basis, Debye):
    X=              0.7518    Y=              0.1930    Z=             -0.0000  Tot=              0.7761
 Quadrupole moment (field-independent basis, Debye-Ang):
   XX=            -17.6946   YY=            -15.6519   ZZ=            -20.1408
   XY=             -1.7269   XZ=             -0.0000   YZ=              0.0000

  Exact polarizability:  31.814  -6.340  49.953   0.000   0.000  35.897
 Approx polarizability:  44.437  -7.037  76.490  -0.000  -0.000  68.759

                      1                      2                      3
                     A"                     A'                     A"
 Frequencies --    181.0732               288.9088               351.3300
 Red. masses --      1.1362                 4.4711                 4.5535
 Frc consts  --      0.0219                 0.2199                 0.3312
 IR Inten    --      0.1103                 0.2767                 0.2565

                      4                      5                      6
                     A"                     A'                     A'
 Frequencies --    688.3519               760.5928               913.8941
 Red. masses --      7.1727                 6.5781                 1.5797
 Frc consts  --      2.0024                 2.2421                 0.7773
 IR Inten    --     24.4277                 3.7965                42.5540

                      7                      8                      9
                     A"                     A"                     A'
 Frequencies --    928.9798              1008.2373              1027.9547
 Red. masses --      1.1440                 1.4558                 2.5591
 Frc consts  --      0.5817                 0.8719                 1.5933
 IR Inten    --     41.9696                 9.5684                 0.6349

                     10                     11                     12
                     A'                     A'                     A'
 Frequencies --   1139.7504              1364.1078              1444.6355
 Red. masses --      1.1645                 1.3003                 1.0594
 Frc consts  --      0.8913                 1.4256                 1.3027
 IR Inten    --     13.3201                 0.2178                26.4267

                     13                     14                     15
                     A"                     A'                     A'
 Frequencies --   1451.3712              1455.1746              2896.5598
 Red. masses --      1.0480                 5.6605                 1.0713
 Frc consts  --      1.3007                 7.0621                 5.2956
 IR Inten    --     15.2204                 0.5377                66.4374

                     16                     17                     18
                     A'                     A"                     A'
 Frequencies --   3034.6874              3117.5856              3157.2625
 Red. masses --      1.0303                 1.1039                 1.1058
 Frc consts  --      5.5906                 6.3216                 6.4946
 IR Inten    --     23.9535                 3.8698                 6.1757

 - Thermochemistry -
 -------------------
 Temperature   298.150 Kelvin.  Pressure   1.00000 Atm.
 Atom     1 has atomic number  6 and mass  12.00000

 Molecular mass:    52.03130 amu.
 Principal axes and moments of inertia in atomic units:
                           1         2         3
     Eigenvalues --    73.18780 264.34962 282.54282
           X           -0.45284   0.00000   0.89159
           Y            0.89159   0.00000   0.45284
           Z           -0.00000   1.00000  -0.00000
 This molecule is an asymmetric top.
 Rotational symmetry number  1.
 Rotational temperatures (Kelvin)      1.18345     0.32765     0.30655
 Rotational constants (GHZ):          24.65904     6.82710     6.38750
 Zero-point vibrational energy     150792.0 (Joules/Mol)
                                   36.04016 (Kcal/Mol)
 Warning -- explicit consideration of   3 degrees of freedom as
           vibrations may cause significant error
 Vibrational temperatures:    260.52   415.67   505.48   990.38  1094.32
          (Kelvin)           1314.89  1336.59  1450.63  1479.00  1639.84
                             1962.64  2078.51  2088.20  2093.67  4167.50
                             4366.23  4485.50  4542.59

 Zero-point correction=                           0.057434 (Hartree/Particle)
 Thermal correction to Energy=                    0.062076
 Thermal correction to Enthalpy=                  0.063020
 Thermal correction to Gibbs Free Energy=         0.029850
 Sum of electronic and zero-point Energies=           -154.188380
 Sum of electronic and thermal Energies=              -154.183738
 Sum of electronic and thermal Enthalpies=            -154.182793
 Sum of electronic and thermal Free Energies=         -154.215963

                     E (Thermal)             CV                S
                      KCal/Mol        Cal/Mol-Kelvin    Cal/Mol-Kelvin
 Total                   38.953             14.957             69.811
 Electronic               0.000              0.000              2.755
 Translational            0.889              2.981             37.771
 Rotational               0.889              2.981             23.218
 Vibrational             37.176              8.996              6.068
 Vibration     1          0.630              1.865              2.317
 Vibration     2          0.685              1.694              1.480
 Vibration     3          0.728              1.573              1.160

 Normal termination of Gaussian 09 at Thu Jan 24 16:11:20 2019.
