 Gaussian 09, Revision D.01,
 Gaussian 09:  ES64L-G09RevD.01 24-Apr-2013

 ---------------------------
 #p b3lyp/6-311++g(d,p) freq
 ---------------------------

 ---
 min
 ---
 Symbolic Z-matrix:
 Charge =  0 Multiplicity = 1

                         Standard orientation:
 ---------------------------------------------------------------------
 Center     Atomic      Atomic             Coordinates (Angstroms)
 Number     Number       Type             X           Y           Z
 ---------------------------------------------------------------------
      1          6           0       -0.283864    0.572938   -0.000000
      2          1           0        1.745848    0.677125   -0.000000
      3          1           0       -1.261613    1.050138   -0.000000
      4          6           0        0.879504    1.365515   -0.000000
      5          6           0       -0.283864   -0.894646    0.630593
      6          6           0       -0.283864   -0.894646   -0.630593
      7          1           0       -0.325855   -1.311117    1.618529
      8          1           0       -0.325855   -1.311117   -1.618529
 ---------------------------------------------------------------------

 SCF Done:  E(RB3LYP) =  -154.637275271     A.U. after   12 cycles

 The electronic state is 1-A'.
 Alpha  occ. eigenvalues --  -10.23867 -10.23718 -10.21249 -10.17928  -0.90538
 Alpha  occ. eigenvalues --   -0.71075  -0.61153  -0.57353  -0.53640  -0.42065
 Alpha  occ. eigenvalues --   -0.40180  -0.33097  -0.31294  -0.20519
 Alpha virt. eigenvalues --   -0.08758  -0.03490  -0.00723   0.00837   0.01426
 Alpha virt. eigenvalues --    0.02502   0.05077   0.06969   0.07287   0.07741
 Alpha virt. eigenvalues --    0.08818   0.10558   0.10681   0.11624   0.11937

 Mulliken charges:
               1
     1  C    0.107181
     2  H    0.097919
     3  H    0.191119
     4  C   -0.516318
     5  C   -0.144560
     6  C   -0.144560
     7  H    0.204610
     8  H    0.204610
 Sum of Mulliken charges =  -0.00000

 Dipole moment (field-independent basis, Debye):
    X=             -1.4159    Y=             -4.0681    Z=             -0.0000  Tot=              4.3074
 Quadrupole moment (field-independent basis, Debye-Ang):
   XX=            -25.9023   YY=            -32.0070   ZZ=            -20.6165
   XY=             -3.0468   XZ=              0.0000   YZ=              0.0000

  Exact polarizability:  43.711   8.707  59.207   0.000   0.000  44.349
 Approx polarizability:  61.466  12.375  83.012   0.000  -0.000  72.074

                      1                      2                      3
                     A"                     A'                     A"
 Frequencies --    142.9263               470.2150               526.8380
 Red. masses --      3.7224                 2.8932                 2.8895
 Frc consts  --      0.0448                 0.3769                 0.4725
 IR Inten    --     16.9035                 2.3668                11.3741

                      4                      5                      6
                     A"                     A'                     A'
 Frequencies --    615.6317               666.6758               778.5122
 Red. masses --      1.5557                 1.2556                 6.0270
 Frc consts  --      0.3474                 0.3288                 2.1522
 IR Inten    --      9.8840                72.4564                95.3785

                      7                      8                      9
                     A"                     A'                     A"
 Frequencies --    790.5307               867.4911               934.9268
 Red. masses --      1.4658                 1.1080                 1.2278
 Frc consts  --      0.5397                 0.4913                 0.6323
 IR Inten    --      0.2451                 3.1791                37.5616

                     10                     11                     12
                     A"                     A'                     A'
 Frequencies --   1083.5469              1125.1308              1264.7938
 Red. masses --      1.1531                 1.5260                 3.1593
 Frc consts  --      0.7976                 1.1382                 2.9777
 IR Inten    --     24.5933                23.5655                36.7515

                     13                     14                     15
                     A'                     A'                     A'
 Frequencies --   1362.8790              1809.6011              2952.3389
 Red. masses --      1.0991                 4.7252                 1.0824
 Frc consts  --      1.2028                 9.1166                 5.5585
 IR Inten    --      4.5365                38.1983                56.7633

                     16                     17                     18
                     A'                     A"                     A'
 Frequencies --   3107.5539              3294.0427              3356.8715
 Red. masses --      1.0867                 1.0833                 1.1678
 Frc consts  --      6.1830                 6.9259                 7.7534
 IR Inten    --     29.1089                27.4152                13.1108

 - Thermochemistry -
 -------------------
 Temperature   298.150 Kelvin.  Pressure   1.00000 Atm.
 Atom     1 has atomic number  6 and mass  12.00000

 Molecular mass:    52.03130 amu.
 Principal axes and moments of inertia in atomic units:
                           1         2         3
     Eigenvalues --    82.52795 241.47532 264.82097
           X            0.41487   0.00000   0.90988
           Y            0.90988   0.00000  -0.41487
           Z            0.00000   1.00000   0.00000
 This molecule is an asymmetric top.
 Rotational symmetry number  1.
 Rotational temperatures (Kelvin)      1.04951     0.35869     0.32707
 Rotational constants (GHZ):          21.86824     7.47381     6.81495
 Zero-point vibrational energy     150433.4 (Joules/Mol)
                                   35.95445 (Kcal/Mol)
 Warning -- explicit consideration of   4 degrees of freedom as
           vibrations may cause significant error
 Vibrational temperatures:    205.64   676.53   758.00   885.76   959.20
          (Kelvin)           1120.10  1137.40  1248.12  1345.15  1558.98
                             1618.81  1819.75  1960.88  2603.61  4247.75
                             4471.07  4739.39  4829.78

 Zero-point correction=                           0.057297 (Hartree/Particle)
 Thermal correction to Energy=                    0.061862
 Thermal correction to Enthalpy=                  0.062806
 Thermal correction to Gibbs Free Energy=         0.031105
 Sum of electronic and zero-point Energies=           -154.579978
 Sum of electronic and thermal Energies=              -154.575413
 Sum of electronic and thermal Enthalpies=            -154.574469
 Sum of electronic and thermal Free Energies=         -154.606170

                     E (Thermal)             CV                S
                      KCal/Mol        Cal/Mol-Kelvin    Cal/Mol-Kelvin
 Total                   38.819             15.490             66.720
 Electronic               0.000              0.000              0.000
 Translational            0.889              2.981             37.771
 Rotational               0.889              2.981             23.183
 Vibrational             37.042              9.528              5.767
 Vibration     1          0.616              1.910              2.764
 Vibration     2          0.827              1.316              0.737
 Vibration     3          0.882              1.191              0.594
 Vibration     4          0.975              0.999              0.424

 Optimization completed.
    -- Stationary point found.

 1\1\ CITASK-GV1244\Freq\RB3LYP\6-311++G(d,p)\C4H4\EERD\04-Mar-2018\0\\
 #p b3lyp/6-311++g(d,p) freq\\min\\0,1\C,0.399819,-0.0008093028,0.49893
 4\H,1.351729,-0.0000234718,-1.296742\H,0.419280999,-0.0018557077,1.586
 744999\C,1.609673999,-0.0012869435,-0.220686001\C,-0.930972831,-0.6295
 43335,-0.121659795\C,-0.9297661688,0.6316416663,-0.1204682036\H,-1.327
 139556,-1.616969924,-0.260476214\H,-1.3240424434,1.6200850753,-0.25741
 77834\\Version=ES64L-G09RevD.01\State=1-A'\HF=-154.6372753\RMSD=2.860e
 -09\RMSF=5.477e-05\ZeroPoint=0.0572971\Thermal=0.0618622\Dipole=-1.686

 Normal termination of Gaussian 09 at Sun Mar  4 21:18:52 2018.
