 Gaussian 09, Revision D.01,
 Gaussian 09:  ES64L-G09RevD.01 24-Apr-2013

 ---------------------------
 #p b3lyp/6-311++g(d,p) freq
 ---------------------------

 ---
 min
 ---
 Symbolic Z-matrix:
 Charge =  1 Multiplicity = 2

                         Standard orientation:
 ---------------------------------------------------------------------
 Center     Atomic      Atomic             Coordinates (Angstroms)
 Number     Number       Type             X           Y           Z
 ---------------------------------------------------------------------
      1          8           0        2.291765    0.000135    0.000163
      2          6           0       -1.457803   -0.750111    0.000207
      3          6           0       -1.456175    0.751142    0.000195
      4          6           0       -0.174943   -0.001086   -0.000687
      5          6           0        1.154419   -0.000634   -0.000124
      6          1           0       -1.683906   -1.285884   -0.919514
      7          1           0       -1.682594   -1.286161    0.920075
      8          1           0       -1.679545    1.287690    0.920113
      9          1           0       -1.681061    1.287407   -0.919520
 ---------------------------------------------------------------------

 SCF Done:  E(UB3LYP) =  -229.720812696     A.U. after   14 cycles

 The electronic state is 2-A.
 Alpha  occ. eigenvalues --  -19.47877 -10.57463 -10.50683 -10.43921 -10.43895
 Alpha  occ. eigenvalues --   -1.41140  -1.14591  -1.00673  -0.85564  -0.78551
 Alpha  occ. eigenvalues --   -0.75525  -0.75525  -0.72649  -0.71865  -0.61134
 Alpha  occ. eigenvalues --   -0.58816  -0.58534  -0.52415
 Alpha virt. eigenvalues --   -0.29632  -0.22468  -0.17287  -0.15295  -0.13771
 Alpha virt. eigenvalues --   -0.12339  -0.09219  -0.08269  -0.07910  -0.07128
 Alpha virt. eigenvalues --   -0.06964  -0.06058  -0.06007  -0.03981  -0.02081

  Beta  occ. eigenvalues --  -19.47097 -10.57467 -10.49651 -10.43956 -10.43929
  Beta  occ. eigenvalues --   -1.39860  -1.13223  -0.98760  -0.85301  -0.77472
  Beta  occ. eigenvalues --   -0.74910  -0.72750  -0.72074  -0.69572  -0.60563
  Beta  occ. eigenvalues --   -0.58647  -0.57642
  Beta virt. eigenvalues --   -0.40621  -0.29407  -0.18674  -0.17020  -0.14703
  Beta virt. eigenvalues --   -0.13733  -0.12000  -0.09161  -0.08088  -0.07485
  Beta virt. eigenvalues --   -0.07102  -0.06516  -0.06004  -0.05227  -0.03718

 Mulliken charges and spin densities:
               1          2
     1  O    0.058652   0.273664
     2  C   -0.168477  -0.047958
     3  C   -0.169446  -0.047964
     4  C    0.786896   0.681958
     5  C   -0.506434   0.052893
     6  H    0.249715   0.021871
     7  H    0.249650   0.021825
     8  H    0.249692   0.021835
     9  H    0.249753   0.021877
 Sum of Mulliken charges =   1.00000   1.00000

 Dipole moment (field-independent basis, Debye):
    X=             -2.0944    Y=             -0.0003    Z=             -0.0000  Tot=              2.0944
 Quadrupole moment (field-independent basis, Debye-Ang):
   XX=            -17.6558   YY=            -22.4468   ZZ=            -23.6603
   XY=              0.0010   XZ=              0.0012   YZ=              0.0001

  Exact polarizability:  65.601   0.002  34.594   0.004   0.000  27.892
 Approx polarizability: 110.335  -0.001  48.724   0.011   0.000  38.945

                      1                      2                      3
                      A                      A                      A
 Frequencies --    128.9839               169.8437               459.9500
 Red. masses --      3.5799                 4.9025                 9.2575
 Frc consts  --      0.0351                 0.0833                 1.1539
 IR Inten    --      0.0323                 1.0146                10.3127

                      4                      5                      6
                      A                      A                      A
 Frequencies --    588.5102               608.5704               720.8383
 Red. masses --      8.1140                 6.1718                 1.0474
 Frc consts  --      1.6557                 1.3467                 0.3207
 IR Inten    --     12.0051                21.3403                 5.4238

                      7                      8                      9
                      A                      A                      A
 Frequencies --    860.5487               896.8702              1011.6812
 Red. masses --      1.1132                10.3774                 1.3232
 Frc consts  --      0.4857                 4.9181                 0.7979
 IR Inten    --      0.0000                 0.0139                 0.0115

                     10                     11                     12
                      A                      A                      A
 Frequencies --   1020.8375              1079.1472              1108.1687
 Red. masses --      4.7590                 1.1714                 1.3188
 Frc consts  --      2.9220                 0.8037                 0.9542
 IR Inten    --     35.9854                 0.1631                11.7832

                     13                     14                     15
                      A                      A                      A
 Frequencies --   1178.6958              1422.8441              1434.6257
 Red. masses --      1.2572                 1.0735                 1.1945
 Frc consts  --      1.0291                 1.2804                 1.4484
 IR Inten    --      0.0000                27.1084                 9.0839

                     16                     17                     18
                      A                      A                      A
 Frequencies --   1490.8267              2238.7008              3086.7098
 Red. masses --      6.5673                12.5246                 1.0467
 Frc consts  --      8.5999                36.9834                 5.8759
 IR Inten    --     30.0318               553.6629                33.4582

                     19                     20                     21
                      A                      A                      A
 Frequencies --   3094.3126              3172.8665              3187.7339
 Red. masses --      1.0579                 1.1177                 1.1156
 Frc consts  --      5.9680                 6.6294                 6.6789
 IR Inten    --     25.8985                 0.0007                32.6692

 - Thermochemistry -
 -------------------
 Temperature   298.150 Kelvin.  Pressure   1.00000 Atm.
 Atom     1 has atomic number  8 and mass  15.99491

 Molecular mass:    68.02621 amu.
 Principal axes and moments of inertia in atomic units:
                           1         2         3
     Eigenvalues --    84.30691 590.92350 650.87107
           X            1.00000   0.00002   0.00000
           Y           -0.00002   1.00000   0.00000
           Z           -0.00000  -0.00000   1.00000
 This molecule is an asymmetric top.
 Rotational symmetry number  1.
 Rotational temperatures (Kelvin)      1.02736     0.14657     0.13307
 Rotational constants (GHZ):          21.40680     3.05410     2.77281
 Zero-point vibrational energy     173226.8 (Joules/Mol)
                                   41.40221 (Kcal/Mol)
 Warning -- explicit consideration of   5 degrees of freedom as
           vibrations may cause significant error
 Vibrational temperatures:    185.58   244.37   661.76   846.73   875.60
          (Kelvin)           1037.12  1238.14  1290.39  1455.58  1468.76
                             1552.65  1594.41  1695.88  2047.15  2064.10
                             2144.96  3220.99  4441.08  4452.02  4565.04
                             4586.43

 Zero-point correction=                           0.065979 (Hartree/Particle)
 Thermal correction to Energy=                    0.071058
 Thermal correction to Enthalpy=                  0.072002
 Thermal correction to Gibbs Free Energy=         0.037325
 Sum of electronic and zero-point Energies=           -229.654834
 Sum of electronic and thermal Energies=              -229.649755
 Sum of electronic and thermal Enthalpies=            -229.648811
 Sum of electronic and thermal Free Energies=         -229.683488

                     E (Thermal)             CV                S
                      KCal/Mol        Cal/Mol-Kelvin    Cal/Mol-Kelvin
 Total                   44.589             16.809             72.984
 Electronic               0.000              0.000              1.377
 Translational            0.889              2.981             38.570
 Rotational               0.889              2.981             24.987
 Vibrational             42.812             10.848              8.050
 Vibration     1          0.611              1.924              2.961
 Vibration     2          0.625              1.880              2.437
 Vibration     3          0.818              1.339              0.766
 Vibration     4          0.946              1.056              0.470
 Vibration     5          0.967              1.014              0.435

 Normal termination of Gaussian 09 at Thu Jan 24 16:21:14 2019.
