 Gaussian 09, Revision D.01,
 Gaussian 09:  ES64L-G09RevD.01 24-Apr-2013

 ---------------------------
 #p b3lyp/6-311++g(d,p) freq
 ---------------------------

 ---
 min
 ---
 Symbolic Z-matrix:
 Charge =  1 Multiplicity = 4

                         Standard orientation:
 ---------------------------------------------------------------------
 Center     Atomic      Atomic             Coordinates (Angstroms)
 Number     Number       Type             X           Y           Z
 ---------------------------------------------------------------------
      1          6           0       -1.097713   -0.104172   -0.000047
      2          1           0       -2.183284   -0.130222   -0.000088
      3          6           0       -0.080721    0.953923    0.000074
      4          1           0       -0.129868    2.036710    0.000160
      5          6           0        1.029268   -0.055055    0.000032
      6          1           0        1.714189   -0.042612    0.871925
      7          1           0        1.714251   -0.042471   -0.871811
      8          6           0       -0.036716   -1.098264   -0.000090
 ---------------------------------------------------------------------

 SCF Done:  E(UB3LYP) =  -154.303997361     A.U. after   14 cycles

 The electronic state is 4-A.
 Alpha  occ. eigenvalues --  -10.51779 -10.49489 -10.47409 -10.44517  -1.16874
 Alpha  occ. eigenvalues --   -0.94239  -0.90167  -0.79781  -0.72352  -0.71244
 Alpha  occ. eigenvalues --   -0.66834  -0.63178  -0.57915  -0.52718  -0.46185
 Alpha virt. eigenvalues --   -0.28958  -0.15877  -0.14663  -0.14364  -0.12309
 Alpha virt. eigenvalues --   -0.11035  -0.09702  -0.08178  -0.07205  -0.07159
 Alpha virt. eigenvalues --   -0.06286  -0.05240  -0.03716  -0.01593  -0.00994

  Beta  occ. eigenvalues --  -10.50943 -10.46861 -10.46180 -10.44399  -1.13061
  Beta  occ. eigenvalues --   -0.92078  -0.85241  -0.78355  -0.68025  -0.66942
  Beta  occ. eigenvalues --   -0.64560  -0.61701
  Beta virt. eigenvalues --   -0.45413  -0.34739  -0.30382  -0.20540  -0.15522
  Beta virt. eigenvalues --   -0.13958  -0.13333  -0.11818  -0.10508  -0.08965
  Beta virt. eigenvalues --   -0.08042  -0.06540  -0.06169  -0.04765  -0.04122

 Mulliken charges and spin densities:
               1          2
     1  C   -0.092167   0.624427
     2  H    0.275225  -0.015407
     3  C    0.240443   0.761940
     4  H    0.289583   0.010627
     5  C   -0.717752   0.040781
     6  H    0.275601   0.079137
     7  H    0.275601   0.079137
     8  C    0.453466   1.419357
 Sum of Mulliken charges =   1.00000   3.00000

 Dipole moment (field-independent basis, Debye):
    X=             -0.3570    Y=              0.9806    Z=              0.0001  Tot=              1.0436
 Quadrupole moment (field-independent basis, Debye-Ang):
   XX=            -11.6077   YY=            -18.5105   ZZ=            -20.9302
   XY=              0.0713   XZ=              0.0003   YZ=              0.0002

  Exact polarizability:  44.275  -0.149  41.126   0.001   0.002  24.778
 Approx polarizability:  67.573  -0.528  68.841   0.001   0.003  36.056

                      1                      2                      3
                      A                      A                      A
 Frequencies --    277.2826               388.7760               532.5535
 Red. masses --      1.3982                 1.5484                 1.1404
 Frc consts  --      0.0633                 0.1379                 0.1906
 IR Inten    --     32.7224                 3.4267                23.6556

                      4                      5                      6
                      A                      A                      A
 Frequencies --    831.0172               875.0670               897.6676
 Red. masses --      1.9357                 2.2002                 1.1048
 Frc consts  --      0.7876                 0.9926                 0.5245
 IR Inten    --     74.3556                 4.3268                 2.5464

                      7                      8                      9
                      A                      A                      A
 Frequencies --    903.3184               954.0236              1069.9041
 Red. masses --      5.9347                 1.4856                 4.9101
 Frc consts  --      2.8532                 0.7966                 3.3115
 IR Inten    --      9.7307                17.5408                33.0786

                     10                     11                     12
                      A                      A                      A
 Frequencies --   1113.9591              1155.8104              1230.3005
 Red. masses --      1.6839                 3.0326                 1.0867
 Frc consts  --      1.2311                 2.3869                 0.9691
 IR Inten    --     24.6683                23.5546               149.2734

                     13                     14                     15
                      A                      A                      A
 Frequencies --   1271.9651              1300.4616              2908.1829
 Red. masses --      2.5759                 2.1649                 1.0843
 Frc consts  --      2.4554                 2.1572                 5.4030
 IR Inten    --      0.5593                 1.0744                63.7907

                     16                     17                     18
                      A                      A                      A
 Frequencies --   2918.3520              3201.9942              3215.9697
 Red. masses --      1.0615                 1.0928                 1.1046
 Frc consts  --      5.3266                 6.6012                 6.7311
 IR Inten    --    164.1246                49.9903                39.7296

 - Thermochemistry -
 -------------------
 Temperature   298.150 Kelvin.  Pressure   1.00000 Atm.
 Atom     1 has atomic number  6 and mass  12.00000

 Molecular mass:    52.03130 amu.
 Principal axes and moments of inertia in atomic units:
                           1         2         3
     Eigenvalues --   111.52561 141.13017 241.71259
           X            0.99995  -0.01045  -0.00004
           Y            0.01045   0.99995  -0.00008
           Z            0.00004   0.00008   1.00000
 This molecule is an asymmetric top.
 Rotational symmetry number  1.
 Rotational temperatures (Kelvin)      0.77663     0.61372     0.35833
 Rotational constants (GHZ):          16.18230    12.78778     7.46648
 Zero-point vibrational energy     149812.0 (Joules/Mol)
                                   35.80592 (Kcal/Mol)
 Warning -- explicit consideration of   3 degrees of freedom as
           vibrations may cause significant error
 Vibrational temperatures:    398.95   559.36   766.22  1195.65  1259.02
          (Kelvin)           1291.54  1299.67  1372.63  1539.35  1602.74
                             1662.95  1770.13  1830.07  1871.07  4184.22
                             4198.85  4606.95  4627.06

 Zero-point correction=                           0.057060 (Hartree/Particle)
 Thermal correction to Energy=                    0.061255
 Thermal correction to Enthalpy=                  0.062199
 Thermal correction to Gibbs Free Energy=         0.030117
 Sum of electronic and zero-point Energies=           -154.246937
 Sum of electronic and thermal Energies=              -154.242742
 Sum of electronic and thermal Enthalpies=            -154.241798
 Sum of electronic and thermal Free Energies=         -154.273880

                     E (Thermal)             CV                S
                      KCal/Mol        Cal/Mol-Kelvin    Cal/Mol-Kelvin
 Total                   38.438             14.222             67.522
 Electronic               0.000              0.000              2.755
 Translational            0.889              2.981             37.771
 Rotational               0.889              2.981             22.858
 Vibrational             36.661              8.260              4.139
 Vibration     1          0.678              1.715              1.550
 Vibration     2          0.757              1.494              1.005
 Vibration     3          0.888              1.178              0.582

 Normal termination of Gaussian 09 at Thu Jan 24 16:08:13 2019.
