 Gaussian 09, Revision D.01,
 Gaussian 09:  ES64L-G09RevD.01 24-Apr-2013

 ---------------------------
 #p b3lyp/6-311++g(d,p) freq
 ---------------------------

 ---
 min
 ---
 Symbolic Z-matrix:
 Charge =  1 Multiplicity = 4

                         Standard orientation:
 ---------------------------------------------------------------------
 Center     Atomic      Atomic             Coordinates (Angstroms)
 Number     Number       Type             X           Y           Z
 ---------------------------------------------------------------------
      1          6           0       -0.012203    0.021207   -0.080369
      2          6           0        1.471882   -0.098905    0.006925
      3          1           0        1.786057   -0.697230   -0.858400
      4          1           0        1.946188    0.880533   -0.030659
      5          1           0        1.737188   -0.623767    0.927370
      6          6           0       -0.897331    1.062035    0.012077
      7          6           0       -1.144282   -0.720164    0.126417
      8          1           0       -1.977831   -1.144577   -0.428612
 ---------------------------------------------------------------------

 SCF Done:  E(UB3LYP) =  -154.246475615     A.U. after   17 cycles

 The electronic state is 4-A.
 Alpha  occ. eigenvalues --  -10.56020 -10.52045 -10.51700 -10.41580  -1.17493
 Alpha  occ. eigenvalues --   -0.97948  -0.89439  -0.78564  -0.71911  -0.68011
 Alpha  occ. eigenvalues --   -0.66833  -0.61891  -0.60487  -0.56080  -0.47885
 Alpha virt. eigenvalues --   -0.27899  -0.26660  -0.15970  -0.13580  -0.10849
 Alpha virt. eigenvalues --   -0.10158  -0.10045  -0.09529  -0.08195  -0.07252
 Alpha virt. eigenvalues --   -0.06130  -0.05299  -0.03636  -0.02793  -0.02118

  Beta  occ. eigenvalues --  -10.52544 -10.52063 -10.49878 -10.41384  -1.13983
  Beta  occ. eigenvalues --   -0.96589  -0.83234  -0.74714  -0.70209  -0.66463
  Beta  occ. eigenvalues --   -0.62548  -0.57358
  Beta virt. eigenvalues --   -0.44489  -0.41390  -0.31784  -0.24042  -0.18713
  Beta virt. eigenvalues --   -0.15467  -0.13034  -0.10507  -0.09762  -0.09198
  Beta virt. eigenvalues --   -0.08563  -0.07758  -0.06681  -0.05611  -0.04585

 Mulliken charges and spin densities:
               1          2
     1  C    0.507380  -0.080828
     2  C   -0.661073   0.126877
     3  H    0.226416   0.016481
     4  H    0.224606   0.014723
     5  H    0.233725  -0.009078
     6  C    0.256969   1.784336
     7  C   -0.040030   1.145034
     8  H    0.252007   0.002456
 Sum of Mulliken charges =   1.00000   3.00000

 Dipole moment (field-independent basis, Debye):
    X=             -0.7651    Y=             -0.3948    Z=             -0.7219  Tot=              1.1236
 Quadrupole moment (field-independent basis, Debye-Ang):
   XX=            -10.7480   YY=            -17.3590   ZZ=            -22.0674
   XY=              0.9310   XZ=              1.3176   YZ=              0.6232

  Exact polarizability:  50.736  -0.830  41.615  -2.239   0.367  27.401
 Approx polarizability:  72.074  -4.242  79.379  -5.258  -0.637  38.213

                      1                      2                      3
                      A                      A                      A
 Frequencies --     44.0290               228.2220               353.3845
 Red. masses --      1.1373                 4.0833                 3.4498
 Frc consts  --      0.0013                 0.1253                 0.2538
 IR Inten    --      0.3458                71.0228                 3.5592

                      4                      5                      6
                      A                      A                      A
 Frequencies --    375.4120               584.7825               756.9206
 Red. masses --      2.2031                 2.1214                 1.2747
 Frc consts  --      0.1829                 0.4274                 0.4303
 IR Inten    --     46.8137                40.1610                32.6010

                      7                      8                      9
                      A                      A                      A
 Frequencies --    812.4991               945.2465               985.0249
 Red. masses --      4.7892                 1.5360                 1.7415
 Frc consts  --      1.8628                 0.8086                 0.9956
 IR Inten    --     17.9592                 6.9006                11.6605

                     10                     11                     12
                      A                      A                      A
 Frequencies --   1095.1579              1351.3133              1407.3780
 Red. masses --      2.1452                 1.2791                 1.0480
 Frc consts  --      1.5159                 1.3762                 1.2230
 IR Inten    --     16.6200                18.7862                21.9800

                     13                     14                     15
                      A                      A                      A
 Frequencies --   1447.6642              1512.2635              3013.7135
 Red. masses --      1.0479                 4.9287                 1.0412
 Frc consts  --      1.2940                 6.6411                 5.5716
 IR Inten    --     24.1972                36.1774                78.2790

                     16                     17                     18
                      A                      A                      A
 Frequencies --   3103.8478              3156.6719              3177.8109
 Red. masses --      1.0900                 1.1043                 1.0982
 Frc consts  --      6.1869                 6.4833                 6.5340
 IR Inten    --     14.8453                 5.5513               107.3776

 - Thermochemistry -
 -------------------
 Temperature   298.150 Kelvin.  Pressure   1.00000 Atm.
 Atom     1 has atomic number  6 and mass  12.00000

 Molecular mass:    52.03130 amu.
 Principal axes and moments of inertia in atomic units:
                           1         2         3
     Eigenvalues --    88.61978 240.21063 314.25652
           X            0.99927   0.03559   0.01380
           Y           -0.03593   0.99905   0.02466
           Z           -0.01290  -0.02514   0.99960
 This molecule is an asymmetric top.
 Rotational symmetry number  1.
 Rotational temperatures (Kelvin)      0.97736     0.36057     0.27562
 Rotational constants (GHZ):          20.36499     7.51316     5.74289
 Zero-point vibrational energy     145653.4 (Joules/Mol)
                                   34.81199 (Kcal/Mol)
 Warning -- explicit consideration of   5 degrees of freedom as
           vibrations may cause significant error
 Vibrational temperatures:     63.35   328.36   508.44   540.13   841.37
          (Kelvin)           1089.04  1169.00  1360.00  1417.23  1575.69
                             1944.24  2024.90  2082.86  2175.81  4336.06
                             4465.74  4541.74  4572.16

 Zero-point correction=                           0.055476 (Hartree/Particle)
 Thermal correction to Energy=                    0.060838
 Thermal correction to Enthalpy=                  0.061782
 Thermal correction to Gibbs Free Energy=         0.026443
 Sum of electronic and zero-point Energies=           -154.190999
 Sum of electronic and thermal Energies=              -154.185638
 Sum of electronic and thermal Enthalpies=            -154.184693
 Sum of electronic and thermal Free Energies=         -154.220033

                     E (Thermal)             CV                S
                      KCal/Mol        Cal/Mol-Kelvin    Cal/Mol-Kelvin
 Total                   38.176             16.758             74.379
 Electronic               0.000              0.000              2.755
 Translational            0.889              2.981             37.771
 Rotational               0.889              2.981             23.418
 Vibrational             36.399             10.797             10.435
 Vibration     1          0.595              1.980              5.069
 Vibration     2          0.651              1.798              1.893
 Vibration     3          0.730              1.568              1.151
 Vibration     4          0.746              1.522              1.058
 Vibration     5          0.942              1.064              0.477

 Normal termination of Gaussian 09 at Thu Jan 24 16:10:47 2019.
