 Gaussian 09, Revision D.01,
 Gaussian 09:  ES64L-G09RevD.01 24-Apr-2013

 ---------------------------
 #p b3lyp/6-311++g(d,p) freq
 ---------------------------

 ---
 min
 ---
 Symbolic Z-matrix:
 Charge =  0 Multiplicity = 1

                         Standard orientation:
 ---------------------------------------------------------------------
 Center     Atomic      Atomic             Coordinates (Angstroms)
 Number     Number       Type             X           Y           Z
 ---------------------------------------------------------------------
      1          8           0        0.324901   -1.978384    0.000000
      2          6           0       -0.000000    0.562997   -0.000000
      3          6           0       -0.139204   -0.864909    0.000000
      4          6           0       -1.242404    0.039296   -0.000000
      5          6           0        0.812050    1.799515   -0.000000
      6          1           0       -2.298735    0.280794   -0.000000
      7          1           0        1.464056    1.814315    0.878042
      8          1           0        0.188762    2.696252   -0.000000
      9          1           0        1.464056    1.814315   -0.878042
 ---------------------------------------------------------------------

 SCF Done:  E(RB3LYP) =  -230.038195288     A.U. after   13 cycles

 The electronic state is 1-A'.
 Alpha  occ. eigenvalues --  -19.10114 -10.27425 -10.23606 -10.22345 -10.20813
 Alpha  occ. eigenvalues --   -1.03693  -0.92166  -0.76778  -0.59543  -0.53399
 Alpha  occ. eigenvalues --   -0.47735  -0.46530  -0.45082  -0.41680  -0.41402
 Alpha  occ. eigenvalues --   -0.37314  -0.29736  -0.24106
 Alpha virt. eigenvalues --   -0.03997  -0.01835   0.00463   0.02212   0.02237
 Alpha virt. eigenvalues --    0.02963   0.04071   0.05341   0.07187   0.07631
 Alpha virt. eigenvalues --    0.08741   0.09688   0.10061   0.10290   0.11726

 Mulliken charges:
               1
     1  O   -0.378130
     2  C    0.388105
     3  C    0.023788
     4  C   -0.032919
     5  C   -0.661923
     6  H    0.157042
     7  H    0.169920
     8  H    0.164197
     9  H    0.169920
 Sum of Mulliken charges =  -0.00000

 Dipole moment (field-independent basis, Debye):
    X=             -1.0460    Y=              4.7362    Z=             -0.0000  Tot=              4.8503
 Quadrupole moment (field-independent basis, Debye-Ang):
   XX=            -25.9886   YY=            -35.2916   ZZ=            -28.8250
   XY=              2.6059   XZ=             -0.0000   YZ=              0.0000

  Exact polarizability:  50.767   0.452  60.611  -0.000   0.000  30.667
 Approx polarizability:  77.748  -3.365  86.835  -0.000  -0.000  43.692

                      1                      2                      3
                     A"                     A'                     A"
 Frequencies --    101.2241               232.9555               273.0279
 Red. masses --      1.0757                 3.6392                 2.5901
 Frc consts  --      0.0065                 0.1164                 0.1138
 IR Inten    --      1.7871                 1.0847                 4.1347

                      4                      5                      6
                     A'                     A"                     A'
 Frequencies --    556.6573               615.6552               743.3656
 Red. masses --      2.8182                 4.5948                 5.8014
 Frc consts  --      0.5145                 1.0261                 1.8888
 IR Inten    --      0.4177                 2.1086                 8.7723

                      7                      8                      9
                     A"                     A'                     A'
 Frequencies --    846.6234               856.5743               971.3079
 Red. masses --      1.5059                 2.0734                 2.0413
 Frc consts  --      0.6360                 0.8963                 1.1347
 IR Inten    --     30.4266                 9.8822                 0.7322

                     10                     11                     12
                     A"                     A'                     A'
 Frequencies --   1046.9188              1075.3104              1218.6821
 Red. masses --      1.5668                 2.4230                 3.1012
 Frc consts  --      1.0118                 1.6507                 2.7137
 IR Inten    --      3.3915                 6.9993                 3.0149

                     13                     14                     15
                     A'                     A'                     A"
 Frequencies --   1398.6511              1472.3958              1473.8129
 Red. masses --      1.2207                 1.0617                 1.0424
 Frc consts  --      1.4069                 1.3561                 1.3340
 IR Inten    --      3.5146                17.0876                 9.5442

                     16                     17                     18
                     A'                     A'                     A'
 Frequencies --   1664.5957              1920.3358              3030.4166
 Red. masses --      7.9141                11.0533                 1.0339
 Frc consts  --     12.9202                24.0157                 5.5939
 IR Inten    --    109.5411               697.1576                10.5630

                     19                     20                     21
                     A"                     A'                     A'
 Frequencies --   3090.3713              3107.8349              3186.9974
 Red. masses --      1.0989                 1.1043                 1.1120
 Frc consts  --      6.1835                 6.2844                 6.6546
 IR Inten    --      3.4432                14.6618                 1.9268

 - Thermochemistry -
 -------------------
 Temperature   298.150 Kelvin.  Pressure   1.00000 Atm.
 Atom     1 has atomic number  8 and mass  15.99491

 Molecular mass:    68.02621 amu.
 Principal axes and moments of inertia in atomic units:
                           1         2         3
     Eigenvalues --   134.50490 468.32936 591.73552
           X            0.14323   0.98969   0.00000
           Y            0.98969  -0.14323   0.00000
           Z            0.00000  -0.00000   1.00000
 This molecule is an asymmetric top.
 Rotational symmetry number  1.
 Rotational temperatures (Kelvin)      0.64395     0.18494     0.14637
 Rotational constants (GHZ):          13.41766     3.85357     3.04991
 Zero-point vibrational energy     172763.0 (Joules/Mol)
                                   41.29134 (Kcal/Mol)
 Warning -- explicit consideration of   5 degrees of freedom as
           vibrations may cause significant error
 Vibrational temperatures:    145.64   335.17   392.83   800.90   885.79
          (Kelvin)           1069.54  1218.10  1232.42  1397.49  1506.28
                             1547.13  1753.41  2012.34  2118.45  2120.49
                             2394.98  2762.93  4360.09  4446.35  4471.48
                             4585.37

 Zero-point correction=                           0.065802 (Hartree/Particle)
 Thermal correction to Energy=                    0.071032
 Thermal correction to Enthalpy=                  0.071976
 Thermal correction to Gibbs Free Energy=         0.037552
 Sum of electronic and zero-point Energies=           -229.972393
 Sum of electronic and thermal Energies=              -229.967163
 Sum of electronic and thermal Enthalpies=            -229.966219
 Sum of electronic and thermal Free Energies=         -230.000643

                     E (Thermal)             CV                S
                      KCal/Mol        Cal/Mol-Kelvin    Cal/Mol-Kelvin
 Total                   44.573             16.997             72.451
 Electronic               0.000              0.000              0.000
 Translational            0.889              2.981             38.570
 Rotational               0.889              2.981             25.125
 Vibrational             42.796             11.035              8.757
 Vibration     1          0.604              1.948              3.431
 Vibration     2          0.654              1.791              1.856
 Vibration     3          0.676              1.723              1.577
 Vibration     4          0.912              1.125              0.531
 Vibration     5          0.975              0.999              0.424

 Optimization completed.
    -- Stationary point found.
 Normal termination of Gaussian 09 at Sun Mar  4 21:21:27 2018.
