 Gaussian 09, Revision D.01,
 Gaussian 09:  ES64L-G09RevD.01 24-Apr-2013

 ---------------------------
 #p b3lyp/6-311++g(d,p) freq
 ---------------------------

 ---
 min
 ---
 Symbolic Z-matrix:
 Charge =  1 Multiplicity = 4

                         Standard orientation:
 ---------------------------------------------------------------------
 Center     Atomic      Atomic             Coordinates (Angstroms)
 Number     Number       Type             X           Y           Z
 ---------------------------------------------------------------------
      1          6           0       -0.000000    0.000000   -0.910956
      2          1           0       -0.882880    0.000000   -1.584954
      3          1           0        0.882880   -0.000000   -1.584954
      4          6           0        0.000000   -0.000000    1.111604
      5          6           0        0.000000    1.076949    0.136802
      6          1           0        0.000000    2.156459    0.162202
      7          6           0       -0.000000   -1.076949    0.136802
      8          1           0       -0.000000   -2.156459    0.162202
 ---------------------------------------------------------------------

 SCF Done:  E(UB3LYP) =  -154.310951336     A.U. after   12 cycles

 The electronic state is 4-B2.
 Alpha  occ. eigenvalues --  -10.53175 -10.47737 -10.47737 -10.45704  -1.17484
 Alpha  occ. eigenvalues --   -0.92900  -0.92545  -0.78252  -0.72132  -0.71932
 Alpha  occ. eigenvalues --   -0.67781  -0.64599  -0.57847  -0.51960  -0.47161
 Alpha virt. eigenvalues --   -0.27974  -0.16318  -0.14187  -0.13968  -0.12884
 Alpha virt. eigenvalues --   -0.12529  -0.08402  -0.08232  -0.07067  -0.06816
 Alpha virt. eigenvalues --   -0.06613  -0.05753  -0.02922  -0.02650  -0.00860

  Beta  occ. eigenvalues --  -10.51023 -10.46467 -10.46466 -10.45584  -1.13543
  Beta  occ. eigenvalues --   -0.89277  -0.88910  -0.76431  -0.67909  -0.66545
  Beta  occ. eigenvalues --   -0.65314  -0.63514
  Beta virt. eigenvalues --   -0.44503  -0.35401  -0.32438  -0.18705  -0.15971
  Beta virt. eigenvalues --   -0.13445  -0.13207  -0.12483  -0.11529  -0.08090
  Beta virt. eigenvalues --   -0.07820  -0.06359  -0.05799  -0.05513  -0.04752

 Mulliken charges and spin densities:
               1          2
     1  C   -0.591567  -0.097280
     2  H    0.277809   0.100567
     3  H    0.277809   0.100567
     4  C    0.254418   1.119663
     5  C    0.109974   0.914433
     6  H    0.280791  -0.026191
     7  C    0.109974   0.914433
     8  H    0.280791  -0.026191
 Sum of Mulliken charges =   1.00000   3.00000

 Dipole moment (field-independent basis, Debye):
    X=              0.0000    Y=             -0.0000    Z=             -1.0886  Tot=              1.0886
 Quadrupole moment (field-independent basis, Debye-Ang):
   XX=            -20.8541   YY=            -13.3616   ZZ=            -17.2961
   XY=              0.0000   XZ=             -0.0000   YZ=              0.0000

  Exact polarizability:  24.584   0.000  43.806  -0.000   0.000  41.542
 Approx polarizability:  35.950   0.000  67.111  -0.000  -0.000  68.414

                      1                      2                      3
                     B1                     A2                     B1
 Frequencies --    297.7101               364.9890               562.5653
 Red. masses --      1.6368                 1.2030                 1.0767
 Frc consts  --      0.0855                 0.0944                 0.2008
 IR Inten    --      7.9203                 0.0000                50.4848

                      4                      5                      6
                     B1                     A1                     A1
 Frequencies --    775.3774               879.3697               892.2189
 Red. masses --      3.0025                 4.4804                 1.9671
 Frc consts  --      1.0636                 2.0413                 0.9226
 IR Inten    --      5.7947                 0.7600                35.5293

                      7                      8                      9
                     B2                     A2                     B2
 Frequencies --    910.1183               922.3951              1058.0310
 Red. masses --      1.6838                 1.1152                 3.3647
 Frc consts  --      0.8217                 0.5590                 2.2192
 IR Inten    --     19.4139                 0.0000               114.8023

                     10                     11                     12
                     B2                     A1                     A1
 Frequencies --   1096.7523              1153.0197              1226.5858
 Red. masses --      1.4671                 4.2204                 1.0820
 Frc consts  --      1.0398                 3.3058                 0.9591
 IR Inten    --      0.4023                13.5122                61.5564

                     13                     14                     15
                     B2                     A1                     A1
 Frequencies --   1244.0109              1277.6621              2884.5917
 Red. masses --      2.5901                 2.4709                 1.0576
 Frc consts  --      2.3616                 2.3765                 5.1847
 IR Inten    --      4.9201                18.2853               138.8911

                     16                     17                     18
                     B1                     B2                     A1
 Frequencies --   2896.0533              3258.5748              3265.5310
 Red. masses --      1.0914                 1.0936                 1.1044
 Frc consts  --      5.3931                 6.8416                 6.9386
 IR Inten    --     43.7452               136.1977                 0.0574

 - Thermochemistry -
 -------------------
 Temperature   298.150 Kelvin.  Pressure   1.00000 Atm.
 Atom     1 has atomic number  6 and mass  12.00000

 Molecular mass:    52.03130 amu.
 Principal axes and moments of inertia in atomic units:
                           1         2         3
     Eigenvalues --   113.45152 138.48662 240.71677
           X           -0.00000   0.00000   1.00000
           Y            1.00000   0.00000   0.00000
           Z           -0.00000   1.00000  -0.00000
 This molecule is an asymmetric top.
 Rotational symmetry number  2.
 Rotational temperatures (Kelvin)      0.76344     0.62543     0.35982
 Rotational constants (GHZ):          15.90760    13.03188     7.49736
 Zero-point vibrational energy     149327.2 (Joules/Mol)
                                   35.69005 (Kcal/Mol)
 Warning -- explicit consideration of   3 degrees of freedom as
           vibrations may cause significant error
 Vibrational temperatures:    428.34   525.14   809.40  1115.59  1265.22
          (Kelvin)           1283.70  1309.46  1327.12  1522.27  1577.98
                             1658.94  1764.78  1789.85  1838.27  4150.28
                             4166.77  4688.36  4698.36

 Zero-point correction=                           0.056876 (Hartree/Particle)
 Thermal correction to Energy=                    0.061076
 Thermal correction to Enthalpy=                  0.062020
 Thermal correction to Gibbs Free Energy=         0.030602
 Sum of electronic and zero-point Energies=           -154.254076
 Sum of electronic and thermal Energies=              -154.249876
 Sum of electronic and thermal Enthalpies=            -154.248931
 Sum of electronic and thermal Free Energies=         -154.280349

                     E (Thermal)             CV                S
                      KCal/Mol        Cal/Mol-Kelvin    Cal/Mol-Kelvin
 Total                   38.326             14.349             66.124
 Electronic               0.000              0.000              2.755
 Translational            0.889              2.981             37.771
 Rotational               0.889              2.981             21.474
 Vibrational             36.548              8.387              4.124
 Vibration     1          0.691              1.678              1.430
 Vibration     2          0.738              1.544              1.101
 Vibration     3          0.918              1.112              0.519

 Normal termination of Gaussian 09 at Thu Jan 24 16:06:41 2019.
