 Gaussian 09, Revision D.01,
 Gaussian 09:  ES64L-G09RevD.01 24-Apr-2013

 ---------------------------
 #p b3lyp/6-311++g(d,p) freq
 ---------------------------

 ---
 min
 ---
 Symbolic Z-matrix:
 Charge =  0 Multiplicity = 1

                         Standard orientation:
 ---------------------------------------------------------------------
 Center     Atomic      Atomic             Coordinates (Angstroms)
 Number     Number       Type             X           Y           Z
 ---------------------------------------------------------------------
      1          6           0       -0.104004    1.082118   -0.000000
      2          6           0       -0.104004   -0.186533    0.803302
      3          1           0        0.828017    1.637116   -0.000000
      4          1           0       -0.990892    1.718762   -0.000000
      5          1           0       -0.812875   -0.434437    1.589022
      6          6           0        0.610115   -1.123553    0.000000
      7          6           0       -0.104004   -0.186533   -0.803302
      8          1           0       -0.812875   -0.434437   -1.589022
 ---------------------------------------------------------------------

 SCF Done:  E(RB3LYP) =  -154.696605734     A.U. after   12 cycles

 The electronic state is 1-A'.
 Alpha  occ. eigenvalues --  -10.23577 -10.23563 -10.21918 -10.18855  -0.95295
 Alpha  occ. eigenvalues --   -0.70575  -0.63003  -0.55875  -0.50787  -0.45300
 Alpha  occ. eigenvalues --   -0.37950  -0.34437  -0.33208  -0.23351
 Alpha virt. eigenvalues --   -0.04451  -0.01265  -0.00612   0.01000   0.01350
 Alpha virt. eigenvalues --    0.02839   0.06601   0.06877   0.07207   0.08064
 Alpha virt. eigenvalues --    0.08906   0.11618   0.11853   0.11968   0.12831

 Mulliken charges:
               1
     1  C   -0.472021
     2  C    0.113845
     3  H    0.169967
     4  H    0.123956
     5  H    0.168530
     6  C   -0.386652
     7  C    0.113845
     8  H    0.168530
 Sum of Mulliken charges =  -0.00000

 Dipole moment (field-independent basis, Debye):
    X=             -2.2739    Y=              3.0193    Z=              0.0000  Tot=              3.7798
 Quadrupole moment (field-independent basis, Debye-Ang):
   XX=            -24.9000   YY=            -29.2781   ZZ=            -22.9189
   XY=              3.2942   XZ=              0.0000   YZ=              0.0000

  Exact polarizability:  37.189  -4.597  49.895  -0.000  -0.000  43.351
 Approx polarizability:  54.165  -6.845  69.672  -0.000   0.000  72.370

                      1                      2                      3
                     A'                     A"                     A'
 Frequencies --    479.9844               731.0852               736.2439
 Red. masses --      3.8290                 3.2447                 1.6920
 Frc consts  --      0.5197                 1.0218                 0.5404
 IR Inten    --     19.4376                 0.0377                 3.8967

                      4                      5                      6
                     A"                     A'                     A'
 Frequencies --    891.0685               926.8675              1004.3809
 Red. masses --      2.2227                 1.7644                 1.4975
 Frc consts  --      1.0398                 0.8931                 0.8900
 IR Inten    --     11.9705                17.7501                 2.1217

                      7                      8                      9
                     A"                     A"                     A"
 Frequencies --   1005.3962              1093.5406              1099.8524
 Red. masses --      1.3041                 1.1818                 1.3068
 Frc consts  --      0.7767                 0.8327                 0.9314
 IR Inten    --      1.1807                 3.7011                 5.7979

                     10                     11                     12
                     A'                     A"                     A'
 Frequencies --   1131.7291              1224.1627              1227.6556
 Red. masses --      1.3881                 1.8794                 3.3717
 Frc consts  --      1.0475                 1.6594                 2.9940
 IR Inten    --      5.9101                 9.7681                 5.4737

                     13                     14                     15
                     A'                     A'                     A'
 Frequencies --   1398.0537              1518.5178              3061.2721
 Red. masses --      4.6737                 1.1541                 1.0605
 Frc consts  --      5.3822                 1.5679                 5.8556
 IR Inten    --     16.9736                 1.4823                49.4711

                     16                     17                     18
                     A"                     A'                     A'
 Frequencies --   3144.2684              3150.8989              3161.8316
 Red. masses --      1.0887                 1.0975                 1.1064
 Frc consts  --      6.3413                 6.4199                 6.5172
 IR Inten    --      6.0923                 0.6283                 9.2165

 - Thermochemistry -
 -------------------
 Temperature   298.150 Kelvin.  Pressure   1.00000 Atm.
 Atom     1 has atomic number  6 and mass  12.00000

 Molecular mass:    52.03130 amu.
 Principal axes and moments of inertia in atomic units:
                           1         2         3
     Eigenvalues --    92.60706 156.35975 210.71308
           X           -0.27229   0.00000   0.96222
           Y            0.96222   0.00000   0.27229
           Z            0.00000   1.00000   0.00000
 This molecule is an asymmetric top.
 Rotational symmetry number  1.
 Rotational temperatures (Kelvin)      0.93528     0.55394     0.41105
 Rotational constants (GHZ):          19.48816    11.54224     8.56492
 Zero-point vibrational energy     161417.0 (Joules/Mol)
                                   38.57958 (Kcal/Mol)
 Warning -- explicit consideration of   1 degrees of freedom as
           vibrations may cause significant error
 Vibrational temperatures:    690.59  1051.87  1059.29  1282.05  1333.55
          (Kelvin)           1445.08  1446.54  1573.36  1582.44  1628.30
                             1761.29  1766.32  2011.48  2184.81  4404.48
                             4523.90  4533.44  4549.16

 Zero-point correction=                           0.061480 (Hartree/Particle)
 Thermal correction to Energy=                    0.065044
 Thermal correction to Enthalpy=                  0.065988
 Thermal correction to Gibbs Free Energy=         0.036342
 Sum of electronic and zero-point Energies=           -154.635125
 Sum of electronic and thermal Energies=              -154.631562
 Sum of electronic and thermal Enthalpies=            -154.630618
 Sum of electronic and thermal Free Energies=         -154.660263

                     E (Thermal)             CV                S
                      KCal/Mol        Cal/Mol-Kelvin    Cal/Mol-Kelvin
 Total                   40.816             11.883             62.394
 Electronic               0.000              0.000              0.000
 Translational            0.889              2.981             37.771
 Rotational               0.889              2.981             22.638
 Vibrational             39.038              5.921              1.985
 Vibration     1          0.836              1.294              0.710

 Optimization completed.
    -- Stationary point found.

 1\1\ CITASK-GV1946\Freq\RB3LYP\6-311++G(d,p)\C4H4\EERD\04-Mar-2018\0\\
 #p b3lyp/6-311++g(d,p) freq\\min\\0,1\C,1.073998,0.0010700302,-0.16350
 4\C,-0.15553675,-0.803455156,0.145932668\H,1.384829,0.0014872601,-1.20
 2768\H,1.907787,0.0017964906,0.541253\H,-0.222238991,-1.589323953,0.89
 3777313\C,-1.239247,-0.0011479542,-0.317899\C,-0.1570892505,0.80314784
 29,0.146113332\H,-0.2253100121,1.5887180489,0.8941346868\\Version=ES64
 L-G09RevD.01\State=1-A'\HF=-154.6966057\RMSD=4.595e-09\RMSF=1.011e-04\
 ZeroPoint=0.0614805\Thermal=0.0650438\Dipole=1.3702589,0.0012591,0.577

 Normal termination of Gaussian 09 at Sun Mar  4 21:18:53 2018.
