 Gaussian 09, Revision D.01,
 Gaussian 09:  ES64L-G09RevD.01 24-Apr-2013

 ---------------------------
 #p b3lyp/6-311++g(d,p) freq
 ---------------------------

 ---
 min
 ---
 Symbolic Z-matrix:
 Charge =  1 Multiplicity = 2

                         Standard orientation:
 ---------------------------------------------------------------------
 Center     Atomic      Atomic             Coordinates (Angstroms)
 Number     Number       Type             X           Y           Z
 ---------------------------------------------------------------------
      1          6           0        1.129784   -0.128312    0.144927
      2          1           0        2.208839   -0.160889    0.146534
      3          6           0        0.117439    0.818928   -0.001415
      4          1           0        0.170719    1.789736   -0.500662
      5          6           0       -1.134806   -0.068491    0.100551
      6          1           0       -1.918922    0.076138   -0.639833
      7          1           0       -1.494890   -0.224059    1.115588
      8          6           0        0.059958   -0.868945   -0.264334
 ---------------------------------------------------------------------

 SCF Done:  E(UB3LYP) =  -154.406883224     A.U. after   15 cycles

 The electronic state is 2-A.
 Alpha  occ. eigenvalues --  -10.52510 -10.51133 -10.48055 -10.45852  -1.21590
 Alpha  occ. eigenvalues --   -0.96200  -0.88059  -0.79841  -0.74576  -0.68650
 Alpha  occ. eigenvalues --   -0.67937  -0.65757  -0.57852  -0.51246
 Alpha virt. eigenvalues --   -0.29854  -0.27566  -0.16112  -0.14668  -0.13133
 Alpha virt. eigenvalues --   -0.12497  -0.10921  -0.08843  -0.08220  -0.07002
 Alpha virt. eigenvalues --   -0.06088  -0.05460  -0.04548  -0.03177  -0.01412

  Beta  occ. eigenvalues --  -10.51129 -10.50737 -10.48094 -10.45761  -1.20506
  Beta  occ. eigenvalues --   -0.95875  -0.86174  -0.79686  -0.72085  -0.67596
  Beta  occ. eigenvalues --   -0.67422  -0.64315  -0.57134
  Beta virt. eigenvalues --   -0.37419  -0.27532  -0.26239  -0.15885  -0.14251
  Beta virt. eigenvalues --   -0.13086  -0.12316  -0.10669  -0.08665  -0.08134
  Beta virt. eigenvalues --   -0.07006  -0.05718  -0.04888  -0.04156  -0.03067

 Mulliken charges and spin densities:
               1          2
     1  C   -0.120284  -0.039951
     2  H    0.266567   0.004134
     3  C    0.162193   0.241838
     4  H    0.280635   0.034426
     5  C   -0.506469   0.050927
     6  H    0.237639   0.003270
     7  H    0.249990  -0.000123
     8  C    0.429730   0.705478
 Sum of Mulliken charges =   1.00000   1.00000

 Dipole moment (field-independent basis, Debye):
    X=              0.3871    Y=              0.9955    Z=             -0.0817  Tot=              1.0713
 Quadrupole moment (field-independent basis, Debye-Ang):
   XX=            -12.2184   YY=            -18.0873   ZZ=            -20.6866
   XY=             -0.0121   XZ=              0.0711   YZ=             -1.2479

  Exact polarizability:  41.689  -0.397  36.304   0.609   0.522  25.011
 Approx polarizability:  62.769  -0.871  67.962   2.691   4.072  37.015

                      1                      2                      3
                      A                      A                      A
 Frequencies --    480.9463               652.1433               699.8648
 Red. masses --      2.4038                 2.5503                 2.6676
 Frc consts  --      0.3276                 0.6390                 0.7698
 IR Inten    --      6.6577                16.1465                 8.2065

                      4                      5                      6
                      A                      A                      A
 Frequencies --    886.8784               901.0116               988.7412
 Red. masses --      1.3886                 1.8497                 1.2049
 Frc consts  --      0.6435                 0.8847                 0.6940
 IR Inten    --     23.6431                37.7255                 6.2246

                      7                      8                      9
                      A                      A                      A
 Frequencies --   1040.8768              1042.4813              1074.0431
 Red. masses --      1.3929                 1.7010                 1.3717
 Frc consts  --      0.8891                 1.0892                 0.9323
 IR Inten    --      3.6935                 4.7888                15.0278

                     10                     11                     12
                      A                      A                      A
 Frequencies --   1134.8469              1188.6509              1245.7708
 Red. masses --      1.7864                 1.9560                 2.2599
 Frc consts  --      1.3555                 1.6282                 2.0664
 IR Inten    --      0.2756                10.3954                46.3492

                     13                     14                     15
                      A                      A                      A
 Frequencies --   1473.0769              1526.6739              3103.4954
 Red. masses --      1.3279                 3.4340                 1.0569
 Frc consts  --      1.6977                 4.7157                 5.9979
 IR Inten    --      3.1634                13.0429                24.4720

                     16                     17                     18
                      A                      A                      A
 Frequencies --   3109.5545              3186.8363              3273.0094
 Red. masses --      1.0920                 1.1174                 1.1135
 Frc consts  --      6.2210                 6.6864                 7.0279
 IR Inten    --     44.1420                17.4239                67.7214

 - Thermochemistry -
 -------------------
 Temperature   298.150 Kelvin.  Pressure   1.00000 Atm.
 Atom     1 has atomic number  6 and mass  12.00000

 Molecular mass:    52.03130 amu.
 Principal axes and moments of inertia in atomic units:
                           1         2         3
     Eigenvalues --    84.92981 160.47989 223.49157
           X            0.99998   0.00448  -0.00540
           Y           -0.00484   0.99764  -0.06850
           Z            0.00508   0.06853   0.99764
 This molecule is an asymmetric top.
 Rotational symmetry number  1.
 Rotational temperatures (Kelvin)      1.01983     0.53972     0.38755
 Rotational constants (GHZ):          21.24980    11.24590     8.07521
 Zero-point vibrational energy     161549.1 (Joules/Mol)
                                   38.61116 (Kcal/Mol)
 Warning -- explicit consideration of   1 degrees of freedom as
           vibrations may cause significant error
 Vibrational temperatures:    691.97   938.29  1006.95  1276.02  1296.35
          (Kelvin)           1422.58  1497.59  1499.90  1545.31  1632.79
                             1710.20  1792.38  2119.43  2196.54  4465.23
                             4473.95  4585.14  4709.12

 Zero-point correction=                           0.061531 (Hartree/Particle)
 Thermal correction to Energy=                    0.065151
 Thermal correction to Enthalpy=                  0.066095
 Thermal correction to Gibbs Free Energy=         0.035718
 Sum of electronic and zero-point Energies=           -154.345352
 Sum of electronic and thermal Energies=              -154.341733
 Sum of electronic and thermal Enthalpies=            -154.340789
 Sum of electronic and thermal Free Energies=         -154.371165

                     E (Thermal)             CV                S
                      KCal/Mol        Cal/Mol-Kelvin    Cal/Mol-Kelvin
 Total                   40.883             12.176             63.934
 Electronic               0.000              0.000              1.377
 Translational            0.889              2.981             37.771
 Rotational               0.889              2.981             22.637
 Vibrational             39.105              6.214              2.149
 Vibration     1          0.837              1.292              0.708

 Normal termination of Gaussian 09 at Thu Jan 24 16:03:01 2019.
