 Gaussian 09, Revision D.01,
 Gaussian 09:  ES64L-G09RevD.01 24-Apr-2013

 ---------------------------
 #p b3lyp/6-311++g(d,p) freq
 ---------------------------

 ---
 min
 ---
 Symbolic Z-matrix:
 Charge =  1 Multiplicity = 2

                         Standard orientation:
 ---------------------------------------------------------------------
 Center     Atomic      Atomic             Coordinates (Angstroms)
 Number     Number       Type             X           Y           Z
 ---------------------------------------------------------------------
      1          6           0       -1.101717    0.423337    0.000000
      2          6           0        0.538188   -1.057881    0.000000
      3          8           0       -0.689914   -1.021223    0.000000
      4          6           0        1.216158    0.257780    0.000000
      5          6           0        0.000000    1.156984    0.000000
      6          1           0       -2.172551    0.541025    0.000000
      7          1           0        1.868450    0.355092    0.879729
      8          1           0        1.868450    0.355092   -0.879729
      9          1           0        0.039191    2.237257    0.000000
 ---------------------------------------------------------------------

 SCF Done:  E(UB3LYP) =  -229.689418766     A.U. after   16 cycles

 The electronic state is 2-A'.
 Alpha  occ. eigenvalues --  -19.48918 -10.57224 -10.47877 -10.45239 -10.43068
 Alpha  occ. eigenvalues --   -1.42212  -1.07445  -1.00955  -0.87829  -0.81614
 Alpha  occ. eigenvalues --   -0.77599  -0.74912  -0.68956  -0.67116  -0.65986
 Alpha  occ. eigenvalues --   -0.64272  -0.54606  -0.51789
 Alpha virt. eigenvalues --   -0.32470  -0.22543  -0.17000  -0.15064  -0.12468
 Alpha virt. eigenvalues --   -0.12173  -0.11977  -0.11099  -0.08895  -0.08248
 Alpha virt. eigenvalues --   -0.06872  -0.05401  -0.04103  -0.03462  -0.02150

  Beta  occ. eigenvalues --  -19.48859 -10.55533 -10.47674 -10.45026 -10.43044
  Beta  occ. eigenvalues --   -1.41667  -1.06811  -0.99486  -0.87240  -0.80654
  Beta  occ. eigenvalues --   -0.75849  -0.74533  -0.67401  -0.66592  -0.66104
  Beta  occ. eigenvalues --   -0.63941  -0.51486
  Beta virt. eigenvalues --   -0.38201  -0.30262  -0.22351  -0.16483  -0.14373
  Beta virt. eigenvalues --   -0.12327  -0.12117  -0.11828  -0.10980  -0.08661
  Beta virt. eigenvalues --   -0.07808  -0.06816  -0.05252  -0.03669  -0.03223

 Mulliken charges and spin densities:
               1          2
     1  C   -0.242660   0.102308
     2  C    0.394879   0.872188
     3  O    0.151558  -0.048844
     4  C   -0.637078   0.075223
     5  C    0.235004   0.003547
     6  H    0.284457   0.003786
     7  H    0.270254  -0.004333
     8  H    0.270254  -0.004333
     9  H    0.273331   0.000459
 Sum of Mulliken charges =   1.00000   1.00000

 Dipole moment (field-independent basis, Debye):
    X=              1.4122    Y=              1.1593    Z=              0.0000  Tot=              1.8272
 Quadrupole moment (field-independent basis, Debye-Ang):
   XX=            -16.5564   YY=            -21.3619   ZZ=            -26.2576
   XY=             -0.8556   XZ=              0.0000   YZ=              0.0000

  Exact polarizability:  47.516   1.019  41.861   0.000   0.000  27.128
 Approx polarizability:  78.014   6.770  65.788  -0.000  -0.000  39.734

                      1                      2                      3
                     A"                     A"                     A'
 Frequencies --    308.8820               485.1597               649.2686
 Red. masses --      1.6149                 3.2208                11.0801
 Frc consts  --      0.0908                 0.4467                 2.7520
 IR Inten    --      5.1625                18.1039                36.1908

                      4                      5                      6
                     A"                     A'                     A'
 Frequencies --    718.6272               791.4975               832.4733
 Red. masses --      1.3957                 8.2848                 6.2746
 Frc consts  --      0.4247                 3.0580                 2.5620
 IR Inten    --     53.7533                 6.4520                 3.4774

                      7                      8                      9
                     A"                     A"                     A'
 Frequencies --    840.4311               918.0043               936.3345
 Red. masses --      1.6105                 1.4733                 2.0413
 Frc consts  --      0.6702                 0.7316                 1.0544
 IR Inten    --      8.4049                 1.5063                 6.5067

                     10                     11                     12
                     A'                     A"                     A'
 Frequencies --    964.2553              1102.7786              1118.5794
 Red. masses --      3.6692                 1.1463                 1.1644
 Frc consts  --      2.0101                 0.8214                 0.8584
 IR Inten    --     13.6350                 1.4189                 4.9945

                     13                     14                     15
                     A'                     A'                     A'
 Frequencies --   1243.5961              1245.3300              1347.6408
 Red. masses --      1.3592                 1.7830                 1.0956
 Frc consts  --      1.2385                 1.6292                 1.1723
 IR Inten    --     10.7694                44.3362                71.6224

                     16                     17                     18
                     A'                     A'                     A'
 Frequencies --   1603.1762              1656.3393              3022.0771
 Red. masses --      6.7541                 6.9992                 1.0619
 Frc consts  --     10.2278                11.3134                 5.7139
 IR Inten    --     21.7607                54.7976                57.8449

                     19                     20                     21
                     A"                     A'                     A'
 Frequencies --   3047.0724              3238.5068              3298.5140
 Red. masses --      1.0984                 1.0954                 1.1119
 Frc consts  --      6.0084                 6.7686                 7.1277
 IR Inten    --     35.9801                37.7661                43.1090

 - Thermochemistry -
 -------------------
 Temperature   298.150 Kelvin.  Pressure   1.00000 Atm.
 Atom     1 has atomic number  6 and mass  12.00000

 Molecular mass:    68.02621 amu.
 Principal axes and moments of inertia in atomic units:
                           1         2         3
     Eigenvalues --   191.51650 211.37415 391.74922
           X            0.74557  -0.66643   0.00000
           Y            0.66643   0.74557   0.00000
           Z            0.00000   0.00000   1.00000
 This molecule is an asymmetric top.
 Rotational symmetry number  1.
 Rotational temperatures (Kelvin)      0.45225     0.40977     0.22110
 Rotational constants (GHZ):           9.42342     8.53814     4.60688
 Zero-point vibrational energy     175662.9 (Joules/Mol)
                                   41.98444 (Kcal/Mol)
 Warning -- explicit consideration of   2 degrees of freedom as
           vibrations may cause significant error
 Vibrational temperatures:    444.41   698.04   934.15  1033.94  1138.79
          (Kelvin)           1197.74  1209.19  1320.80  1347.17  1387.35
                             1586.65  1609.38  1789.26  1791.75  1938.95
                             2306.61  2383.10  4348.09  4384.05  4659.48
                             4745.82

 Zero-point correction=                           0.066906 (Hartree/Particle)
 Thermal correction to Energy=                    0.071072
 Thermal correction to Enthalpy=                  0.072016
 Thermal correction to Gibbs Free Energy=         0.039659
 Sum of electronic and zero-point Energies=           -229.622512
 Sum of electronic and thermal Energies=              -229.618347
 Sum of electronic and thermal Enthalpies=            -229.617402
 Sum of electronic and thermal Free Energies=         -229.649760

                     E (Thermal)             CV                S
                      KCal/Mol        Cal/Mol-Kelvin    Cal/Mol-Kelvin
 Total                   44.598             14.940             68.101
 Electronic               0.000              0.000              1.377
 Translational            0.889              2.981             38.570
 Rotational               0.889              2.981             24.276
 Vibrational             42.821              8.978              3.878
 Vibration     1          0.698              1.657              1.368
 Vibration     2          0.841              1.283              0.696

 Optimization completed.
    -- Stationary point found.
 Normal termination of Gaussian 09 at Thu Jan 24 16:16:03 2019.
