 Gaussian 09, Revision D.01,
 Gaussian 09:  ES64L-G09RevD.01 24-Apr-2013

 ---------------------------
 #p b3lyp/6-311++g(d,p) freq
 ---------------------------

 ---
 min
 ---
 Symbolic Z-matrix:
 Charge =  0 Multiplicity = 3

                         Standard orientation:
 ---------------------------------------------------------------------
 Center     Atomic      Atomic             Coordinates (Angstroms)
 Number     Number       Type             X           Y           Z
 ---------------------------------------------------------------------
      1          6           0        0.000000    0.799751   -0.583178
      2          1           0       -0.902293    1.229802   -1.022718
      3          1           0        0.902293    1.229802   -1.022718
      4          6           0       -0.000000   -0.799751   -0.583178
      5          1           0       -0.902293   -1.229802   -1.022718
      6          1           0        0.902293   -1.229802   -1.022718
      7          6           0        0.000000    0.667566    0.924085
      8          6           0       -0.000000   -0.667566    0.924085
 ---------------------------------------------------------------------

 SCF Done:  E(UB3LYP) =  -154.634040952     A.U. after   12 cycles

 The electronic state is 3-B2.
 Alpha  occ. eigenvalues --  -10.21350 -10.21328 -10.21325 -10.21248  -0.89678
 Alpha  occ. eigenvalues --   -0.67719  -0.66902  -0.49292  -0.46511  -0.46150
 Alpha  occ. eigenvalues --   -0.40682  -0.39892  -0.28230  -0.27454  -0.24195
 Alpha virt. eigenvalues --   -0.00917  -0.00228   0.01301   0.01503   0.03751
 Alpha virt. eigenvalues --    0.05040   0.06376   0.06690   0.07970   0.09191
 Alpha virt. eigenvalues --    0.09662   0.11149   0.12627   0.13113   0.13577

  Beta  occ. eigenvalues --  -10.20971 -10.20957 -10.19780 -10.19704  -0.87246
  Beta  occ. eigenvalues --   -0.65496  -0.65478  -0.48872  -0.42715  -0.42586
  Beta  occ. eigenvalues --   -0.39567  -0.38066  -0.25757
  Beta virt. eigenvalues --   -0.13223  -0.08616  -0.00829   0.01539   0.01682
  Beta virt. eigenvalues --    0.02189   0.04412   0.05042   0.06850   0.06925
  Beta virt. eigenvalues --    0.08346   0.09240   0.10030   0.11804   0.12814

 Mulliken charges and spin densities:
               1          2
     1  C   -0.345449   0.140148
     2  H    0.147859   0.010752
     3  H    0.147859   0.010752
     4  C   -0.345449   0.140148
     5  H    0.147859   0.010752
     6  H    0.147859   0.010752
     7  C    0.049731   0.838348
     8  C    0.049731   0.838348
 Sum of Mulliken charges =   0.00000   2.00000

 Dipole moment (field-independent basis, Debye):
    X=              0.0000    Y=             -0.0000    Z=             -2.3223  Tot=              2.3223
 Quadrupole moment (field-independent basis, Debye-Ang):
   XX=            -24.4138   YY=            -24.7454   ZZ=            -26.3051
   XY=             -0.0000   XZ=              0.0000   YZ=              0.0000

  Exact polarizability:  38.908  -0.000  49.960   0.000   0.000  47.094
 Approx polarizability:  51.761   0.000  81.653  -0.000   0.000  65.653

                      1                      2                      3
                     A2                     A1                     B1
 Frequencies --    319.3357               767.9678               775.6522
 Red. masses --      2.6613                 5.8849                 1.1117
 Frc consts  --      0.1599                 2.0449                 0.3941
 IR Inten    --      0.0000                 1.5762                13.9424

                      4                      5                      6
                     B2                     B2                     A2
 Frequencies --    790.2601               954.6353               964.6741
 Red. masses --      7.2876                 3.9548                 1.5255
 Frc consts  --      2.6815                 2.1235                 0.8364
 IR Inten    --      5.5441                 5.0831                 0.0000

                      7                      8                      9
                     A1                     B1                     A2
 Frequencies --   1022.4032              1043.1309              1105.6500
 Red. masses --      3.6482                 1.1111                 1.1252
 Frc consts  --      2.2468                 0.7123                 0.8104
 IR Inten    --      1.0523                 0.4013                 0.0000

                     10                     11                     12
                     A1                     B2                     B2
 Frequencies --   1116.0742              1204.2233              1453.9018
 Red. masses --      1.2806                 1.5201                 1.0875
 Frc consts  --      0.9398                 1.2988                 1.3544
 IR Inten    --     19.2009                14.7043                 0.4382

                     13                     14                     15
                     A1                     A1                     B2
 Frequencies --   1470.4627              1612.9995              3043.3975
 Red. masses --      1.1523                 8.7070                 1.0513
 Frc consts  --      1.4679                13.3471                 5.7373
 IR Inten    --      2.2327                 3.2898                19.2321

                     16                     17                     18
                     A1                     A2                     B1
 Frequencies --   3048.3188              3103.8521              3118.1177
 Red. masses --      1.0541                 1.1119                 1.1116
 Frc consts  --      5.7710                 6.3112                 6.3675
 IR Inten    --     29.0288                 0.0000                20.9467

 - Thermochemistry -
 -------------------
 Temperature   298.150 Kelvin.  Pressure   1.00000 Atm.
 Atom     1 has atomic number  6 and mass  12.00000

 Molecular mass:    52.03130 amu.
 Principal axes and moments of inertia in atomic units:
                           1         2         3
     Eigenvalues --   126.50465 127.98212 231.04621
           X            0.00000   0.00000   1.00000
           Y            0.00000   1.00000  -0.00000
           Z            1.00000  -0.00000  -0.00000
 This molecule is an asymmetric top.
 Rotational symmetry number  2.
 Rotational temperatures (Kelvin)      0.68467     0.67676     0.37488
 Rotational constants (GHZ):          14.26621    14.10151     7.81117
 Zero-point vibrational energy     160987.8 (Joules/Mol)
                                   38.47700 (Kcal/Mol)
 Warning -- explicit consideration of   1 degrees of freedom as
           vibrations may cause significant error
 Vibrational temperatures:    459.45  1104.93  1115.99  1137.01  1373.51
          (Kelvin)           1387.95  1471.01  1500.83  1590.78  1605.78
                             1732.61  2091.84  2115.67  2320.74  4378.76
                             4385.85  4465.75  4486.27

 Zero-point correction=                           0.061317 (Hartree/Particle)
 Thermal correction to Energy=                    0.065031
 Thermal correction to Enthalpy=                  0.065975
 Thermal correction to Gibbs Free Energy=         0.035572
 Sum of electronic and zero-point Energies=           -154.572724
 Sum of electronic and thermal Energies=              -154.569010
 Sum of electronic and thermal Enthalpies=            -154.568066
 Sum of electronic and thermal Free Energies=         -154.598469

                     E (Thermal)             CV                S
                      KCal/Mol        Cal/Mol-Kelvin    Cal/Mol-Kelvin
 Total                   40.808             12.160             63.988
 Electronic               0.000              0.000              2.183
 Translational            0.889              2.981             37.771
 Rotational               0.889              2.981             21.463
 Vibrational             39.030              6.199              2.571
 Vibration     1          0.705              1.637              1.314

 Optimization completed.
    -- Stationary point found.
 Normal termination of Gaussian 09 at Sun Mar  4 21:18:43 2018.
