 Gaussian 09, Revision D.01,
 Gaussian 09:  ES64L-G09RevD.01 24-Apr-2013

 ---------------------------
 #p b3lyp/6-311++g(d,p) freq
 ---------------------------

 ---
 min
 ---
 Symbolic Z-matrix:
 Charge =  0 Multiplicity = 3

                         Standard orientation:
 ---------------------------------------------------------------------
 Center     Atomic      Atomic             Coordinates (Angstroms)
 Number     Number       Type             X           Y           Z
 ---------------------------------------------------------------------
      1          6           0       -0.076858   -0.000079    0.480372
      2          1           0       -0.102769   -0.000260    1.571951
      3          6           0       -1.415229    0.000033   -0.198396
      4          1           0       -1.996878   -0.881587    0.095949
      5          1           0       -1.996878    0.881556    0.096240
      6          1           0       -1.308090    0.000212   -1.284661
      7          6           0        1.196428   -0.646383   -0.181052
      8          6           0        1.196428    0.646443   -0.180838
 ---------------------------------------------------------------------

 SCF Done:  E(UB3LYP) =  -154.606574037     A.U. after   18 cycles

 The electronic state is 3-A.
 Alpha  occ. eigenvalues --  -10.24363 -10.23827 -10.23706 -10.18008  -0.90442
 Alpha  occ. eigenvalues --   -0.74654  -0.59428  -0.49418  -0.47286  -0.42437
 Alpha  occ. eigenvalues --   -0.41649  -0.38997  -0.33556  -0.28806  -0.24734
 Alpha virt. eigenvalues --   -0.01599  -0.00600   0.01381   0.02760   0.03455
 Alpha virt. eigenvalues --    0.05134   0.05623   0.06297   0.07787   0.08763
 Alpha virt. eigenvalues --    0.10857   0.11029   0.11279   0.12431   0.12729

  Beta  occ. eigenvalues --  -10.23619 -10.22363 -10.22257 -10.18047  -0.87929
  Beta  occ. eigenvalues --   -0.73866  -0.57545  -0.46323  -0.44460  -0.41242
  Beta  occ. eigenvalues --   -0.37750  -0.37183  -0.27354
  Beta virt. eigenvalues --   -0.17995  -0.11742  -0.00453   0.00664   0.01459
  Beta virt. eigenvalues --    0.02925   0.03815   0.05487   0.06177   0.06554
  Beta virt. eigenvalues --    0.07948   0.09730   0.11134   0.11421   0.12197

 Mulliken charges and spin densities:
               1          2
     1  C    0.113877   0.472700
     2  H    0.166274  -0.022550
     3  C   -0.573934   0.007778
     4  H    0.144441   0.022010
     5  H    0.144441   0.022010
     6  H    0.145376  -0.004442
     7  C   -0.070237   0.751247
     8  C   -0.070237   0.751247
 Sum of Mulliken charges =  -0.00000   2.00000

 Dipole moment (field-independent basis, Debye):
    X=             -1.7259    Y=             -0.0001    Z=              0.7770  Tot=              1.8927
 Quadrupole moment (field-independent basis, Debye-Ang):
   XX=            -25.9742   YY=            -25.6116   ZZ=            -24.5939
   XY=             -0.0001   XZ=              0.3971   YZ=             -0.0002

  Exact polarizability:  58.215  -0.001  45.494   3.447  -0.002  55.550
 Approx polarizability:  72.360   0.001  85.281  -7.536   0.005  57.649

                      1                      2                      3
                      A                      A                      A
 Frequencies --    153.3919               294.9343               418.7304
 Red. masses --      1.1338                 4.3281                 3.1970
 Frc consts  --      0.0157                 0.2218                 0.3303
 IR Inten    --      0.0000                 0.0183                 4.5883

                      4                      5                      6
                      A                      A                      A
 Frequencies --    616.5692               770.7720               826.3855
 Red. masses --      7.1974                 3.7440                 1.1491
 Frc consts  --      1.6121                 1.3105                 0.4624
 IR Inten    --      6.8842                10.6853                37.6453

                      7                      8                      9
                      A                      A                      A
 Frequencies --   1028.5441              1039.8463              1097.0640
 Red. masses --      1.5744                 1.5155                 3.2995
 Frc consts  --      0.9813                 0.9655                 2.3397
 IR Inten    --     64.0056                15.1271                11.2547

                     10                     11                     12
                      A                      A                      A
 Frequencies --   1359.6413              1402.6788              1475.3736
 Red. masses --      1.2461                 1.2548                 1.0455
 Frc consts  --      1.3572                 1.4545                 1.3409
 IR Inten    --     35.4549                 9.1646                 8.0298

                     13                     14                     15
                      A                      A                      A
 Frequencies --   1479.1272              1704.3455              3006.5322
 Red. masses --      1.0514                11.1437                 1.0376
 Frc consts  --      1.3553                19.0720                 5.5262
 IR Inten    --     15.4028                64.2889                11.4806

                     16                     17                     18
                      A                      A                      A
 Frequencies --   3054.0503              3055.6781              3107.7778
 Red. masses --      1.0990                 1.0805                 1.0997
 Frc consts  --      6.0393                 5.9442                 6.2578
 IR Inten    --     15.7331                13.8873                 5.7752

 - Thermochemistry -
 -------------------
 Temperature   298.150 Kelvin.  Pressure   1.00000 Atm.
 Atom     1 has atomic number  6 and mass  12.00000

 Molecular mass:    52.03130 amu.
 Principal axes and moments of inertia in atomic units:
                           1         2         3
     Eigenvalues --    70.60185 270.95455 283.16494
           X            0.99984   0.00000   0.01809
           Y            0.00000   1.00000  -0.00017
           Z           -0.01809   0.00017   0.99984
 This molecule is an asymmetric top.
 Rotational symmetry number  1.
 Rotational temperatures (Kelvin)      1.22679     0.31966     0.30588
 Rotational constants (GHZ):          25.56224     6.66068     6.37346
 Zero-point vibrational energy     154865.2 (Joules/Mol)
                                   37.01367 (Kcal/Mol)
 Warning -- explicit consideration of   4 degrees of freedom as
           vibrations may cause significant error
 Vibrational temperatures:    220.70   424.34   602.46   887.10  1108.97
          (Kelvin)           1188.98  1479.84  1496.11  1578.43  1956.22
                             2018.14  2122.73  2128.13  2452.17  4325.72
                             4394.09  4396.43  4471.39

 Zero-point correction=                           0.058985 (Hartree/Particle)
 Thermal correction to Energy=                    0.063601
 Thermal correction to Enthalpy=                  0.064546
 Thermal correction to Gibbs Free Energy=         0.031633
 Sum of electronic and zero-point Energies=           -154.547589
 Sum of electronic and thermal Energies=              -154.542973
 Sum of electronic and thermal Enthalpies=            -154.542028
 Sum of electronic and thermal Free Energies=         -154.574942

                     E (Thermal)             CV                S
                      KCal/Mol        Cal/Mol-Kelvin    Cal/Mol-Kelvin
 Total                   39.910             14.669             69.271
 Electronic               0.000              0.000              2.183
 Translational            0.889              2.981             37.771
 Rotational               0.889              2.981             23.209
 Vibrational             38.133              8.707              6.109
 Vibration     1          0.619              1.899              2.630
 Vibration     2          0.689              1.683              1.445
 Vibration     3          0.782              1.430              0.896
 Vibration     4          0.976              0.997              0.422

 Optimization completed.
    -- Stationary point found.
 Normal termination of Gaussian 09 at Sun Mar  4 21:21:10 2018.
