 Gaussian 09, Revision D.01,
 Gaussian 09:  ES64L-G09RevD.01 24-Apr-2013

 ---------------------------
 #p b3lyp/6-311++g(d,p) freq
 ---------------------------

 ---
 min
 ---
 Symbolic Z-matrix:
 Charge =  1 Multiplicity = 4

                         Standard orientation:
 ---------------------------------------------------------------------
 Center     Atomic      Atomic             Coordinates (Angstroms)
 Number     Number       Type             X           Y           Z
 ---------------------------------------------------------------------
      1          6           0        1.314617    1.042342    0.000000
      2          1           0        1.546019    2.102612    0.000000
      3          1           0        2.146570    0.344132    0.000000
      4          6           0       -0.000000    0.602498    0.000000
      5          1           0       -0.816112    1.317621    0.000000
      6          6           0       -1.589124   -1.243670   -0.000000
      7          6           0       -0.290419   -0.775677   -0.000000
      8          1           0        0.513075   -1.517326   -0.000000
 ---------------------------------------------------------------------

 SCF Done:  E(UB3LYP) =  -154.308745303     A.U. after   15 cycles

 The electronic state is 4-A".
 Alpha  occ. eigenvalues --  -10.52233 -10.48035 -10.46456 -10.45539  -1.09172
 Alpha  occ. eigenvalues --   -1.00733  -0.86099  -0.79996  -0.71590  -0.69625
 Alpha  occ. eigenvalues --   -0.62817  -0.62329  -0.60881  -0.52021  -0.48312
 Alpha virt. eigenvalues --   -0.32405  -0.20543  -0.15102  -0.14291  -0.12418
 Alpha virt. eigenvalues --   -0.09808  -0.09314  -0.08517  -0.07758  -0.06026
 Alpha virt. eigenvalues --   -0.05326  -0.03879  -0.03825  -0.03017  -0.01575

  Beta  occ. eigenvalues --  -10.48146 -10.47745 -10.45791 -10.45317  -1.06944
  Beta  occ. eigenvalues --   -0.96442  -0.82992  -0.77542  -0.70171  -0.66720
  Beta  occ. eigenvalues --   -0.62248  -0.57276
  Beta virt. eigenvalues --   -0.40702  -0.40590  -0.28187  -0.25732  -0.17502
  Beta virt. eigenvalues --   -0.14783  -0.14114  -0.11732  -0.09346  -0.09005
  Beta virt. eigenvalues --   -0.08050  -0.07118  -0.05317  -0.04838  -0.02974

 Mulliken charges and spin densities:
               1          2
     1  C   -0.267816   0.501715
     2  H    0.244276  -0.019653
     3  H    0.214514  -0.019546
     4  C    0.157915   0.103810
     5  H    0.241300   0.000054
     6  C    0.246006   2.212410
     7  C   -0.071866   0.165055
     8  H    0.235670   0.056155
 Sum of Mulliken charges =   1.00000   3.00000

 Dipole moment (field-independent basis, Debye):
    X=              0.7183    Y=              0.2944    Z=              0.0000  Tot=              0.7763
 Quadrupole moment (field-independent basis, Debye-Ang):
   XX=            -11.7291   YY=            -12.9998   ZZ=            -22.9142
   XY=              5.1301   XZ=              0.0000   YZ=             -0.0000

  Exact polarizability:  59.597  21.779  52.042   0.000   0.000  21.857
 Approx polarizability:  96.331  39.754  78.665   0.000   0.000  30.339

                      1                      2                      3
                     A"                     A'                     A"
 Frequencies --    199.8177               317.0163               487.9386
 Red. masses --      3.9532                 3.0823                 1.1038
 Frc consts  --      0.0930                 0.1825                 0.1548
 IR Inten    --      2.0584                 0.1110                 1.7415

                      4                      5                      6
                     A'                     A"                     A'
 Frequencies --    540.6913               884.8852               963.9196
 Red. masses --      4.4502                 1.6289                 1.4611
 Frc consts  --      0.7665                 0.7515                 0.7999
 IR Inten    --      0.3815                 4.8451                 0.5194

                      7                      8                      9
                     A"                     A"                     A'
 Frequencies --    981.0778              1062.4077              1222.6029
 Red. masses --      1.1236                 1.4450                 2.5926
 Frc consts  --      0.6372                 0.9609                 2.2833
 IR Inten    --     48.2496                12.7828                 1.0153

                     10                     11                     12
                     A'                     A'                     A'
 Frequencies --   1271.7400              1282.3008              1318.2513
 Red. masses --      1.3224                 2.2007                 2.0284
 Frc consts  --      1.2601                 2.1320                 2.0769
 IR Inten    --     31.6826                34.4047                40.9240

                     13                     14                     15
                     A'                     A'                     A'
 Frequencies --   1485.3703              1578.6641              3085.9358
 Red. masses --      1.3759                 2.8460                 1.0881
 Frc consts  --      1.7886                 4.1789                 6.1050
 IR Inten    --     15.3911                20.5692                11.1832

                     16                     17                     18
                     A'                     A'                     A'
 Frequencies --   3138.9484              3189.6972              3246.9979
 Red. masses --      1.0567                 1.0942                 1.1205
 Frc consts  --      6.1343                 6.5594                 6.9602
 IR Inten    --     14.4708                 8.0979                12.9470

 - Thermochemistry -
 -------------------
 Temperature   298.150 Kelvin.  Pressure   1.00000 Atm.
 Atom     1 has atomic number  6 and mass  12.00000

 Molecular mass:    52.03130 amu.
 Principal axes and moments of inertia in atomic units:
                           1         2         3
     Eigenvalues --    38.28776 360.06539 398.35315
           X            0.73821  -0.67457   0.00000
           Y            0.67457   0.73821   0.00000
           Z            0.00000  -0.00000   1.00000
 This molecule is an asymmetric top.
 Rotational symmetry number  1.
 Rotational temperatures (Kelvin)      2.26218     0.24055     0.21743
 Rotational constants (GHZ):          47.13625     5.01226     4.53051
 Zero-point vibrational energy     157059.3 (Joules/Mol)
                                   37.53807 (Kcal/Mol)
 Warning -- explicit consideration of   4 degrees of freedom as
           vibrations may cause significant error
 Vibrational temperatures:    287.49   456.12   702.03   777.93  1273.15
          (Kelvin)           1386.86  1411.55  1528.57  1759.05  1829.75
                             1844.94  1896.67  2137.11  2271.34  4439.97
                             4516.24  4589.26  4671.70

 Zero-point correction=                           0.059821 (Hartree/Particle)
 Thermal correction to Energy=                    0.064270
 Thermal correction to Enthalpy=                  0.065214
 Thermal correction to Gibbs Free Energy=         0.032413
 Sum of electronic and zero-point Energies=           -154.248925
 Sum of electronic and thermal Energies=              -154.244476
 Sum of electronic and thermal Enthalpies=            -154.243532
 Sum of electronic and thermal Free Energies=         -154.276332

                     E (Thermal)             CV                S
                      KCal/Mol        Cal/Mol-Kelvin    Cal/Mol-Kelvin
 Total                   40.330             14.317             69.035
 Electronic               0.000              0.000              2.755
 Translational            0.889              2.981             37.771
 Rotational               0.889              2.981             23.222
 Vibrational             38.552              8.355              5.287
 Vibration     1          0.638              1.840              2.135
 Vibration     2          0.704              1.641              1.325
 Vibration     3          0.844              1.277              0.689
 Vibration     4          0.896              1.160              0.564

 Optimization completed.
    -- Stationary point found.
 Normal termination of Gaussian 09 at Thu Jan 24 16:05:59 2019.
