 Gaussian 09, Revision D.01,
 Gaussian 09:  ES64L-G09RevD.01 24-Apr-2013

 ---------------------------
 #p b3lyp/6-311++g(d,p) freq
 ---------------------------

 ---
 min
 ---
 Symbolic Z-matrix:
 Charge =  0 Multiplicity = 1

                         Standard orientation:
 ---------------------------------------------------------------------
 Center     Atomic      Atomic             Coordinates (Angstroms)
 Number     Number       Type             X           Y           Z
 ---------------------------------------------------------------------
      1          8           0        1.310927    0.847478    0.000000
      2          6           0        0.000000    0.446139   -0.000000
      3          6           0       -1.053402    1.274842   -0.000000
      4          6           0       -0.129863   -0.977075   -0.000000
      5          6           0       -0.235978   -2.175345   -0.000000
      6          1           0       -0.927465    2.351719   -0.000000
      7          1           0       -2.058181    0.879621   -0.000000
      8          1           0        1.345549    1.811110    0.000000
      9          1           0       -0.331860   -3.233639   -0.000000
 ---------------------------------------------------------------------

 SCF Done:  E(RB3LYP) =  -230.028206022     A.U. after   13 cycles

 The electronic state is 1-A'.
 Alpha  occ. eigenvalues --  -19.16845 -10.26741 -10.18818 -10.18307 -10.17673
 Alpha  occ. eigenvalues --   -1.07990  -0.80719  -0.74760  -0.65867  -0.56026
 Alpha  occ. eigenvalues --   -0.52310  -0.50331  -0.42631  -0.42202  -0.38989
 Alpha  occ. eigenvalues --   -0.31322  -0.30006  -0.24525
 Alpha virt. eigenvalues --   -0.03945  -0.01704   0.00608   0.00764   0.02103
 Alpha virt. eigenvalues --    0.03813   0.06389   0.06485   0.06650   0.07151
 Alpha virt. eigenvalues --    0.08712   0.09877   0.11116   0.11381   0.12704

 Mulliken charges:
               1
     1  O   -0.192760
     2  C    0.632118
     3  C   -0.385536
     4  C    1.431353
     5  C   -2.165178
     6  H    0.103711
     7  H    0.161493
     8  H    0.277421
     9  H    0.137378
 Sum of Mulliken charges =  -0.00000

 Dipole moment (field-independent basis, Debye):
    X=             -0.6681    Y=              1.0811    Z=             -0.0000  Tot=              1.2708
 Quadrupole moment (field-independent basis, Debye-Ang):
   XX=            -30.9365   YY=            -19.0274   ZZ=            -32.5426
   XY=              2.3612   XZ=             -0.0000   YZ=              0.0000

  Exact polarizability:  47.153  -6.135  77.725  -0.000  -0.001  31.065
 Approx polarizability:  69.377 -14.155 124.712   0.000  -0.000  40.802

                      1                      2                      3
                     A'                     A"                     A"
 Frequencies --    196.8615               266.8006               341.1437
 Red. masses --      3.7981                 3.5089                 1.1043
 Frc consts  --      0.0867                 0.1472                 0.0757
 IR Inten    --      5.3177                13.8019               108.0566

                      4                      5                      6
                     A'                     A'                     A"
 Frequencies --    448.4715               586.2517               629.1335
 Red. masses --      2.6643                 5.5984                 3.3559
 Frc consts  --      0.3157                 1.1337                 0.7826
 IR Inten    --     13.9889                 0.1841                 8.6915

                      7                      8                      9
                     A"                     A"                     A'
 Frequencies --    659.7819               699.7495               716.1216
 Red. masses --      1.2850                 1.2432                 1.3040
 Frc consts  --      0.3296                 0.3587                 0.3940
 IR Inten    --     34.5105                 2.6497                42.4626

                     10                     11                     12
                     A'                     A"                     A'
 Frequencies --    814.2317               827.7068               974.1492
 Red. masses --      4.0615                 1.3969                 1.8291
 Frc consts  --      1.5865                 0.5638                 1.0227
 IR Inten    --      5.8850                70.5156                30.8920

                     13                     14                     15
                     A'                     A'                     A'
 Frequencies --   1182.3005              1358.7745              1440.2418
 Red. masses --      1.6527                 2.2756                 1.2125
 Frc consts  --      1.3612                 2.4754                 1.4818
 IR Inten    --    216.1453                42.7950                 4.5945

                     16                     17                     18
                     A'                     A'                     A'
 Frequencies --   1668.7791              2217.7034              3151.7436
 Red. masses --      5.2691                 6.0441                 1.0629
 Frc consts  --      8.6453                17.5141                 6.2211
 IR Inten    --    147.8453                 3.9521                 4.6267

                     19                     20                     21
                     A'                     A'                     A'
 Frequencies --   3255.9883              3477.0726              3817.9203
 Red. masses --      1.1139                 1.1609                 1.0657
 Frc consts  --      6.9579                 8.2696                 9.1521
 IR Inten    --      2.4552                74.0006                45.1316

 - Thermochemistry -
 -------------------
 Temperature   298.150 Kelvin.  Pressure   1.00000 Atm.
 Atom     1 has atomic number  8 and mass  15.99491

 Molecular mass:    68.02621 amu.
 Principal axes and moments of inertia in atomic units:
                           1         2         3
     Eigenvalues --   170.05756 438.66928 608.72684
           X            0.11922   0.99287   0.00000
           Y            0.99287  -0.11922   0.00000
           Z           -0.00000  -0.00000   1.00000
 This molecule is an asymmetric top.
 Rotational symmetry number  1.
 Rotational temperatures (Kelvin)      0.50932     0.19745     0.14229
 Rotational constants (GHZ):          10.61253     4.11413     2.96478
 Zero-point vibrational energy     171849.1 (Joules/Mol)
                                   41.07292 (Kcal/Mol)
 Warning -- explicit consideration of   5 degrees of freedom as
           vibrations may cause significant error
 Vibrational temperatures:    283.24   383.87   490.83   645.25   843.48
          (Kelvin)            905.18   949.28  1006.78  1030.34  1171.50
                             1190.88  1401.58  1701.06  1954.97  2072.18
                             2401.00  3190.78  4534.65  4684.64  5002.73
                             5493.13

 Zero-point correction=                           0.065454 (Hartree/Particle)
 Thermal correction to Energy=                    0.070835
 Thermal correction to Enthalpy=                  0.071779
 Thermal correction to Gibbs Free Energy=         0.037532
 Sum of electronic and zero-point Energies=           -229.962752
 Sum of electronic and thermal Energies=              -229.957371
 Sum of electronic and thermal Enthalpies=            -229.956427
 Sum of electronic and thermal Free Energies=         -229.990674

                     E (Thermal)             CV                S
                      KCal/Mol        Cal/Mol-Kelvin    Cal/Mol-Kelvin
 Total                   44.449             19.183             72.078
 Electronic               0.000              0.000              0.000
 Translational            0.889              2.981             38.570
 Rotational               0.889              2.981             25.321
 Vibrational             42.672             13.221              8.187
 Vibration     1          0.636              1.844              2.162
 Vibration     2          0.672              1.734              1.617
 Vibration     3          0.721              1.593              1.207
 Vibration     4          0.807              1.364              0.800
 Vibration     5          0.943              1.061              0.474

 Normal termination of Gaussian 09 at Sun Mar  4 21:21:55 2018.
