 Gaussian 09, Revision D.01,
 Gaussian 09:  ES64L-G09RevD.01 24-Apr-2013

 ---------------------------
 #p b3lyp/6-311++g(d,p) freq
 ---------------------------

 ---
 min
 ---
 Symbolic Z-matrix:
 Charge =  0 Multiplicity = 3

                         Standard orientation:
 ---------------------------------------------------------------------
 Center     Atomic      Atomic             Coordinates (Angstroms)
 Number     Number       Type             X           Y           Z
 ---------------------------------------------------------------------
      1          1           0       -1.684610   -0.254942    0.895499
      2          6           0        0.201915   -1.047317   -0.000000
      3          1           0       -0.088056    2.005410    0.000000
      4          6           0       -0.000000    0.924640    0.000000
      5          6           0        1.077950    0.037118   -0.000000
      6          6           0       -1.062324   -0.189011   -0.000000
      7          1           0        2.152025    0.151891   -0.000000
      8          1           0       -1.684610   -0.254942   -0.895499
 ---------------------------------------------------------------------

 SCF Done:  E(UB3LYP) =  -154.677092102     A.U. after   14 cycles

 The electronic state is 3-A".
 Alpha  occ. eigenvalues --  -10.21485 -10.20116 -10.19697 -10.19198  -0.89537
 Alpha  occ. eigenvalues --   -0.67878  -0.63752  -0.53422  -0.46815  -0.45781
 Alpha  occ. eigenvalues --   -0.40312  -0.37275  -0.31162  -0.25877  -0.19529
 Alpha virt. eigenvalues --   -0.00267   0.00499   0.01299   0.01825   0.02787
 Alpha virt. eigenvalues --    0.05510   0.06953   0.07575   0.08364   0.09799
 Alpha virt. eigenvalues --    0.09923   0.10575   0.12686   0.13155   0.13520

  Beta  occ. eigenvalues --  -10.19586 -10.19395 -10.19151 -10.19069  -0.87352
  Beta  occ. eigenvalues --   -0.67539  -0.59771  -0.53181  -0.44321  -0.42805
  Beta  occ. eigenvalues --   -0.38152  -0.36504  -0.29052
  Beta virt. eigenvalues --   -0.10166  -0.06282  -0.00186   0.01300   0.02195
  Beta virt. eigenvalues --    0.02426   0.03595   0.06083   0.07071   0.07613
  Beta virt. eigenvalues --    0.08289   0.10479   0.10827   0.10941   0.12699

 Mulliken charges and spin densities:
               1          2
     1  H    0.136342   0.005158
     2  C    0.150173   1.466379
     3  H    0.173004   0.027919
     4  C    0.062223   0.753920
     5  C   -0.287960  -0.238432
     6  C   -0.507746  -0.030110
     7  H    0.137622   0.010010
     8  H    0.136342   0.005158
 Sum of Mulliken charges =  -0.00000   2.00000

 Dipole moment (field-independent basis, Debye):
    X=             -0.2759    Y=              1.1115    Z=              0.0000  Tot=              1.1453
 Quadrupole moment (field-independent basis, Debye-Ang):
   XX=            -21.5715   YY=            -25.4759   ZZ=            -25.9115
   XY=              0.4894   XZ=              0.0000   YZ=             -0.0000

  Exact polarizability:  48.337  -0.518  50.220  -0.000   0.000  33.235
 Approx polarizability:  68.226  -2.308  79.962  -0.000  -0.000  45.679

                      1                      2                      3
                     A"                     A"                     A'
 Frequencies --    412.9499               567.9312               822.2277
 Red. masses --      1.8674                 1.1834                 2.8164
 Frc consts  --      0.1876                 0.2249                 1.1218
 IR Inten    --     31.0599                45.9369                16.9628

                      4                      5                      6
                     A"                     A'                     A'
 Frequencies --    863.9328               875.1328               938.5342
 Red. masses --      1.5801                 6.6577                 1.7181
 Frc consts  --      0.6948                 3.0042                 0.8917
 IR Inten    --     14.3175                 3.2913                 6.5806

                      7                      8                      9
                     A"                     A'                     A"
 Frequencies --   1001.1031              1008.2513              1046.4428
 Red. masses --      1.4712                 3.3005                 1.0836
 Frc consts  --      0.8687                 1.9768                 0.6991
 IR Inten    --      8.0838                 7.8383                 0.6659

                     10                     11                     12
                     A'                     A'                     A'
 Frequencies --   1112.0856              1185.0872              1272.7591
 Red. masses --      1.8236                 1.4680                 1.8613
 Frc consts  --      1.3288                 1.2148                 1.7764
 IR Inten    --      8.2675                 1.9576                12.6989

                     13                     14                     15
                     A'                     A'                     A'
 Frequencies --   1397.2833              1477.6349              3051.8633
 Red. masses --      4.0984                 1.1804                 1.0553
 Frc consts  --      4.7144                 1.5185                 5.7912
 IR Inten    --      0.3492                 0.9765                25.2641

                     16                     17                     18
                     A"                     A'                     A'
 Frequencies --   3098.3504              3170.1621              3233.7654
 Red. masses --      1.1079                 1.0902                 1.1038
 Frc consts  --      6.2660                 6.4556                 6.8007
 IR Inten    --     12.1618                 2.0857                 3.0501

 - Thermochemistry -
 -------------------
 Temperature   298.150 Kelvin.  Pressure   1.00000 Atm.
 Atom     1 has atomic number  1 and mass   1.00783

 Molecular mass:    52.03130 amu.
 Principal axes and moments of inertia in atomic units:
                           1         2         3
     Eigenvalues --   105.16946 143.35755 236.98257
           X            0.99111  -0.13302   0.00000
           Y            0.13302   0.99111   0.00000
           Z            0.00000  -0.00000   1.00000
 This molecule is an asymmetric top.
 Rotational symmetry number  1.
 Rotational temperatures (Kelvin)      0.82356     0.60418     0.36549
 Rotational constants (GHZ):          17.16032    12.58909     7.61550
 Zero-point vibrational energy     158717.5 (Joules/Mol)
                                   37.93440 (Kcal/Mol)
 Warning -- explicit consideration of   2 degrees of freedom as
           vibrations may cause significant error
 Vibrational temperatures:    594.14   817.13  1183.00  1243.01  1259.12
          (Kelvin)           1350.34  1440.36  1450.65  1505.60  1600.04
                             1705.07  1831.21  2010.38  2125.98  4390.95
                             4457.83  4561.15  4652.66

 Zero-point correction=                           0.060452 (Hartree/Particle)
 Thermal correction to Energy=                    0.064170
 Thermal correction to Enthalpy=                  0.065115
 Thermal correction to Gibbs Free Energy=         0.034124
 Sum of electronic and zero-point Energies=           -154.616640
 Sum of electronic and thermal Energies=              -154.612922
 Sum of electronic and thermal Enthalpies=            -154.611977
 Sum of electronic and thermal Free Energies=         -154.642968

                     E (Thermal)             CV                S
                      KCal/Mol        Cal/Mol-Kelvin    Cal/Mol-Kelvin
 Total                   40.268             12.563             65.225
 Electronic               0.000              0.000              2.183
 Translational            0.889              2.981             37.771
 Rotational               0.889              2.981             22.795
 Vibrational             38.490              6.601              2.476
 Vibration     1          0.777              1.442              0.916
 Vibration     2          0.924              1.101              0.508

 Optimization completed.
    -- Stationary point found.
 Normal termination of Gaussian 09 at Sun Mar  4 21:20:04 2018.
