 Gaussian 09, Revision D.01,
 Gaussian 09:  ES64L-G09RevD.01 24-Apr-2013

 ---------------------------
 #p b3lyp/6-311++g(d,p) freq
 ---------------------------

 ---
 min
 ---
 Symbolic Z-matrix:
 Charge =  1 Multiplicity = 2

                         Standard orientation:
 ---------------------------------------------------------------------
 Center     Atomic      Atomic             Coordinates (Angstroms)
 Number     Number       Type             X           Y           Z
 ---------------------------------------------------------------------
      1          6           0        0.952406   -0.574486    0.060622
      2          1           0        1.458889   -1.012534   -0.802054
      3          1           0        1.199792   -1.031861    1.018387
      4          6           0        0.596177    0.856341    0.006558
      5          1           0        0.455489    1.417233    0.924085
      6          1           0        0.690608    1.409432   -0.923246
      7          6           0       -0.486374   -0.396670   -0.173156
      8          6           0       -1.696338   -0.015563    0.069782
 ---------------------------------------------------------------------

 SCF Done:  E(UB3LYP) =  -154.327656886     A.U. after   21 cycles

 The electronic state is 2-A.
 Alpha  occ. eigenvalues --  -10.53542 -10.51164 -10.49381 -10.47304  -1.16595
 Alpha  occ. eigenvalues --   -1.01867  -0.88449  -0.77768  -0.76114  -0.66510
 Alpha  occ. eigenvalues --   -0.64384  -0.60591  -0.59771  -0.57023
 Alpha virt. eigenvalues --   -0.34154  -0.27972  -0.17706  -0.16365  -0.14286
 Alpha virt. eigenvalues --   -0.13446  -0.12047  -0.09324  -0.08310  -0.08113
 Alpha virt. eigenvalues --   -0.06463  -0.06280  -0.04039  -0.02922  -0.02724

  Beta  occ. eigenvalues --  -10.52405 -10.50528 -10.49427 -10.47297  -1.15593
  Beta  occ. eigenvalues --   -0.99228  -0.88340  -0.77150  -0.75279  -0.65804
  Beta  occ. eigenvalues --   -0.64010  -0.59088  -0.55781
  Beta virt. eigenvalues --   -0.45080  -0.32952  -0.24128  -0.17297  -0.16081
  Beta virt. eigenvalues --   -0.14228  -0.13191  -0.11749  -0.09018  -0.08175
  Beta virt. eigenvalues --   -0.07876  -0.06219  -0.05928  -0.04009  -0.02849

 Mulliken charges and spin densities:
               1          2
     1  C   -0.315686  -0.007517
     2  H    0.251111   0.020092
     3  H    0.262228   0.007866
     4  C   -0.265528  -0.033563
     5  H    0.267863   0.009900
     6  H    0.269135   0.006600
     7  C    0.202019   0.388124
     8  C    0.328859   0.608499
 Sum of Mulliken charges =   1.00000   1.00000

 Dipole moment (field-independent basis, Debye):
    X=              1.5090    Y=              0.3161    Z=             -0.4447  Tot=              1.6046
 Quadrupole moment (field-independent basis, Debye-Ang):
   XX=            -16.7889   YY=            -17.4098   ZZ=            -19.2306
   XY=             -0.3046   XZ=              0.9235   YZ=             -0.2377

  Exact polarizability:  64.300  -4.268  36.347  -2.887   0.907  27.966
 Approx polarizability: 107.824  -2.363  53.815  -9.353   3.090  41.424

                      1                      2                      3
                      A                      A                      A
 Frequencies --     68.3157               303.2797               490.8300
 Red. masses --      6.8285                 3.8382                 7.9750
 Frc consts  --      0.0188                 0.2080                 1.1320
 IR Inten    --      1.7935                 9.3779                36.5113

                      4                      5                      6
                      A                      A                      A
 Frequencies --    751.4690               767.8882               906.8237
 Red. masses --      1.4334                 2.2143                 1.1078
 Frc consts  --      0.4769                 0.7693                 0.5367
 IR Inten    --     21.7859                16.6841                 5.9255

                      7                      8                      9
                      A                      A                      A
 Frequencies --    966.2462              1073.7227              1085.7181
 Red. masses --      1.4532                 2.6067                 1.1977
 Frc consts  --      0.7994                 1.7706                 0.8318
 IR Inten    --     62.9970                78.7606                39.9934

                     10                     11                     12
                      A                      A                      A
 Frequencies --   1136.7357              1192.9007              1343.4871
 Red. masses --      1.3371                 1.2952                 5.7133
 Frc consts  --      1.0180                 1.0859                 6.0758
 IR Inten    --     38.2643                 0.5803               320.3420

                     13                     14                     15
                      A                      A                      A
 Frequencies --   1430.1390              1471.9871              3066.3625
 Red. masses --      1.1640                 1.1703                 1.0540
 Frc consts  --      1.4027                 1.4940                 5.8388
 IR Inten    --      7.2643                 3.3935                92.9602

                     16                     17                     18
                      A                      A                      A
 Frequencies --   3127.1532              3153.4349              3244.6478
 Red. masses --      1.0520                 1.1142                 1.1231
 Frc consts  --      6.0611                 6.5281                 6.9666
 IR Inten    --     25.7936                30.8379                27.8090

 - Thermochemistry -
 -------------------
 Temperature   298.150 Kelvin.  Pressure   1.00000 Atm.
 Atom     1 has atomic number  6 and mass  12.00000

 Molecular mass:    52.03130 amu.
 Principal axes and moments of inertia in atomic units:
                           1         2         3
     Eigenvalues --    87.91022 215.81083 276.06795
           X            0.99958  -0.02886  -0.00255
           Y            0.02883   0.99950  -0.01318
           Z            0.00293   0.01310   0.99991
 This molecule is an asymmetric top.
 Rotational symmetry number  1.
 Rotational temperatures (Kelvin)      0.98525     0.40134     0.31374
 Rotational constants (GHZ):          20.52937     8.36261     6.53731
 Zero-point vibrational energy     153009.2 (Joules/Mol)
                                   36.57008 (Kcal/Mol)
 Warning -- explicit consideration of   3 degrees of freedom as
           vibrations may cause significant error
 Vibrational temperatures:     98.29   436.35   706.19  1081.19  1104.82
          (Kelvin)           1304.72  1390.21  1544.85  1562.10  1635.51
                             1716.32  1932.98  2057.65  2117.86  4411.81
                             4499.27  4537.08  4668.32

 Zero-point correction=                           0.058278 (Hartree/Particle)
 Thermal correction to Energy=                    0.062946
 Thermal correction to Enthalpy=                  0.063890
 Thermal correction to Gibbs Free Energy=         0.030812
 Sum of electronic and zero-point Energies=           -154.269379
 Sum of electronic and thermal Energies=              -154.264711
 Sum of electronic and thermal Enthalpies=            -154.263767
 Sum of electronic and thermal Free Energies=         -154.296845

                     E (Thermal)             CV                S
                      KCal/Mol        Cal/Mol-Kelvin    Cal/Mol-Kelvin
 Total                   39.499             14.576             69.617
 Electronic               0.000              0.000              1.377
 Translational            0.889              2.981             37.771
 Rotational               0.889              2.981             23.175
 Vibrational             37.721              8.615              7.294
 Vibration     1          0.598              1.969              4.201
 Vibration     2          0.695              1.667              1.399
 Vibration     3          0.847              1.270              0.681

 Normal termination of Gaussian 09 at Thu Jan 24 16:02:58 2019.
