 Gaussian 09, Revision D.01,
 Gaussian 09:  ES64L-G09RevD.01 24-Apr-2013

 ---------------------------
 #p b3lyp/6-311++g(d,p) freq
 ---------------------------

 ---
 min
 ---
 Symbolic Z-matrix:
 Charge =  0 Multiplicity = 3

                         Standard orientation:
 ---------------------------------------------------------------------
 Center     Atomic      Atomic             Coordinates (Angstroms)
 Number     Number       Type             X           Y           Z
 ---------------------------------------------------------------------
      1          6           0       -0.321824    0.662746    0.000000
      2          1           0       -1.413097    0.667617    0.000000
      3          6           0        0.321824   -0.662746    0.000000
      4          1           0        1.413097   -0.667617    0.000000
      5          6           0        0.321824    1.811254    0.000000
      6          6           0       -0.321824   -1.811254    0.000000
      7          1           0       -1.337443   -2.179081    0.000000
      8          1           0        1.337443    2.179081    0.000000
 ---------------------------------------------------------------------

 SCF Done:  E(UB3LYP) =  -154.660184227     A.U. after   13 cycles

 The electronic state is 3-BU.
 Alpha  occ. eigenvalues --  -10.20805 -10.20804 -10.20073 -10.20041  -0.82893
 Alpha  occ. eigenvalues --   -0.75319  -0.60562  -0.57451  -0.48505  -0.47719
 Alpha  occ. eigenvalues --   -0.41215  -0.34790  -0.27596  -0.26339  -0.23570
 Alpha virt. eigenvalues --   -0.04985  -0.00002   0.00473   0.01883   0.02843
 Alpha virt. eigenvalues --    0.03364   0.05896   0.07475   0.08949   0.09296
 Alpha virt. eigenvalues --    0.09612   0.10650   0.11620   0.12228   0.13019

  Beta  occ. eigenvalues --  -10.20034 -10.20004 -10.19255 -10.19255  -0.81480
  Beta  occ. eigenvalues --   -0.72693  -0.57432  -0.56195  -0.46665  -0.46245
  Beta  occ. eigenvalues --   -0.39834  -0.34409  -0.24792
  Beta virt. eigenvalues --   -0.10899  -0.08082  -0.03265   0.00110   0.00652
  Beta virt. eigenvalues --    0.02238   0.02949   0.03436   0.06086   0.08712
  Beta virt. eigenvalues --    0.09182   0.09702   0.09813   0.11377   0.11948

 Mulliken charges and spin densities:
               1          2
     1  C   -0.097963  -0.039198
     2  H    0.141551   0.041295
     3  C   -0.097963  -0.039198
     4  H    0.141551   0.041295
     5  C   -0.196164   0.982789
     6  C   -0.196164   0.982789
     7  H    0.152576   0.015113
     8  H    0.152576   0.015113
 Sum of Mulliken charges =   0.00000   2.00000

 Dipole moment (field-independent basis, Debye):
    X=             -0.0000    Y=             -0.0000    Z=              0.0000  Tot=              0.0000
 Quadrupole moment (field-independent basis, Debye-Ang):
   XX=            -20.6171   YY=            -26.6571   ZZ=            -27.6753
   XY=              3.0743   XZ=              0.0000   YZ=              0.0000

  Exact polarizability:  43.821  13.644  76.829  -0.000   0.000  31.386
 Approx polarizability:  61.809  28.501 118.592  -0.000  -0.000  41.085

                      1                      2                      3
                     AU                     BU                     AG
 Frequencies --    149.4144               279.1494               458.4836
 Red. masses --      2.7883                 2.3984                 2.1592
 Frc consts  --      0.0367                 0.1101                 0.2674
 IR Inten    --      0.0167                 1.7608                 0.0000

                      4                      5                      6
                     AU                     BG                     BU
 Frequencies --    598.5747               711.1280               816.8969
 Red. masses --      1.3805                 1.5668                 1.3317
 Frc consts  --      0.2914                 0.4668                 0.5236
 IR Inten    --     38.6015                 0.0000                76.4980

                      7                      8                      9
                     AG                     AU                     BG
 Frequencies --    818.7052               866.1887               901.4986
 Red. masses --      1.8764                 1.0937                 1.4537
 Frc consts  --      0.7410                 0.4835                 0.6961
 IR Inten    --      0.0000               135.8174                 0.0000

                     10                     11                     12
                     AG                     BU                     AG
 Frequencies --   1078.9714              1235.0386              1278.1194
 Red. masses --      4.7694                 1.1535                 1.1353
 Frc consts  --      3.2714                 1.0366                 1.0927
 IR Inten    --      0.0000                 3.1032                 0.0000

                     13                     14                     15
                     BU                     AG                     AG
 Frequencies --   1611.8891              1653.1683              3086.4059
 Red. masses --      7.5438                 6.4099                 1.0840
 Frc consts  --     11.5481                10.3214                 6.0837
 IR Inten    --      6.8867                 0.0000                 0.0000

                     16                     17                     18
                     BU                     AG                     BU
 Frequencies --   3092.8567              3238.4071              3239.1936
 Red. masses --      1.0857                 1.1021                 1.1033
 Frc consts  --      6.1188                 6.8096                 6.8207
 IR Inten    --     12.1696                 0.0000                 1.2603

 - Thermochemistry -
 -------------------
 Temperature   298.150 Kelvin.  Pressure   1.00000 Atm.
 Atom     1 has atomic number  6 and mass  12.00000

 Molecular mass:    52.03130 amu.
 Principal axes and moments of inertia in atomic units:
                           1         2         3
     Eigenvalues --    38.38291 362.82023 401.20314
           X            0.14283   0.98975   0.00000
           Y            0.98975  -0.14283   0.00000
           Z            0.00000  -0.00000   1.00000
 This molecule is an asymmetric top.
 Rotational symmetry number  2.
 Rotational temperatures (Kelvin)      2.25657     0.23872     0.21589
 Rotational constants (GHZ):          47.01939     4.97420     4.49832
 Zero-point vibrational energy     150215.6 (Joules/Mol)
                                   35.90239 (Kcal/Mol)
 Warning -- explicit consideration of   4 degrees of freedom as
           vibrations may cause significant error
 Vibrational temperatures:    214.97   401.63   659.65   861.21  1023.15
          (Kelvin)           1175.33  1177.93  1246.25  1297.05  1552.40
                             1776.94  1838.93  2319.15  2378.54  4440.64
                             4449.93  4659.34  4660.47

 Zero-point correction=                           0.057214 (Hartree/Particle)
 Thermal correction to Energy=                    0.061985
 Thermal correction to Enthalpy=                  0.062929
 Thermal correction to Gibbs Free Energy=         0.030438
 Sum of electronic and zero-point Energies=           -154.602970
 Sum of electronic and thermal Energies=              -154.598199
 Sum of electronic and thermal Enthalpies=            -154.597255
 Sum of electronic and thermal Free Energies=         -154.629746

                     E (Thermal)             CV                S
                      KCal/Mol        Cal/Mol-Kelvin    Cal/Mol-Kelvin
 Total                   38.896             15.786             68.382
 Electronic               0.000              0.000              2.183
 Translational            0.889              2.981             37.771
 Rotational               0.889              2.981             21.862
 Vibrational             37.119              9.825              6.567
 Vibration     1          0.618              1.903              2.680
 Vibration     2          0.679              1.712              1.539
 Vibration     3          0.817              1.342              0.771
 Vibration     4          0.957              1.035              0.452

 Optimization completed.
    -- Stationary point found.
 Normal termination of Gaussian 09 at Sun Mar  4 21:18:56 2018.
