 Gaussian 09, Revision D.01,
 Gaussian 09:  ES64L-G09RevD.01 24-Apr-2013

 ---------------------------
 #p b3lyp/6-311++g(d,p) freq
 ---------------------------

 ---
 min
 ---
 Symbolic Z-matrix:
 Charge =  0 Multiplicity = 3

                         Standard orientation:
 ---------------------------------------------------------------------
 Center     Atomic      Atomic             Coordinates (Angstroms)
 Number     Number       Type             X           Y           Z
 ---------------------------------------------------------------------
      1          6           0       -0.954706   -0.717988   -0.354671
      2          6           0        0.208026   -0.199548    0.449080
      3          1           0        0.245169   -0.467955    1.508471
      4          6           0        1.490872    0.155762   -0.173946
      5          1           0        2.171995   -0.620350   -0.507185
      6          1           0        1.789437    1.190271   -0.304166
      7          6           0       -1.171275    0.501277   -0.042882
      8          1           0       -1.644101    1.461016    0.037388
 ---------------------------------------------------------------------

 SCF Done:  E(UB3LYP) =  -154.628002559     A.U. after   16 cycles

 The electronic state is 3-A.
 Alpha  occ. eigenvalues --  -10.23395 -10.20972 -10.20607 -10.19276  -0.89319
 Alpha  occ. eigenvalues --   -0.73241  -0.59622  -0.56092  -0.46367  -0.45422
 Alpha  occ. eigenvalues --   -0.41266  -0.37817  -0.28284  -0.24238  -0.22826
 Alpha virt. eigenvalues --   -0.00872  -0.00239   0.01066   0.01686   0.02879
 Alpha virt. eigenvalues --    0.05042   0.05575   0.07613   0.08300   0.09207
 Alpha virt. eigenvalues --    0.10334   0.10821   0.11441   0.12189   0.12694

  Beta  occ. eigenvalues --  -10.22926 -10.20483 -10.19784 -10.17898  -0.87838
  Beta  occ. eigenvalues --   -0.70022  -0.58199  -0.54429  -0.44773  -0.43816
  Beta  occ. eigenvalues --   -0.38714  -0.33950  -0.27467
  Beta virt. eigenvalues --   -0.12370  -0.07949  -0.00237   0.00380   0.01208
  Beta virt. eigenvalues --    0.01874   0.03094   0.05557   0.05894   0.07882
  Beta virt. eigenvalues --    0.09220   0.09852   0.10968   0.11192   0.11632

 Mulliken charges and spin densities:
               1          2
     1  C   -0.309129   0.581566
     2  C    0.029857   0.287522
     3  H    0.152602   0.015273
     4  C   -0.409884   1.089104
     5  H    0.139167  -0.025961
     6  H    0.132004  -0.036543
     7  C    0.057046   0.094192
     8  H    0.208337  -0.005154
 Sum of Mulliken charges =  -0.00000   2.00000

 Dipole moment (field-independent basis, Debye):
    X=              0.5620    Y=              1.5356    Z=              0.7996  Tot=              1.8202
 Quadrupole moment (field-independent basis, Debye-Ang):
   XX=            -24.3537   YY=            -23.8266   ZZ=            -25.8596
   XY=             -2.7462   XZ=             -0.9316   YZ=             -0.5195

  Exact polarizability:  55.253   0.962  44.501   2.298   2.088  38.651
 Approx polarizability:  71.598   0.319  73.643   4.904   7.028  54.474

                      1                      2                      3
                      A                      A                      A
 Frequencies --    207.3278               309.4772               350.3697
 Red. masses --      1.0843                 2.3885                 1.6091
 Frc consts  --      0.0275                 0.1348                 0.1164
 IR Inten    --      2.7007                10.3989                22.4605

                      4                      5                      6
                      A                      A                      A
 Frequencies --    514.7509               608.4467               642.7800
 Red. masses --      2.7864                 3.2795                 1.5424
 Frc consts  --      0.4350                 0.7153                 0.3755
 IR Inten    --     26.9600                13.4644                68.7441

                      7                      8                      9
                      A                      A                      A
 Frequencies --    825.7563               879.2243               923.8986
 Red. masses --      1.1246                 1.2481                 5.8188
 Frc consts  --      0.4518                 0.5685                 2.9264
 IR Inten    --     50.0808                36.2266                 5.5204

                     10                     11                     12
                      A                      A                      A
 Frequencies --   1027.3843              1133.0370              1322.7397
 Red. masses --      1.5541                 3.3619                 1.2417
 Frc consts  --      0.9665                 2.5429                 1.2800
 IR Inten    --      9.4578                19.3761                12.9030

                     13                     14                     15
                      A                      A                      A
 Frequencies --   1433.1896              1748.3933              3035.5087
 Red. masses --      1.1810                 6.7336                 1.0813
 Frc consts  --      1.4293                12.1277                 5.8704
 IR Inten    --      2.7881                19.5293                26.7793

                     16                     17                     18
                      A                      A                      A
 Frequencies --   3119.7208              3220.0772              3325.4258
 Red. masses --      1.0496                 1.1178                 1.1227
 Frc consts  --      6.0187                 6.8287                 7.3152
 IR Inten    --      6.5083                 4.0802                17.5749

 - Thermochemistry -
 -------------------
 Temperature   298.150 Kelvin.  Pressure   1.00000 Atm.
 Atom     1 has atomic number  6 and mass  12.00000

 Molecular mass:    52.03130 amu.
 Principal axes and moments of inertia in atomic units:
                           1         2         3
     Eigenvalues --    74.92498 257.77222 283.65150
           X            0.99922  -0.03424  -0.01956
           Y            0.03239   0.99561  -0.08787
           Z            0.02248   0.08717   0.99594
 This molecule is an asymmetric top.
 Rotational symmetry number  1.
 Rotational temperatures (Kelvin)      1.15601     0.33601     0.30535
 Rotational constants (GHZ):          24.08731     7.00130     6.36253
 Zero-point vibrational energy     147305.2 (Joules/Mol)
                                   35.20679 (Kcal/Mol)
 Warning -- explicit consideration of   5 degrees of freedom as
           vibrations may cause significant error
 Vibrational temperatures:    298.30   445.27   504.10   740.61   875.42
          (Kelvin)            924.82  1188.08  1265.01  1329.28  1478.17
                             1630.19  1903.13  2062.04  2515.54  4367.41
                             4488.58  4632.97  4784.54

 Zero-point correction=                           0.056106 (Hartree/Particle)
 Thermal correction to Energy=                    0.061016
 Thermal correction to Enthalpy=                  0.061960
 Thermal correction to Gibbs Free Energy=         0.028768
 Sum of electronic and zero-point Energies=           -154.571897
 Sum of electronic and thermal Energies=              -154.566987
 Sum of electronic and thermal Enthalpies=            -154.566042
 Sum of electronic and thermal Free Energies=         -154.599234

                     E (Thermal)             CV                S
                      KCal/Mol        Cal/Mol-Kelvin    Cal/Mol-Kelvin
 Total                   38.288             16.665             69.858
 Electronic               0.000              0.000              2.183
 Translational            0.889              2.981             37.771
 Rotational               0.889              2.981             23.220
 Vibrational             36.511             10.704              6.685
 Vibration     1          0.641              1.829              2.067
 Vibration     2          0.699              1.656              1.365
 Vibration     3          0.727              1.574              1.165
 Vibration     4          0.870              1.217              0.622
 Vibration     5          0.967              1.014              0.435

 Optimization completed.
    -- Stationary point found.
 Normal termination of Gaussian 09 at Sun Mar  4 21:21:09 2018.
