 Gaussian 09, Revision D.01,
 Gaussian 09:  ES64L-G09RevD.01 24-Apr-2013

 ---------------------------
 #p b3lyp/6-311++g(d,p) freq
 ---------------------------

 ---
 min
 ---
 Symbolic Z-matrix:
 Charge =  1 Multiplicity = 2

                         Standard orientation:
 ---------------------------------------------------------------------
 Center     Atomic      Atomic             Coordinates (Angstroms)
 Number     Number       Type             X           Y           Z
 ---------------------------------------------------------------------
      1          6           0        1.525502    0.079265   -0.000063
      2          1           0        1.823068    1.128134   -0.003169
      3          1           0        1.934094   -0.433855   -0.879747
      4          1           0        1.932988   -0.427912    0.883636
      5          6           0        0.082283   -0.084568   -0.000086
      6          6           0       -1.076230   -0.809901    0.000066
      7          6           0       -1.190623    0.526969   -0.000030
      8          1           0       -1.735743    1.463044   -0.000055
 ---------------------------------------------------------------------

 SCF Done:  E(UB3LYP) =  -154.411275536     A.U. after   15 cycles

 The electronic state is 2-A.
 Alpha  occ. eigenvalues --  -10.52491 -10.51822 -10.51040 -10.41007  -1.22326
 Alpha  occ. eigenvalues --   -0.99383  -0.85131  -0.77543  -0.72034  -0.68660
 Alpha  occ. eigenvalues --   -0.65794  -0.62660  -0.61299  -0.53757
 Alpha virt. eigenvalues --   -0.29322  -0.27682  -0.16141  -0.14400  -0.12870
 Alpha virt. eigenvalues --   -0.10983  -0.10560  -0.09780  -0.08769  -0.08132
 Alpha virt. eigenvalues --   -0.06051  -0.05294  -0.04883  -0.03880  -0.02685

  Beta  occ. eigenvalues --  -10.52222 -10.50821 -10.50324 -10.41003  -1.21226
  Beta  occ. eigenvalues --   -0.99105  -0.84186  -0.75593  -0.69809  -0.68320
  Beta  occ. eigenvalues --   -0.64123  -0.61028  -0.60896
  Beta virt. eigenvalues --   -0.39576  -0.29206  -0.25422  -0.15933  -0.14193
  Beta virt. eigenvalues --   -0.12405  -0.10970  -0.10221  -0.09528  -0.08515
  Beta virt. eigenvalues --   -0.08076  -0.05156  -0.04870  -0.04577  -0.03608

 Mulliken charges and spin densities:
               1          2
     1  C   -0.640279  -0.024807
     2  H    0.228330   0.008922
     3  H    0.231616   0.005868
     4  H    0.231666   0.005729
     5  C    0.429041   0.142863
     6  C    0.228691   0.682496
     7  C    0.009835   0.177529
     8  H    0.281100   0.001399
 Sum of Mulliken charges =   1.00000   1.00000

 Dipole moment (field-independent basis, Debye):
    X=             -0.3716    Y=              1.2250    Z=              0.0009  Tot=              1.2801
 Quadrupole moment (field-independent basis, Debye-Ang):
   XX=            -10.9638   YY=            -17.8792   ZZ=            -20.6222
   XY=             -2.6166   XZ=              0.0019   YZ=              0.0000

  Exact polarizability:  48.273   0.660  35.617   0.002  -0.002  24.343
 Approx polarizability:  69.680   2.334  58.778   0.006  -0.004  35.347

                      1                      2                      3
                      A                      A                      A
 Frequencies --     58.0348               355.6673               406.9126
 Red. masses --      1.1745                 2.7246                 2.8646
 Frc consts  --      0.0023                 0.2031                 0.2795
 IR Inten    --      5.4875                 7.9431                 3.2130

                      4                      5                      6
                      A                      A                      A
 Frequencies --    779.7275               886.2330               930.4306
 Red. masses --      3.2783                 1.2746                 1.3729
 Frc consts  --      1.1743                 0.5898                 0.7003
 IR Inten    --      2.9080                13.5621                21.3388

                      7                      8                      9
                      A                      A                      A
 Frequencies --   1014.3611              1030.5727              1171.3551
 Red. masses --      1.6337                 1.5706                 4.8776
 Frc consts  --      0.9904                 0.9828                 3.9431
 IR Inten    --     15.4708                23.0895                53.6018

                     10                     11                     12
                      A                      A                      A
 Frequencies --   1371.7753              1402.9427              1435.3869
 Red. masses --      1.1535                 3.5907                 1.0403
 Frc consts  --      1.2789                 4.1639                 1.2628
 IR Inten    --     33.9030                57.1054                19.3678

                     13                     14                     15
                      A                      A                      A
 Frequencies --   1446.7340              1733.4897              3016.0299
 Red. masses --      1.3162                 8.5450                 1.0365
 Frc consts  --      1.6232                15.1288                 5.5553
 IR Inten    --     57.7966                47.2638                56.7685

                     16                     17                     18
                      A                      A                      A
 Frequencies --   3071.7352              3134.8960              3241.3450
 Red. masses --      1.0975                 1.1017                 1.1196
 Frc consts  --      6.1012                 6.3794                 6.9304
 IR Inten    --     16.4086                11.4238                82.7687

 - Thermochemistry -
 -------------------
 Temperature   298.150 Kelvin.  Pressure   1.00000 Atm.
 Atom     1 has atomic number  6 and mass  12.00000

 Molecular mass:    52.03130 amu.
 Principal axes and moments of inertia in atomic units:
                           1         2         3
     Eigenvalues --    59.34953 264.90116 313.05939
           X            0.99939  -0.03482   0.00001
           Y            0.03482   0.99939   0.00007
           Z           -0.00001  -0.00007   1.00000
 This molecule is an asymmetric top.
 Rotational symmetry number  1.
 Rotational temperatures (Kelvin)      1.45939     0.32697     0.27667
 Rotational constants (GHZ):          30.40869     6.81289     5.76485
 Zero-point vibrational energy     158431.2 (Joules/Mol)
                                   37.86597 (Kcal/Mol)
 Warning -- explicit consideration of   3 degrees of freedom as
           vibrations may cause significant error
 Vibrational temperatures:     83.50   511.73   585.46  1121.85  1275.09
          (Kelvin)           1338.68  1459.44  1482.76  1685.32  1973.68
                             2018.52  2065.20  2081.52  2494.10  4339.39
                             4419.54  4510.41  4663.57

 Zero-point correction=                           0.060343 (Hartree/Particle)
 Thermal correction to Energy=                    0.064958
 Thermal correction to Enthalpy=                  0.065902
 Thermal correction to Gibbs Free Energy=         0.032809
 Sum of electronic and zero-point Energies=           -154.350932
 Sum of electronic and thermal Energies=              -154.346318
 Sum of electronic and thermal Enthalpies=            -154.345374
 Sum of electronic and thermal Free Energies=         -154.378466

                     E (Thermal)             CV                S
                      KCal/Mol        Cal/Mol-Kelvin    Cal/Mol-Kelvin
 Total                   40.762             13.987             69.649
 Electronic               0.000              0.000              1.377
 Translational            0.889              2.981             37.771
 Rotational               0.889              2.981             23.114
 Vibrational             38.984              8.026              7.387
 Vibration     1          0.596              1.974              4.523
 Vibration     2          0.731              1.564              1.141
 Vibration     3          0.772              1.455              0.938

 Normal termination of Gaussian 09 at Thu Jan 24 16:03:57 2019.
