 Gaussian 09, Revision D.01,
 Gaussian 09:  ES64L-G09RevD.01 24-Apr-2013

 ---------------------------
 #p b3lyp/6-311++g(d,p) freq
 ---------------------------

 ---
 min
 ---
 Symbolic Z-matrix:
 Charge =  1 Multiplicity = 4

                         Standard orientation:
 ---------------------------------------------------------------------
 Center     Atomic      Atomic             Coordinates (Angstroms)
 Number     Number       Type             X           Y           Z
 ---------------------------------------------------------------------
      1          6           0        1.726428   -0.178419   -0.214714
      2          1           0        2.118660   -1.188725   -0.224627
      3          6           0        0.586132    0.498635    0.066915
      4          1           0        0.581559    1.585753   -0.016210
      5          6           0       -0.657398   -0.178443    0.427331
      6          1           0       -1.268548    0.420212    1.157272
      7          1           0       -0.577025   -1.211002    0.790971
      8          6           0       -1.797603   -0.076147   -0.564099
 ---------------------------------------------------------------------

 SCF Done:  E(UB3LYP) =  -154.223693305     A.U. after   21 cycles

 The electronic state is 4-A.
 Alpha  occ. eigenvalues --  -10.53644 -10.48173 -10.47175 -10.47068  -1.09682
 Alpha  occ. eigenvalues --   -1.00667  -0.84720  -0.79788  -0.72913  -0.71914
 Alpha  occ. eigenvalues --   -0.65646  -0.60158  -0.54120  -0.50617  -0.47359
 Alpha virt. eigenvalues --   -0.35452  -0.27252  -0.16526  -0.14655  -0.12624
 Alpha virt. eigenvalues --   -0.11423  -0.10830  -0.09025  -0.07429  -0.06734
 Alpha virt. eigenvalues --   -0.06434  -0.04887  -0.03790  -0.02648  -0.02094

  Beta  occ. eigenvalues --  -10.51407 -10.46972 -10.46794 -10.45966  -1.07383
  Beta  occ. eigenvalues --   -0.96420  -0.80936  -0.76406  -0.71350  -0.69955
  Beta  occ. eigenvalues --   -0.64324  -0.52836
  Beta virt. eigenvalues --   -0.43268  -0.33566  -0.31471  -0.29770  -0.22467
  Beta virt. eigenvalues --   -0.16105  -0.14280  -0.12073  -0.10768  -0.10343
  Beta virt. eigenvalues --   -0.08375  -0.06975  -0.05974  -0.05438  -0.04431

 Mulliken charges and spin densities:
               1          2
     1  C   -0.056146   1.353844
     2  H    0.240519  -0.010335
     3  C    0.184860   0.145538
     4  H    0.268048   0.033818
     5  C   -0.370475   0.087007
     6  H    0.247939   0.025000
     7  H    0.276286   0.042209
     8  C    0.208969   1.322918
 Sum of Mulliken charges =   1.00000   3.00000

 Dipole moment (field-independent basis, Debye):
    X=              0.3412    Y=             -0.4545    Z=              0.9943  Tot=              1.1453
 Quadrupole moment (field-independent basis, Debye-Ang):
   XX=            -13.8115   YY=            -17.8171   ZZ=            -21.0881
   XY=             -2.3196   XZ=             -2.2009   YZ=              0.6355

  Exact polarizability: 104.449   1.392  34.497   8.198   1.013  32.178
 Approx polarizability: 199.853   4.691  48.704  25.209   5.201  51.929

                      1                      2                      3
                      A                      A                      A
 Frequencies --    152.7642               347.0284               389.5998
 Red. masses --      3.4415                 2.7359                 2.2417
 Frc consts  --      0.0473                 0.1941                 0.2005
 IR Inten    --      2.5462                 1.5540                 6.2002

                      4                      5                      6
                      A                      A                      A
 Frequencies --    592.7591               753.7101               762.4344
 Red. masses --      1.5461                 1.7133                 1.4591
 Frc consts  --      0.3201                 0.5735                 0.4997
 IR Inten    --      6.0030                 3.1675                10.7535

                      7                      8                      9
                      A                      A                      A
 Frequencies --    861.0353               902.1069              1016.5617
 Red. masses --      1.8255                 1.7387                 1.3518
 Frc consts  --      0.7974                 0.8337                 0.8231
 IR Inten    --     38.3543                 1.5993                 4.1663

                     10                     11                     12
                      A                      A                      A
 Frequencies --   1095.6401              1166.1582              1273.4757
 Red. masses --      3.0824                 1.2218                 1.2404
 Frc consts  --      2.1801                 0.9790                 1.1852
 IR Inten    --     16.5622                80.6630                31.6497

                     13                     14                     15
                      A                      A                      A
 Frequencies --   1315.5493              1479.8213              2816.8329
 Red. masses --      1.2328                 3.6290                 1.0707
 Frc consts  --      1.2570                 4.6823                 5.0054
 IR Inten    --     83.9106               284.1281                98.7480

                     16                     17                     18
                      A                      A                      A
 Frequencies --   3038.2610              3127.8786              3226.8655
 Red. masses --      1.0868                 1.0882                 1.1005
 Frc consts  --      5.9109                 6.2727                 6.7515
 IR Inten    --     19.4757                16.7076                39.3350

 - Thermochemistry -
 -------------------
 Temperature   298.150 Kelvin.  Pressure   1.00000 Atm.
 Atom     1 has atomic number  6 and mass  12.00000

 Molecular mass:    52.03130 amu.
 Principal axes and moments of inertia in atomic units:
                           1         2         3
     Eigenvalues --    64.02413 354.37452 357.82173
           X            0.99943  -0.02331  -0.02442
           Y            0.01761   0.97711  -0.21201
           Z            0.02880   0.21146   0.97696
 This molecule is an asymmetric top.
 Rotational symmetry number  1.
 Rotational temperatures (Kelvin)      1.35283     0.24441     0.24206
 Rotational constants (GHZ):          28.18845     5.09275     5.04369
 Zero-point vibrational energy     145456.8 (Joules/Mol)
                                   34.76502 (Kcal/Mol)
 Warning -- explicit consideration of   4 degrees of freedom as
           vibrations may cause significant error
 Vibrational temperatures:    219.79   499.30   560.55   852.85  1084.42
          (Kelvin)           1096.97  1238.84  1297.93  1462.60  1576.38
                             1677.84  1832.25  1892.78  2129.13  4052.79
                             4371.37  4500.31  4642.73

 Zero-point correction=                           0.055402 (Hartree/Particle)
 Thermal correction to Energy=                    0.060127
 Thermal correction to Enthalpy=                  0.061071
 Thermal correction to Gibbs Free Energy=         0.027586
 Sum of electronic and zero-point Energies=           -154.168292
 Sum of electronic and thermal Energies=              -154.163566
 Sum of electronic and thermal Enthalpies=            -154.162622
 Sum of electronic and thermal Free Energies=         -154.196107

                     E (Thermal)             CV                S
                      KCal/Mol        Cal/Mol-Kelvin    Cal/Mol-Kelvin
 Total                   37.730             15.734             70.475
 Electronic               0.000              0.000              2.755
 Translational            0.889              2.981             37.771
 Rotational               0.889              2.981             23.611
 Vibrational             35.953              9.772              6.339
 Vibration     1          0.619              1.900              2.638
 Vibration     2          0.725              1.581              1.180
 Vibration     3          0.758              1.492              1.002
 Vibration     4          0.950              1.047              0.462

 Normal termination of Gaussian 09 at Thu Jan 24 16:06:55 2019.
