 Gaussian 09, Revision D.01,
 Gaussian 09:  ES64L-G09RevD.01 24-Apr-2013

 ---------------------------
 #p b3lyp/6-311++g(d,p) freq
 ---------------------------

 ---
 min
 ---
 Symbolic Z-matrix:
 Charge =  1 Multiplicity = 2

                         Standard orientation:
 ---------------------------------------------------------------------
 Center     Atomic      Atomic             Coordinates (Angstroms)
 Number     Number       Type             X           Y           Z
 ---------------------------------------------------------------------
      1          6           0       -1.275812    1.204551   -0.000000
      2          6           0       -0.000000    0.442066   -0.000000
      3          8           0        1.105779    1.000011   -0.000000
      4          6           0        0.145411   -0.966122    0.000000
      5          6           0        0.366951   -2.157240    0.000000
      6          1           0       -1.097554    2.279167   -0.000000
      7          1           0       -1.843437    0.899825    0.888077
      8          1           0       -1.843437    0.899825   -0.888077
      9          1           0        0.518901   -3.218434    0.000000
 ---------------------------------------------------------------------

 SCF Done:  E(UB3LYP) =  -229.680544036     A.U. after   20 cycles

 The electronic state is 2-A'.
 Alpha  occ. eigenvalues --  -19.49681 -10.56952 -10.46221 -10.44544 -10.41545
 Alpha  occ. eigenvalues --   -1.39546  -1.04965  -1.00076  -0.91070  -0.79293
 Alpha  occ. eigenvalues --   -0.76552  -0.74018  -0.72662  -0.64000  -0.63437
 Alpha  occ. eigenvalues --   -0.61930  -0.55527  -0.55103
 Alpha virt. eigenvalues --   -0.33682  -0.22240  -0.16277  -0.15987  -0.12778
 Alpha virt. eigenvalues --   -0.10882  -0.10752  -0.10282  -0.08877  -0.08179
 Alpha virt. eigenvalues --   -0.06501  -0.05960  -0.05923  -0.04408  -0.03178

  Beta  occ. eigenvalues --  -19.47454 -10.57052 -10.46006 -10.44322 -10.41435
  Beta  occ. eigenvalues --   -1.35233  -1.03862  -0.99271  -0.89535  -0.77474
  Beta  occ. eigenvalues --   -0.75324  -0.71558  -0.70959  -0.63548  -0.62670
  Beta  occ. eigenvalues --   -0.54984  -0.54164
  Beta virt. eigenvalues --   -0.44693  -0.33182  -0.20820  -0.16179  -0.15840
  Beta virt. eigenvalues --   -0.12685  -0.10774  -0.10706  -0.10127  -0.08772
  Beta virt. eigenvalues --   -0.08014  -0.06484  -0.05923  -0.05860  -0.04127

 Mulliken charges and spin densities:
               1          2
     1  C   -0.536693   0.036802
     2  C    0.079296  -0.089213
     3  O    0.174248   0.788786
     4  C    1.751575   0.101922
     5  C   -1.432544   0.163574
     6  H    0.246586  -0.003702
     7  H    0.236336   0.003151
     8  H    0.236336   0.003151
     9  H    0.244860  -0.004470
 Sum of Mulliken charges =   1.00000   1.00000

 Dipole moment (field-independent basis, Debye):
    X=             -1.6717    Y=             -1.6346    Z=             -0.0000  Tot=              2.3380
 Quadrupole moment (field-independent basis, Debye-Ang):
   XX=            -22.7831   YY=             -7.7764   ZZ=            -26.3113
   XY=             -5.8240   XZ=              0.0000   YZ=             -0.0000

  Exact polarizability:  40.486  -5.689  85.695   0.000   0.000  26.105
 Approx polarizability:  62.513   3.646 164.977   0.000  -0.000  36.151

                      1                      2                      3
                     A"                     A'                     A"
 Frequencies --    111.1481               134.7529               226.2086
 Red. masses --      1.0605                 4.5046                 4.0836
 Frc consts  --      0.0077                 0.0482                 0.1231
 IR Inten    --      0.1799                 3.7079                 9.3881

                      4                      5                      6
                     A'                     A'                     A"
 Frequencies --    329.0081               484.5687               558.6143
 Red. masses --      4.0055                 4.9722                 2.7145
 Frc consts  --      0.2555                 0.6879                 0.4991
 IR Inten    --     18.3562                22.1690                 5.2640

                      7                      8                      9
                     A'                     A'                     A"
 Frequencies --    756.8445               768.5260               805.7776
 Red. masses --      2.3710                 1.8063                 1.2981
 Frc consts  --      0.8002                 0.6286                 0.4966
 IR Inten    --      9.6661                22.1007                22.0867

                     10                     11                     12
                     A'                     A"                     A'
 Frequencies --    985.5475              1004.9112              1134.6717
 Red. masses --      1.7792                 1.7465                 3.9943
 Frc consts  --      1.0182                 1.0391                 3.0300
 IR Inten    --      7.6433                13.3886                43.0253

                     13                     14                     15
                     A'                     A'                     A"
 Frequencies --   1325.7500              1420.1439              1432.7597
 Red. masses --      1.2633                 1.1525                 1.0442
 Frc consts  --      1.3083                 1.3695                 1.2629
 IR Inten    --     45.6553                 5.3004                20.0221

                     16                     17                     18
                     A'                     A'                     A'
 Frequencies --   1537.5744              2168.1400              3012.6706
 Red. masses --      4.2519                 5.9290                 1.0351
 Frc consts  --      5.9225                16.4213                 5.5351
 IR Inten    --     18.9080               486.9176                58.9202

                     19                     20                     21
                     A"                     A'                     A'
 Frequencies --   3076.2603              3154.5725              3397.7643
 Red. masses --      1.0988                 1.1034                 1.1673
 Frc consts  --      6.1267                 6.4693                 7.9403
 IR Inten    --     18.8296                 7.3846                84.5127

 - Thermochemistry -
 -------------------
 Temperature   298.150 Kelvin.  Pressure   1.00000 Atm.
 Atom     1 has atomic number  6 and mass  12.00000

 Molecular mass:    68.02621 amu.
 Principal axes and moments of inertia in atomic units:
                           1         2         3
     Eigenvalues --   163.03474 452.27385 603.95472
           X           -0.24765   0.96885   0.00000
           Y            0.96885   0.24765   0.00000
           Z           -0.00000  -0.00000   1.00000
 This molecule is an asymmetric top.
 Rotational symmetry number  1.
 Rotational temperatures (Kelvin)      0.53126     0.19151     0.14341
 Rotational constants (GHZ):          11.06967     3.99037     2.98821
 Zero-point vibrational energy     166437.7 (Joules/Mol)
                                   39.77957 (Kcal/Mol)
 Warning -- explicit consideration of   6 degrees of freedom as
           vibrations may cause significant error
 Vibrational temperatures:    159.92   193.88   325.46   473.37   697.19
          (Kelvin)            803.72  1088.93  1105.74  1159.33  1417.98
                             1445.84  1632.54  1907.46  2043.27  2061.42
                             2212.22  3119.47  4334.56  4426.05  4538.72
                             4888.62

 Zero-point correction=                           0.063393 (Hartree/Particle)
 Thermal correction to Energy=                    0.069316
 Thermal correction to Enthalpy=                  0.070260
 Thermal correction to Gibbs Free Energy=         0.033785
 Sum of electronic and zero-point Energies=           -229.617151
 Sum of electronic and thermal Energies=              -229.611228
 Sum of electronic and thermal Enthalpies=            -229.610284
 Sum of electronic and thermal Free Energies=         -229.646759

                     E (Thermal)             CV                S
                      KCal/Mol        Cal/Mol-Kelvin    Cal/Mol-Kelvin
 Total                   43.497             19.133             76.768
 Electronic               0.000              0.000              1.377
 Translational            0.889              2.981             38.570
 Rotational               0.889              2.981             25.302
 Vibrational             41.719             13.171             11.519
 Vibration     1          0.607              1.940              3.249
 Vibration     2          0.613              1.919              2.877
 Vibration     3          0.650              1.801              1.909
 Vibration     4          0.712              1.618              1.265
 Vibration     5          0.841              1.284              0.698
 Vibration     6          0.914              1.121              0.527

 Optimization completed.
    -- Stationary point found.
 Normal termination of Gaussian 09 at Thu Jan 24 16:21:09 2019.
