 Gaussian 09, Revision D.01,
 Gaussian 09:  ES64L-G09RevD.01 24-Apr-2013

 ---------------------------
 #p b3lyp/6-311++g(d,p) freq
 ---------------------------

 ---
 min
 ---
 Symbolic Z-matrix:
 Charge =  0 Multiplicity = 3

                         Standard orientation:
 ---------------------------------------------------------------------
 Center     Atomic      Atomic             Coordinates (Angstroms)
 Number     Number       Type             X           Y           Z
 ---------------------------------------------------------------------
      1          6           0        0.061372   -1.744474    0.000000
      2          1           0        0.337736   -2.232997    0.929365
      3          1           0        0.337736   -2.232997   -0.929365
      4          6           0       -0.648402   -0.465060   -0.000000
      5          1           0       -1.738738   -0.459089   -0.000000
      6          6           0       -0.000000    0.748697   -0.000000
      7          6           0        0.582914    1.822209   -0.000000
      8          1           0        1.087959    2.756850   -0.000000
 ---------------------------------------------------------------------

 SCF Done:  E(UB3LYP) =  -154.694849901     A.U. after   16 cycles

 The electronic state is 3-A".
 Alpha  occ. eigenvalues --  -10.21221 -10.19972 -10.18735 -10.18431  -0.81786
 Alpha  occ. eigenvalues --   -0.74652  -0.65083  -0.54277  -0.48929  -0.45507
 Alpha  occ. eigenvalues --   -0.45054  -0.33976  -0.28963  -0.23363  -0.21291
 Alpha virt. eigenvalues --   -0.00586   0.00845   0.01540   0.02560   0.02923
 Alpha virt. eigenvalues --    0.04684   0.05777   0.07667   0.08427   0.09262
 Alpha virt. eigenvalues --    0.09699   0.10321   0.11308   0.12298   0.13287

  Beta  occ. eigenvalues --  -10.20230 -10.18937 -10.18610 -10.17736  -0.79575
  Beta  occ. eigenvalues --   -0.72097  -0.61993  -0.53274  -0.47412  -0.43586
  Beta  occ. eigenvalues --   -0.43403  -0.31064  -0.28359
  Beta virt. eigenvalues --   -0.09935  -0.08151  -0.00368   0.00979   0.01701
  Beta virt. eigenvalues --    0.02782   0.02988   0.05328   0.06272   0.07926
  Beta virt. eigenvalues --    0.08746   0.10179   0.10910   0.11556   0.11799

 Mulliken charges and spin densities:
               1          2
     1  C   -0.355692   1.058100
     2  H    0.138130  -0.015623
     3  H    0.138130  -0.015623
     4  C   -0.149956   0.707541
     5  H    0.167975   0.006927
     6  C    1.701831  -0.269576
     7  C   -1.765358   0.551440
     8  H    0.124940  -0.023186
 Sum of Mulliken charges =  -0.00000   2.00000

 Dipole moment (field-independent basis, Debye):
    X=             -0.0324    Y=             -0.2762    Z=             -0.0000  Tot=              0.2781
 Quadrupole moment (field-independent basis, Debye-Ang):
   XX=            -24.0867   YY=            -20.5220   ZZ=            -25.4838
   XY=              1.7612   XZ=             -0.0000   YZ=              0.0000

  Exact polarizability:  40.211  11.543  71.681  -0.000  -0.000  30.805
 Approx polarizability:  57.589  24.786 103.754   0.000   0.000  39.939

                      1                      2                      3
                     A'                     A"                     A'
 Frequencies --    198.0128               292.1471               420.4165
 Red. masses --      2.8018                 1.3997                 1.4580
 Frc consts  --      0.0647                 0.0704                 0.1518
 IR Inten    --      5.1806                 6.7672                40.3174

                      4                      5                      6
                     A"                     A"                     A'
 Frequencies --    466.8693               481.2927               574.8604
 Red. masses --      2.3419                 1.3430                 5.4683
 Frc consts  --      0.3008                 0.1833                 1.0647
 IR Inten    --     19.2122                34.5201                19.6025

                      7                      8                      9
                     A"                     A'                     A"
 Frequencies --    590.0432               651.9985               959.2028
 Red. masses --      1.1614                 1.2340                 1.3791
 Frc consts  --      0.2382                 0.3091                 0.7476
 IR Inten    --     26.5495                59.6491                 1.2712

                     10                     11                     12
                     A'                     A'                     A'
 Frequencies --    968.7790              1155.7221              1348.9863
 Red. masses --      5.5459                 1.6050                 2.2095
 Frc consts  --      3.0667                 1.2631                 2.3689
 IR Inten    --      2.4970                 2.0390                 8.5017

                     13                     14                     15
                     A'                     A'                     A'
 Frequencies --   1428.1170              2011.9489              3090.4857
 Red. masses --      1.1769                 6.7493                 1.0822
 Frc consts  --      1.4142                16.0969                 6.0899
 IR Inten    --      2.1651                 0.3149                 4.6338

                     16                     17                     18
                     A'                     A"                     A'
 Frequencies --   3106.6637              3199.8165              3468.6926
 Red. masses --      1.0481                 1.1172                 1.1386
 Frc consts  --      5.9601                 6.7397                 8.0711
 IR Inten    --     12.5332                 4.1550                68.1004

 - Thermochemistry -
 -------------------
 Temperature   298.150 Kelvin.  Pressure   1.00000 Atm.
 Atom     1 has atomic number  6 and mass  12.00000

 Molecular mass:    52.03130 amu.
 Principal axes and moments of inertia in atomic units:
                           1         2         3
     Eigenvalues --    43.32342 387.48513 418.37441
           X            0.18354   0.98301   0.00000
           Y            0.98301  -0.18354   0.00000
           Z            0.00000   0.00000   1.00000
 This molecule is an asymmetric top.
 Rotational symmetry number  1.
 Rotational temperatures (Kelvin)      1.99924     0.22353     0.20702
 Rotational constants (GHZ):          41.65740     4.65758     4.31370
 Zero-point vibrational energy     146028.5 (Joules/Mol)
                                   34.90164 (Kcal/Mol)
 Warning -- explicit consideration of   7 degrees of freedom as
           vibrations may cause significant error
 Vibrational temperatures:    284.90   420.33   604.88   671.72   692.47
          (Kelvin)            827.09   848.94   938.08  1380.08  1393.86
                             1662.82  1940.89  2054.74  2894.74  4446.51
                             4469.79  4603.82  4990.67

 Zero-point correction=                           0.055619 (Hartree/Particle)
 Thermal correction to Energy=                    0.060818
 Thermal correction to Enthalpy=                  0.061762
 Thermal correction to Gibbs Free Energy=         0.028022
 Sum of electronic and zero-point Energies=           -154.639231
 Sum of electronic and thermal Energies=              -154.634032
 Sum of electronic and thermal Enthalpies=            -154.633087
 Sum of electronic and thermal Free Energies=         -154.666828

                     E (Thermal)             CV                S
                      KCal/Mol        Cal/Mol-Kelvin    Cal/Mol-Kelvin
 Total                   38.164             17.902             71.013
 Electronic               0.000              0.000              2.183
 Translational            0.889              2.981             37.771
 Rotational               0.889              2.981             23.467
 Vibrational             36.387             11.941              7.592
 Vibration     1          0.637              1.843              2.151
 Vibration     2          0.688              1.688              1.461
 Vibration     3          0.783              1.426              0.891
 Vibration     4          0.824              1.324              0.746
 Vibration     5          0.838              1.292              0.707
 Vibration     6          0.931              1.086              0.495
 Vibration     7          0.947              1.053              0.467

 Optimization completed.
    -- Stationary point found.
 Normal termination of Gaussian 09 at Sun Mar  4 21:20:02 2018.
