 Gaussian 09, Revision D.01,
 Gaussian 09:  ES64L-G09RevD.01 24-Apr-2013

 ---------------------------
 #p b3lyp/6-311++g(d,p) freq
 ---------------------------

 ---
 min
 ---
 Symbolic Z-matrix:
 Charge =  0 Multiplicity = 3

                         Standard orientation:
 ---------------------------------------------------------------------
 Center     Atomic      Atomic             Coordinates (Angstroms)
 Number     Number       Type             X           Y           Z
 ---------------------------------------------------------------------
      1          6           0        0.000000   -0.000000    0.625051
      2          6           0        0.000000    0.000000   -0.625051
      3          6           0       -0.000000    0.000000   -1.984748
      4          1           0       -0.928245    0.000000   -2.546946
      5          1           0        0.928245    0.000000   -2.546946
      6          6           0       -0.000000   -0.000000    1.984748
      7          1           0       -0.000000    0.928245    2.546946
      8          1           0        0.000000   -0.928245    2.546946
 ---------------------------------------------------------------------

 SCF Done:  E(UB3LYP) =  -154.723602681     A.U. after   12 cycles

 The electronic state is 3-A1.
 Alpha  occ. eigenvalues --  -10.20172 -10.20172 -10.19891 -10.19731  -0.81946
 Alpha  occ. eigenvalues --   -0.76078  -0.67996  -0.51502  -0.48024  -0.46214
 Alpha  occ. eigenvalues --   -0.46214  -0.34326  -0.34326  -0.21154  -0.21154
 Alpha virt. eigenvalues --   -0.00498   0.00767   0.02702   0.02702   0.04721
 Alpha virt. eigenvalues --    0.04721   0.05085   0.08580   0.08971   0.08971
 Alpha virt. eigenvalues --    0.11482   0.11628   0.12238   0.12238   0.14663

  Beta  occ. eigenvalues --  -10.19442 -10.19297 -10.19226 -10.19214  -0.79451
  Beta  occ. eigenvalues --   -0.73352  -0.65471  -0.49955  -0.46847  -0.44581
  Beta  occ. eigenvalues --   -0.44581  -0.30776  -0.30776
  Beta virt. eigenvalues --   -0.10231  -0.10231  -0.00321   0.00990   0.02927
  Beta virt. eigenvalues --    0.02927   0.05080   0.05469   0.05469   0.08529
  Beta virt. eigenvalues --    0.11345   0.11345   0.11790   0.11899   0.12828

 Mulliken charges and spin densities:
               1          2
     1  C    0.295770   0.236168
     2  C    0.295770   0.236168
     3  C   -0.572752   0.770784
     4  H    0.138491  -0.003476
     5  H    0.138491  -0.003476
     6  C   -0.572752   0.770784
     7  H    0.138491  -0.003476
     8  H    0.138491  -0.003476
 Sum of Mulliken charges =  -0.00000   2.00000

 Dipole moment (field-independent basis, Debye):
    X=              0.0000    Y=              0.0000    Z=             -0.0000  Tot=              0.0000
 Quadrupole moment (field-independent basis, Debye-Ang):
   XX=            -25.2821   YY=            -25.2821   ZZ=            -19.0877
   XY=              0.0000   XZ=             -0.0000   YZ=             -0.0000

  Exact polarizability:  29.464  -0.000  29.464   0.000  -0.000 100.674
 Approx polarizability:  37.397  -0.000  37.397  -0.000   0.000 158.080

                      1                      2                      3
                      E                      E                      E
 Frequencies --    191.5278               191.5278               411.5006
 Red. masses --      2.9575                 2.9575                 5.1956
 Frc consts  --      0.0639                 0.0639                 0.5184
 IR Inten    --      6.4318                 6.4318                 1.1107

                      4                      5                      6
                      E                     B1                      E
 Frequencies --    411.5006               635.8416               680.8172
 Red. masses --      5.1956                 1.0078                 1.3615
 Frc consts  --      0.5184                 0.2401                 0.3718
 IR Inten    --      1.1107                 0.0000                61.0803

                      7                      8                      9
                      E                     A1                      E
 Frequencies --    680.8172               848.1302               992.8585
 Red. masses --      1.3615                 4.1050                 1.3897
 Frc consts  --      0.3718                 1.7398                 0.8071
 IR Inten    --     61.0803                 0.0000                 0.0394

                     10                     11                     12
                      E                     B2                     A1
 Frequencies --    992.8585              1328.9276              1437.9545
 Red. masses --      1.3897                 2.1128                 1.1534
 Frc consts  --      0.8071                 2.1984                 1.4051
 IR Inten    --      0.0394                 0.2857                 0.0000

                     13                     14                     15
                     B2                     A1                     A1
 Frequencies --   1474.6966              1904.6078              3112.2969
 Red. masses --      1.7440                11.5209                 1.0485
 Frc consts  --      2.2346                24.6233                 5.9839
 IR Inten    --      0.4972                 0.0000                 0.0000

                     16                     17                     18
                     B2                      E                      E
 Frequencies --   3116.8887              3196.8975              3196.8975
 Red. masses --      1.0519                 1.1161                 1.1161
 Frc consts  --      6.0208                 6.7207                 6.7207
 IR Inten    --     10.2047                 1.4438                 1.4438

 - Thermochemistry -
 -------------------
 Temperature   298.150 Kelvin.  Pressure   1.00000 Atm.
 Atom     1 has atomic number  6 and mass  12.00000

 Molecular mass:    52.03130 amu.
 Principal axes and moments of inertia in atomic units:
                           1         2         3
     Eigenvalues --    12.40419 470.68590 470.68590
           X           -0.00000   0.65493   0.75569
           Y           -0.00000   0.75569  -0.65493
           Z            1.00000   0.00000   0.00000
 This molecule is a prolate symmetric top.
 Rotational symmetry number  4.
 Rotational temperatures (Kelvin)      6.98262     0.18402     0.18402
 Rotational constants (GHZ):         145.49446     3.83428     3.83428
 Zero-point vibrational energy     148376.1 (Joules/Mol)
                                   35.46274 (Kcal/Mol)
 Warning -- explicit consideration of   4 degrees of freedom as
           vibrations may cause significant error
 Vibrational temperatures:    275.57   275.57   592.06   592.06   914.83
          (Kelvin)            979.54   979.54  1220.27  1428.50  1428.50
                             1912.03  2068.89  2121.76  2740.30  4477.90
                             4484.50  4599.62  4599.62

 Zero-point correction=                           0.056513 (Hartree/Particle)
 Thermal correction to Energy=                    0.061637
 Thermal correction to Enthalpy=                  0.062582
 Thermal correction to Gibbs Free Energy=         0.030523
 Sum of electronic and zero-point Energies=           -154.667089
 Sum of electronic and thermal Energies=              -154.661965
 Sum of electronic and thermal Enthalpies=            -154.661021
 Sum of electronic and thermal Free Energies=         -154.693079

                     E (Thermal)             CV                S
                      KCal/Mol        Cal/Mol-Kelvin    Cal/Mol-Kelvin
 Total                   38.678             16.917             67.472
 Electronic               0.000              0.000              2.183
 Translational            0.889              2.981             37.771
 Rotational               0.889              2.981             19.780
 Vibrational             36.901             10.955              7.739
 Vibration     1          0.634              1.852              2.213
 Vibration     2          0.634              1.852              2.213
 Vibration     3          0.775              1.445              0.921
 Vibration     4          0.775              1.445              0.921

 Optimization completed.
    -- Stationary point found.
 Normal termination of Gaussian 09 at Sun Mar  4 21:18:18 2018.
