 Gaussian 09, Revision D.01,
 Gaussian 09:  ES64L-G09RevD.01 24-Apr-2013

 ---------------------------
 #p b3lyp/6-311++g(d,p) freq
 ---------------------------

 ---
 min
 ---
 Symbolic Z-matrix:
 Charge =  0 Multiplicity = 1

                         Standard orientation:
 ---------------------------------------------------------------------
 Center     Atomic      Atomic             Coordinates (Angstroms)
 Number     Number       Type             X           Y           Z
 ---------------------------------------------------------------------
      1          8           0        0.078543    1.812477   -0.000000
      2          6           0        1.050972   -0.546401    0.000000
      3          6           0       -0.000000    0.616386   -0.000000
      4          6           0       -0.204807   -1.413506    0.000000
      5          6           0       -1.093966   -0.400924   -0.000000
      6          1           0        1.679786   -0.599509    0.893060
      7          1           0        1.679786   -0.599509   -0.893060
      8          1           0       -0.326045   -2.489432    0.000000
      9          1           0       -2.175070   -0.344696   -0.000000
 ---------------------------------------------------------------------

 SCF Done:  E(RB3LYP) =  -230.059162540     A.U. after   13 cycles

 The electronic state is 1-A'.
 Alpha  occ. eigenvalues --  -19.12838 -10.27452 -10.22173 -10.20009 -10.19735
 Alpha  occ. eigenvalues --   -1.06087  -0.88682  -0.69064  -0.62712  -0.54174
 Alpha  occ. eigenvalues --   -0.48974  -0.47184  -0.45528  -0.40585  -0.38522
 Alpha  occ. eigenvalues --   -0.38119  -0.29811  -0.26434
 Alpha virt. eigenvalues --   -0.06788  -0.00958   0.00970   0.01186   0.01401
 Alpha virt. eigenvalues --    0.03683   0.04994   0.06609   0.06762   0.07675
 Alpha virt. eigenvalues --    0.09112   0.09570   0.11099   0.11500   0.11797

 Mulliken charges:
               1
     1  O   -0.278278
     2  C   -0.253406
     3  C   -0.130044
     4  C   -0.104026
     5  C    0.126273
     6  H    0.149068
     7  H    0.149068
     8  H    0.177596
     9  H    0.163751
 Sum of Mulliken charges =  -0.00000

 Dipole moment (field-independent basis, Debye):
    X=             -0.1677    Y=             -3.5697    Z=             -0.0000  Tot=              3.5736
 Quadrupole moment (field-independent basis, Debye-Ang):
   XX=            -26.8691   YY=            -33.4914   ZZ=            -29.3530
   XY=             -0.3923   XZ=             -0.0000   YZ=              0.0000

  Exact polarizability:  50.635  -1.739  59.422   0.000  -0.000  31.585
 Approx polarizability:  71.326  -6.978  98.655  -0.000   0.000  45.156

                      1                      2                      3
                     A"                     A'                     A"
 Frequencies --    212.6789               455.5747               527.1222
 Red. masses --      2.9749                 4.2156                 1.5764
 Frc consts  --      0.0793                 0.5155                 0.2581
 IR Inten    --      1.6793                 1.7980                 5.7724

                      4                      5                      6
                     A'                     A"                     A'
 Frequencies --    698.6589               811.9173               859.6138
 Red. masses --      4.3373                 1.3938                 3.4309
 Frc consts  --      1.2474                 0.5414                 1.4937
 IR Inten    --      0.1293                55.3273                 2.7030

                      7                      8                      9
                     A"                     A'                     A"
 Frequencies --    962.3918               969.0734              1009.8464
 Red. masses --      1.3100                 1.9500                 1.8972
 Frc consts  --      0.7149                 1.0790                 1.1399
 IR Inten    --      0.6299                11.4869                 1.0467

                     10                     11                     12
                     A'                     A'                     A"
 Frequencies --   1027.4735              1084.1059              1103.7892
 Red. masses --      4.1463                 1.5500                 1.2154
 Frc consts  --      2.5790                 1.0733                 0.8725
 IR Inten    --     48.4251                 1.8712                 3.9648

                     13                     14                     15
                     A'                     A'                     A'
 Frequencies --   1208.5085              1301.4677              1466.4240
 Red. masses --      1.5035                 1.8979                 1.1278
 Frc consts  --      1.2938                 1.8941                 1.4289
 IR Inten    --     11.1242                21.0422                 3.4744

                     16                     17                     18
                     A'                     A'                     A'
 Frequencies --   1580.8484              1849.8502              3042.5925
 Red. masses --      5.2746                12.3111                 1.0565
 Frc consts  --      7.7664                24.8211                 5.7626
 IR Inten    --     12.8307               437.2368                20.7186

                     19                     20                     21
                     A"                     A'                     A'
 Frequencies --   3090.3437              3194.6625              3222.2840
 Red. masses --      1.1074                 1.0873                 1.1133
 Frc consts  --      6.2309                 6.5382                 6.8110
 IR Inten    --     13.3767                 3.5474                 3.9889

 - Thermochemistry -
 -------------------
 Temperature   298.150 Kelvin.  Pressure   1.00000 Atm.
 Atom     1 has atomic number  8 and mass  15.99491

 Molecular mass:    68.02621 amu.
 Principal axes and moments of inertia in atomic units:
                           1         2         3
     Eigenvalues --   143.29135 340.34371 472.15342
           X            0.06751   0.99772   0.00000
           Y            0.99772  -0.06751   0.00000
           Z           -0.00000   0.00000   1.00000
 This molecule is an asymmetric top.
 Rotational symmetry number  1.
 Rotational temperatures (Kelvin)      0.60446     0.25449     0.18344
 Rotational constants (GHZ):          12.59491     5.30270     3.82236
 Zero-point vibrational energy     177521.2 (Joules/Mol)
                                   42.42859 (Kcal/Mol)
 Warning -- explicit consideration of   3 degrees of freedom as
           vibrations may cause significant error
 Vibrational temperatures:    306.00   655.47   758.41  1005.21  1168.17
          (Kelvin)           1236.79  1384.67  1394.28  1452.94  1478.30
                             1559.78  1588.10  1738.77  1872.52  2109.85
                             2274.49  2661.52  4377.61  4446.31  4596.40
                             4636.14

 Zero-point correction=                           0.067614 (Hartree/Particle)
 Thermal correction to Energy=                    0.071944
 Thermal correction to Enthalpy=                  0.072889
 Thermal correction to Gibbs Free Energy=         0.040633
 Sum of electronic and zero-point Energies=           -229.991548
 Sum of electronic and thermal Energies=              -229.987218
 Sum of electronic and thermal Enthalpies=            -229.986274
 Sum of electronic and thermal Free Energies=         -230.018529

                     E (Thermal)             CV                S
                      KCal/Mol        Cal/Mol-Kelvin    Cal/Mol-Kelvin
 Total                   45.146             14.969             67.887
 Electronic               0.000              0.000              0.000
 Translational            0.889              2.981             38.570
 Rotational               0.889              2.981             24.647
 Vibrational             43.368              9.007              4.671
 Vibration     1          0.644              1.822              2.021
 Vibration     2          0.814              1.349              0.779
 Vibration     3          0.882              1.190              0.594

 Optimization completed.
    -- Stationary point found.
 Normal termination of Gaussian 09 at Sun Mar  4 21:21:42 2018.
