 Gaussian 09, Revision D.01,
 Gaussian 09:  ES64L-G09RevD.01 24-Apr-2013

 ---------------------------
 #p b3lyp/6-311++g(d,p) freq
 ---------------------------

 ---
 min
 ---
 Symbolic Z-matrix:
 Charge =  1 Multiplicity = 2

                         Standard orientation:
 ---------------------------------------------------------------------
 Center     Atomic      Atomic             Coordinates (Angstroms)
 Number     Number       Type             X           Y           Z
 ---------------------------------------------------------------------
      1          6           0        0.000000    0.676513   -1.005405
      2          6           0        0.000000   -0.000000    0.203858
      3          1           0        0.000000    1.604104   -1.560979
      4          1           0       -0.000000   -0.937285    2.152601
      5          6           0        0.000000   -0.000000    1.609744
      6          1           0        0.000000    0.937285    2.152601
      7          6           0       -0.000000   -0.676513   -1.005405
      8          1           0       -0.000000   -1.604104   -1.560979
 ---------------------------------------------------------------------

 SCF Done:  E(UB3LYP) =  -154.452735754     A.U. after   12 cycles

 The electronic state is 2-B1.
 Alpha  occ. eigenvalues --  -10.48507 -10.48110 -10.48039 -10.44573  -1.19491
 Alpha  occ. eigenvalues --   -0.98851  -0.83688  -0.80659  -0.74023  -0.68593
 Alpha  occ. eigenvalues --   -0.65672  -0.62282  -0.58449  -0.49337
 Alpha virt. eigenvalues --   -0.27745  -0.22173  -0.15277  -0.13563  -0.13372
 Alpha virt. eigenvalues --   -0.11392  -0.10554  -0.09760  -0.09479  -0.05915
 Alpha virt. eigenvalues --   -0.05423  -0.04566  -0.04428  -0.03648  -0.02943

  Beta  occ. eigenvalues --  -10.48483 -10.47933 -10.47864 -10.43445  -1.19035
  Beta  occ. eigenvalues --   -0.95763  -0.83353  -0.80209  -0.73062  -0.67927
  Beta  occ. eigenvalues --   -0.63650  -0.61805  -0.58260
  Beta virt. eigenvalues --   -0.37259  -0.26465  -0.18674  -0.15042  -0.13473
  Beta virt. eigenvalues --   -0.13279  -0.11250  -0.10377  -0.09328  -0.09054
  Beta virt. eigenvalues --   -0.05838  -0.04618  -0.04357  -0.04276  -0.03494

 Mulliken charges and spin densities:
               1          2
     1  C   -0.008130   0.094512
     2  C    0.300316   0.004000
     3  H    0.262896  -0.004526
     4  H    0.227251  -0.039941
     5  C   -0.264349   0.895912
     6  H    0.227251  -0.039941
     7  C   -0.008130   0.094512
     8  H    0.262896  -0.004526
 Sum of Mulliken charges =   1.00000   1.00000

 Dipole moment (field-independent basis, Debye):
    X=             -0.0000    Y=             -0.0000    Z=             -0.6131  Tot=              0.6131
 Quadrupole moment (field-independent basis, Debye-Ang):
   XX=            -22.1226   YY=            -14.7132   ZZ=             -9.5071
   XY=              0.0000   XZ=              0.0000   YZ=             -0.0000

  Exact polarizability:  20.194   0.000  34.880   0.000   0.000  52.008
 Approx polarizability:  28.812   0.000  53.135   0.000  -0.000  72.891

                      1                      2                      3
                     A2                     B2                     B1
 Frequencies --    236.5173               358.5821               414.0959
 Red. masses --      1.0602                 2.3274                 3.0271
 Frc consts  --      0.0349                 0.1763                 0.3058
 IR Inten    --      0.0000                 5.0645                20.7350

                      4                      5                      6
                     B1                     A1                     B1
 Frequencies --    814.5510               835.7914               876.8318
 Red. masses --      1.2465                 2.1773                 1.4723
 Frc consts  --      0.4873                 0.8961                 0.6669
 IR Inten    --      6.5499                 0.1357                65.3907

                      7                      8                      9
                     B2                     A2                     A1
 Frequencies --    948.3674               984.5844               995.5138
 Red. masses --      1.3465                 1.4518                 1.4495
 Frc consts  --      0.7135                 0.8292                 0.8464
 IR Inten    --      2.1442                 0.0000                30.1018

                     10                     11                     12
                     B2                     B2                     A1
 Frequencies --   1073.3362              1261.1650              1434.3828
 Red. masses --      1.5395                 4.5240                 3.2019
 Frc consts  --      1.0450                 4.2395                 3.8814
 IR Inten    --      9.0349                24.3792                45.9043

                     13                     14                     15
                     A1                     A1                     A1
 Frequencies --   1470.5208              1745.1844              3152.6117
 Red. masses --      1.3897                 7.1318                 1.0510
 Frc consts  --      1.7706                12.7977                 6.1543
 IR Inten    --     35.3108                19.7682                18.2098

                     16                     17                     18
                     B2                     B2                     A1
 Frequencies --   3238.5281              3271.1582              3273.3981
 Red. masses --      1.0960                 1.1233                 1.1419
 Frc consts  --      6.7723                 7.0818                 7.2090
 IR Inten    --     76.0867                10.1644                39.8698

 - Thermochemistry -
 -------------------
 Temperature   298.150 Kelvin.  Pressure   1.00000 Atm.
 Atom     1 has atomic number  6 and mass  12.00000

 Molecular mass:    52.03130 amu.
 Principal axes and moments of inertia in atomic units:
                           1         2         3
     Eigenvalues --    64.06990 250.25673 314.32663
           X            0.00000   0.00000   1.00000
           Y           -0.00000   1.00000  -0.00000
           Z            1.00000   0.00000  -0.00000
 This molecule is an asymmetric top.
 Rotational symmetry number  2.
 Rotational temperatures (Kelvin)      1.35186     0.34610     0.27555
 Rotational constants (GHZ):          28.16832     7.21156     5.74161
 Zero-point vibrational energy     157818.1 (Joules/Mol)
                                   37.71942 (Kcal/Mol)
 Warning -- explicit consideration of   3 degrees of freedom as
           vibrations may cause significant error
 Vibrational temperatures:    340.30   515.92   595.79  1171.96  1202.52
          (Kelvin)           1261.56  1364.49  1416.60  1432.32  1544.29
                             1814.53  2063.75  2115.75  2510.93  4535.90
                             4659.51  4706.46  4709.68

 Zero-point correction=                           0.060110 (Hartree/Particle)
 Thermal correction to Energy=                    0.064474
 Thermal correction to Enthalpy=                  0.065418
 Thermal correction to Gibbs Free Energy=         0.034178
 Sum of electronic and zero-point Energies=           -154.392626
 Sum of electronic and thermal Energies=              -154.388262
 Sum of electronic and thermal Enthalpies=            -154.387318
 Sum of electronic and thermal Free Energies=         -154.418558

                     E (Thermal)             CV                S
                      KCal/Mol        Cal/Mol-Kelvin    Cal/Mol-Kelvin
 Total                   40.458             14.391             65.751
 Electronic               0.000              0.000              1.377
 Translational            0.889              2.981             37.771
 Rotational               0.889              2.981             21.760
 Vibrational             38.680              8.429              4.843
 Vibration     1          0.655              1.785              1.829
 Vibration     2          0.733              1.558              1.128
 Vibration     3          0.778              1.440              0.912

 Optimization completed.
    -- Stationary point found.
 Normal termination of Gaussian 09 at Thu Jan 24 16:02:28 2019.
