 Gaussian 09, Revision D.01,
 Gaussian 09:  ES64L-G09RevD.01 24-Apr-2013

 ---------------------------
 #p b3lyp/6-311++g(d,p) freq
 ---------------------------

 ---
 min
 ---
 Symbolic Z-matrix:
 Charge =  0 Multiplicity = 3

                         Standard orientation:
 ---------------------------------------------------------------------
 Center     Atomic      Atomic             Coordinates (Angstroms)
 Number     Number       Type             X           Y           Z
 ---------------------------------------------------------------------
      1          6           0       -0.199123   -0.114165    1.121488
      2          1           0       -0.973555   -0.558204    1.738801
      3          6           0        0.609290   -0.587476    0.000000
      4          1           0        1.680492   -0.757803    0.000000
      5          6           0       -0.199123    0.822656   -0.000000
      6          1           0        0.195094    1.833107   -0.000000
      7          6           0       -0.199123   -0.114165   -1.121488
      8          1           0       -0.973555   -0.558204   -1.738801
 ---------------------------------------------------------------------

 SCF Done:  E(UB3LYP) =  -154.636693665     A.U. after   13 cycles

 The electronic state is 3-A".
 Alpha  occ. eigenvalues --  -10.22134 -10.22118 -10.20489 -10.20486  -0.94577
 Alpha  occ. eigenvalues --   -0.68431  -0.61523  -0.57491  -0.51680  -0.46105
 Alpha  occ. eigenvalues --   -0.37111  -0.35896  -0.34744  -0.20462  -0.19488
 Alpha virt. eigenvalues --    0.00015   0.00056   0.00874   0.02061   0.02621
 Alpha virt. eigenvalues --    0.07145   0.07491   0.07525   0.08084   0.08109
 Alpha virt. eigenvalues --    0.11738   0.12140   0.12472   0.12483   0.12758

  Beta  occ. eigenvalues --  -10.22025 -10.22011 -10.19092 -10.19091  -0.92704
  Beta  occ. eigenvalues --   -0.64710  -0.60822  -0.55452  -0.50119  -0.44466
  Beta  occ. eigenvalues --   -0.35682  -0.34800  -0.30395
  Beta virt. eigenvalues --   -0.07678  -0.05731   0.00092   0.00501   0.01105
  Beta virt. eigenvalues --    0.02594   0.03425   0.07580   0.08115   0.08139
  Beta virt. eigenvalues --    0.08294   0.08298   0.11934   0.12400   0.12463

 Mulliken charges and spin densities:
               1          2
     1  C   -0.287156   0.928083
     2  H    0.147816   0.033822
     3  C   -0.025904   0.025356
     4  H    0.165033   0.012779
     5  C   -0.025509   0.025286
     6  H    0.165060   0.012770
     7  C   -0.287156   0.928083
     8  H    0.147816   0.033822
 Sum of Mulliken charges =  -0.00000   2.00000

 Dipole moment (field-independent basis, Debye):
    X=              0.0073    Y=              0.0041    Z=             -0.0000  Tot=              0.0084
 Quadrupole moment (field-independent basis, Debye-Ang):
   XX=            -23.3416   YY=            -23.8999   ZZ=            -26.6574
   XY=              0.4773   XZ=             -0.0000   YZ=             -0.0000

  Exact polarizability:  40.675  -1.914  42.917  -0.000   0.000  53.571
 Approx polarizability:  57.598  -8.787  67.889  -0.000  -0.000  72.489

                      1                      2                      3
                     A'                     A'                     A"
 Frequencies --    476.8966               664.5106               676.7158
 Red. masses --      1.8827                 1.9290                 1.2449
 Frc consts  --      0.2523                 0.5019                 0.3359
 IR Inten    --      1.5790                 2.0498                25.8221

                      4                      5                      6
                     A'                     A'                     A'
 Frequencies --    782.4002               797.4974               824.6062
 Red. masses --      1.4867                 2.2751                 2.1781
 Frc consts  --      0.5362                 0.8525                 0.8726
 IR Inten    --      8.6525                 0.4762                56.0748

                      7                      8                      9
                     A"                     A"                     A'
 Frequencies --    831.5877               971.8992              1004.6853
 Red. masses --      9.3075                 1.1233                 1.2200
 Frc consts  --      3.7923                 0.6252                 0.7256
 IR Inten    --      0.0000                 0.0000                 7.5705

                     10                     11                     12
                     A'                     A"                     A"
 Frequencies --   1088.8087              1112.3924              1118.4441
 Red. masses --      2.0621                 1.1109                 1.3247
 Frc consts  --      1.4403                 0.8099                 0.9763
 IR Inten    --      6.1336                 0.0004                 0.5301

                     13                     14                     15
                     A'                     A"                     A"
 Frequencies --   1281.1753              1304.6922              3131.8367
 Red. masses --      6.2545                 3.4542                 1.0943
 Frc consts  --      6.0487                 3.4642                 6.3236
 IR Inten    --      0.0053                 5.8937                33.4871

                     16                     17                     18
                     A'                     A'                     A'
 Frequencies --   3139.2736              3158.5278              3165.4311
 Red. masses --      1.0944                 1.0876                 1.0951
 Frc consts  --      6.3548                 6.3925                 6.4650
 IR Inten    --      8.5730                 2.1241                 2.5991

 - Thermochemistry -
 -------------------
 Temperature   298.150 Kelvin.  Pressure   1.00000 Atm.
 Atom     1 has atomic number  6 and mass  12.00000

 Molecular mass:    52.03130 amu.
 Principal axes and moments of inertia in atomic units:
                           1         2         3
     Eigenvalues --    99.43965 156.33848 202.21639
           X            0.00000  -0.49734   0.86756
           Y            0.00000   0.86756   0.49734
           Z            1.00000   0.00000  -0.00000
 This molecule is an asymmetric top.
 Rotational symmetry number  1.
 Rotational temperatures (Kelvin)      0.87102     0.55401     0.42832
 Rotational constants (GHZ):          18.14911    11.54381     8.92480
 Zero-point vibrational energy     152711.6 (Joules/Mol)
                                   36.49894 (Kcal/Mol)
 Warning -- explicit consideration of   1 degrees of freedom as
           vibrations may cause significant error
 Vibrational temperatures:    686.15   956.08   973.64  1125.70  1147.42
          (Kelvin)           1186.42  1196.47  1398.34  1445.52  1566.55
                             1600.48  1609.19  1843.32  1877.16  4506.01
                             4516.71  4544.41  4554.34

 Zero-point correction=                           0.058165 (Hartree/Particle)
 Thermal correction to Energy=                    0.061967
 Thermal correction to Enthalpy=                  0.062911
 Thermal correction to Gibbs Free Energy=         0.031902
 Sum of electronic and zero-point Energies=           -154.578529
 Sum of electronic and thermal Energies=              -154.574727
 Sum of electronic and thermal Enthalpies=            -154.573783
 Sum of electronic and thermal Free Energies=         -154.604792

                     E (Thermal)             CV                S
                      KCal/Mol        Cal/Mol-Kelvin    Cal/Mol-Kelvin
 Total                   38.885             13.491             65.264
 Electronic               0.000              0.000              2.183
 Translational            0.889              2.981             37.771
 Rotational               0.889              2.981             22.668
 Vibrational             37.107              7.529              2.642
 Vibration     1          0.833              1.301              0.718

 Normal termination of Gaussian 09 at Sun Mar  4 21:19:23 2018.
