 Gaussian 09, Revision D.01,
 Gaussian 09:  ES64L-G09RevD.01 24-Apr-2013

 ---------------------------
 #p b3lyp/6-311++g(d,p) freq
 ---------------------------

 ---
 min
 ---
 Symbolic Z-matrix:
 Charge =  0 Multiplicity = 1

                         Standard orientation:
 ---------------------------------------------------------------------
 Center     Atomic      Atomic             Coordinates (Angstroms)
 Number     Number       Type             X           Y           Z
 ---------------------------------------------------------------------
      1          8           0       -2.339190    0.204667    0.000000
      2          6           0        0.000000    0.597247    0.000000
      3          6           0       -1.215135   -0.243215    0.000000
      4          6           0        1.199065    0.062579    0.000000
      5          6           0        2.370402   -0.499524    0.000000
      6          1           0       -0.142634    1.674382    0.000000
      7          1           0       -1.028458   -1.335701    0.000000
      8          1           0        2.879310   -0.739270    0.928611
      9          1           0        2.879310   -0.739270   -0.928611
 ---------------------------------------------------------------------

 SCF Done:  E(RB3LYP) =  -230.054426132     A.U. after   13 cycles

 The electronic state is 1-A'.
 Alpha  occ. eigenvalues --  -19.12920 -10.27272 -10.23079 -10.20929 -10.20764
 Alpha  occ. eigenvalues --   -1.05933  -0.83704  -0.75711  -0.61965  -0.55993
 Alpha  occ. eigenvalues --   -0.50547  -0.47928  -0.46817  -0.44001  -0.41154
 Alpha  occ. eigenvalues --   -0.31424  -0.29969  -0.27032
 Alpha virt. eigenvalues --   -0.07382  -0.02881  -0.01231   0.01573   0.01714
 Alpha virt. eigenvalues --    0.01749   0.02810   0.05231   0.06403   0.07241
 Alpha virt. eigenvalues --    0.07252   0.10214   0.10508   0.11041   0.12105

 Mulliken charges:
               1
     1  O   -0.253920
     2  C   -0.334670
     3  C   -0.145652
     4  C    0.593856
     5  C   -0.472568
     6  H    0.207597
     7  H    0.107252
     8  H    0.149053
     9  H    0.149053
 Sum of Mulliken charges =  -0.00000

 Dipole moment (field-independent basis, Debye):
    X=              3.7901    Y=             -0.8037    Z=             -0.0000  Tot=              3.8743
 Quadrupole moment (field-independent basis, Debye-Ang):
   XX=            -34.2602   YY=            -28.5117   ZZ=            -28.9935
   XY=             -0.2614   XZ=             -0.0000   YZ=              0.0000

  Exact polarizability:  90.801 -13.870  43.735  -0.000  -0.000  30.956
 Approx polarizability: 143.046 -29.320  62.083   0.000   0.000  42.087

                      1                      2                      3
                     A"                     A'                     A"
 Frequencies --    129.3148               166.1412               387.1945
 Red. masses --      3.4172                 4.3147                 2.3089
 Frc consts  --      0.0337                 0.0702                 0.2039
 IR Inten    --      5.3702                 0.8199                 9.9216

                      4                      5                      6
                     A'                     A"                     A'
 Frequencies --    475.9606               541.0925               558.7009
 Red. masses --      4.5808                 1.2281                 7.4981
 Frc consts  --      0.6114                 0.2119                 1.3790
 IR Inten    --     37.3274                 5.1743                 8.0998

                      7                      8                      9
                     A'                     A"                     A"
 Frequencies --    881.4365               907.8682               996.6327
 Red. masses --      1.3130                 1.1333                 1.5832
 Frc consts  --      0.6010                 0.5503                 0.9265
 IR Inten    --     58.6734                27.4881                 0.0349

                     10                     11                     12
                     A"                     A'                     A'
 Frequencies --   1018.2232              1072.3137              1122.5122
 Red. masses --      1.7415                 3.7245                 1.8637
 Frc consts  --      1.0638                 2.5232                 1.3836
 IR Inten    --      0.0684                43.4654                70.2407

                     13                     14                     15
                     A'                     A'                     A'
 Frequencies --   1299.7567              1410.4799              1459.1358
 Red. masses --      1.5354                 1.1621                 1.5408
 Frc consts  --      1.5282                 1.3622                 1.9329
 IR Inten    --      2.5161                 0.5641                 2.6064

                     16                     17                     18
                     A'                     A'                     A'
 Frequencies --   1759.6878              2023.7208              2913.4153
 Red. masses --      9.7179                 9.9473                 1.0849
 Frc consts  --     17.7293                24.0025                 5.4254
 IR Inten    --    417.4727               143.0515                73.0441

                     19                     20                     21
                     A'                     A'                     A"
 Frequencies --   3122.2157              3154.4812              3197.7307
 Red. masses --      1.0591                 1.0897                 1.1145
 Frc consts  --      6.0827                 6.3887                 6.7142
 IR Inten    --      0.8605                 0.0390                 0.2206

 - Thermochemistry -
 -------------------
 Temperature   298.150 Kelvin.  Pressure   1.00000 Atm.
 Atom     1 has atomic number  8 and mass  15.99491

 Molecular mass:    68.02621 amu.
 Principal axes and moments of inertia in atomic units:
                           1         2         3
     Eigenvalues --    49.97560 754.57428 792.13591
           X            0.99453   0.10442   0.00000
           Y           -0.10442   0.99453   0.00000
           Z            0.00000  -0.00000   1.00000
 This molecule is an asymmetric top.
 Rotational symmetry number  1.
 Rotational temperatures (Kelvin)      1.73312     0.11479     0.10934
 Rotational constants (GHZ):          36.11245     2.39173     2.27832
 Zero-point vibrational energy     171054.1 (Joules/Mol)
                                   40.88291 (Kcal/Mol)
 Warning -- explicit consideration of   6 degrees of freedom as
           vibrations may cause significant error
 Vibrational temperatures:    186.05   239.04   557.09   684.80   778.51
          (Kelvin)            803.85  1268.19  1306.22  1433.93  1464.99
                             1542.82  1615.04  1870.06  2029.36  2099.37
                             2531.80  2911.68  4191.75  4492.17  4538.59
                             4600.82

 Zero-point correction=                           0.065151 (Hartree/Particle)
 Thermal correction to Energy=                    0.070482
 Thermal correction to Enthalpy=                  0.071427
 Thermal correction to Gibbs Free Energy=         0.037032
 Sum of electronic and zero-point Energies=           -229.989275
 Sum of electronic and thermal Energies=              -229.983944
 Sum of electronic and thermal Enthalpies=            -229.982999
 Sum of electronic and thermal Free Energies=         -230.017394

                     E (Thermal)             CV                S
                      KCal/Mol        Cal/Mol-Kelvin    Cal/Mol-Kelvin
 Total                   44.228             17.548             72.389
 Electronic               0.000              0.000              0.000
 Translational            0.889              2.981             38.570
 Rotational               0.889              2.981             24.905
 Vibrational             42.451             11.586              8.914
 Vibration     1          0.612              1.924              2.956
 Vibration     2          0.624              1.884              2.479
 Vibration     3          0.756              1.498              1.011
 Vibration     4          0.833              1.303              0.721
 Vibration     5          0.896              1.159              0.563
 Vibration     6          0.914              1.121              0.526

 Optimization completed.
    -- Stationary point found.
 Normal termination of Gaussian 09 at Sun Mar  4 21:21:32 2018.
