 Gaussian 09, Revision D.01,
 Gaussian 09:  ES64L-G09RevD.01 24-Apr-2013

 ---------------------------
 #p b3lyp/6-311++g(d,p) freq
 ---------------------------

 ---
 min
 ---
 Symbolic Z-matrix:
 Charge =  1 Multiplicity = 4

                         Standard orientation:
 ---------------------------------------------------------------------
 Center     Atomic      Atomic             Coordinates (Angstroms)
 Number     Number       Type             X           Y           Z
 ---------------------------------------------------------------------
      1          6           0       -0.000000   -0.000000   -1.087475
      2          1           0       -0.000000   -0.000000   -2.166104
      3          6           0       -0.000000    0.980001    0.000000
      4          1           0        0.723697    1.816098    0.000000
      5          6           0       -0.000000   -0.980001    0.000000
      6          6           0       -0.000000   -0.000000    1.087475
      7          1           0       -0.723697   -1.816098    0.000000
      8          1           0       -0.000000   -0.000000    2.166104
 ---------------------------------------------------------------------

 SCF Done:  E(UB3LYP) =  -154.315374076     A.U. after   12 cycles

 The electronic state is 4-AU.
 Alpha  occ. eigenvalues --  -10.49118 -10.49116 -10.47793 -10.47792  -1.18021
 Alpha  occ. eigenvalues --   -0.93255  -0.92277  -0.78453  -0.77225  -0.69127
 Alpha  occ. eigenvalues --   -0.67623  -0.66133  -0.57322  -0.49116  -0.46754
 Alpha virt. eigenvalues --   -0.26293  -0.15424  -0.15225  -0.13754  -0.12322
 Alpha virt. eigenvalues --   -0.11739  -0.09329  -0.08194  -0.06922  -0.06888
 Alpha virt. eigenvalues --   -0.06273  -0.05487  -0.02756  -0.01955  -0.01033

  Beta  occ. eigenvalues --  -10.47934 -10.47930 -10.46610 -10.46610  -1.13866
  Beta  occ. eigenvalues --   -0.89380  -0.87903  -0.76744  -0.73360  -0.64933
  Beta  occ. eigenvalues --   -0.64872  -0.63273
  Beta virt. eigenvalues --   -0.44452  -0.34549  -0.32710  -0.17107  -0.14997
  Beta virt. eigenvalues --   -0.14320  -0.13125  -0.11384  -0.10979  -0.08696
  Beta virt. eigenvalues --   -0.08074  -0.06143  -0.05649  -0.05278  -0.04589

 Mulliken charges and spin densities:
               1          2
     1  C    0.200945   0.926667
     2  H    0.294725  -0.022722
     3  C   -0.241826   0.520272
     4  H    0.246157   0.075783
     5  C   -0.241826   0.520272
     6  C    0.200945   0.926667
     7  H    0.246157   0.075783
     8  H    0.294725  -0.022722
 Sum of Mulliken charges =   1.00000   3.00000

 Dipole moment (field-independent basis, Debye):
    X=              0.0000    Y=             -0.0000    Z=              0.0000  Tot=              0.0000
 Quadrupole moment (field-independent basis, Debye-Ang):
   XX=            -21.9987   YY=            -15.0387   ZZ=            -12.8828
   XY=              3.1220   XZ=             -0.0000   YZ=             -0.0000

  Exact polarizability:  23.985   2.617  43.554  -0.000  -0.000  43.968
 Approx polarizability:  34.450   1.354  77.348  -0.000   0.000  70.423

                      1                      2                      3
                     BG                     BU                     BU
 Frequencies --    368.1448               434.7703               490.4903
 Red. masses --      1.2840                 1.0893                 2.2642
 Frc consts  --      0.1025                 0.1213                 0.3209
 IR Inten    --      0.0000               129.0522                11.0088

                      4                      5                      6
                     BU                     AG                     BU
 Frequencies --    603.8039               698.7230               872.9675
 Red. masses --      1.5407                 2.8142                 1.9251
 Frc consts  --      0.3310                 0.8095                 0.8644
 IR Inten    --     42.4366                 0.0000                33.3493

                      7                      8                      9
                     AU                     AG                     BG
 Frequencies --    911.2722               918.4262               969.1795
 Red. masses --      1.1471                 1.7837                 1.1854
 Frc consts  --      0.5612                 0.8865                 0.6560
 IR Inten    --     73.2690                 0.0000                 0.0000

                     10                     11                     12
                     BG                     AU                     BG
 Frequencies --   1054.9973              1058.1515              1141.8002
 Red. masses --      4.4675                 4.7393                 1.3245
 Frc consts  --      2.9297                 3.1265                 1.0174
 IR Inten    --      0.0000                 1.5522                 0.0000

                     13                     14                     15
                     AG                     BU                     BU
 Frequencies --   1189.9741              1206.2982              2946.3669
 Red. masses --      5.9028                 1.8397                 1.0834
 Frc consts  --      4.9248                 1.5773                 5.5415
 IR Inten    --      0.0000                 5.7610               219.6772

                     16                     17                     18
                     AG                     AU                     AG
 Frequencies --   2955.3093              3271.8953              3281.1409
 Red. masses --      1.0785                 1.0934                 1.1072
 Frc consts  --      5.5500                 6.8964                 7.0234
 IR Inten    --      0.0000               146.6378                 0.0000

 - Thermochemistry -
 -------------------
 Temperature   298.150 Kelvin.  Pressure   1.00000 Atm.
 Atom     1 has atomic number  6 and mass  12.00000

 Molecular mass:    52.03130 amu.
 Principal axes and moments of inertia in atomic units:
                           1         2         3
     Eigenvalues --   109.82222 138.03098 242.04877
           X            0.00000   0.09133   0.99582
           Y            0.00000   0.99582  -0.09133
           Z            1.00000   0.00000   0.00000
 This molecule is an asymmetric top.
 Rotational symmetry number  2.
 Rotational temperatures (Kelvin)      0.78867     0.62750     0.35784
 Rotational constants (GHZ):          16.43330    13.07490     7.45611
 Zero-point vibrational energy     145787.2 (Joules/Mol)
                                   34.84397 (Kcal/Mol)
 Warning -- explicit consideration of   4 degrees of freedom as
           vibrations may cause significant error
 Vibrational temperatures:    529.68   625.54   705.71   868.74  1005.31
          (Kelvin)           1256.00  1311.12  1321.41  1394.43  1517.90
                             1522.44  1642.79  1712.11  1735.59  4239.16
                             4252.03  4707.52  4720.82

 Zero-point correction=                           0.055527 (Hartree/Particle)
 Thermal correction to Energy=                    0.059798
 Thermal correction to Enthalpy=                  0.060743
 Thermal correction to Gibbs Free Energy=         0.029316
 Sum of electronic and zero-point Energies=           -154.259847
 Sum of electronic and thermal Energies=              -154.255576
 Sum of electronic and thermal Enthalpies=            -154.254631
 Sum of electronic and thermal Free Energies=         -154.286058

                     E (Thermal)             CV                S
                      KCal/Mol        Cal/Mol-Kelvin    Cal/Mol-Kelvin
 Total                   37.524             15.228             66.143
 Electronic               0.000              0.000              2.755
 Translational            0.889              2.981             37.771
 Rotational               0.889              2.981             21.444
 Vibrational             35.747              9.267              4.173
 Vibration     1          0.741              1.538              1.088
 Vibration     2          0.795              1.394              0.843
 Vibration     3          0.846              1.271              0.682
 Vibration     4          0.962              1.024              0.443

 Optimization completed.
    -- Stationary point found.
 Normal termination of Gaussian 09 at Thu Jan 24 16:06:09 2019.
