 Gaussian 09, Revision D.01,
 Gaussian 09:  ES64L-G09RevD.01 24-Apr-2013

 ---------------------------
 #p b3lyp/6-311++g(d,p) freq
 ---------------------------

 ---
 min
 ---
 Symbolic Z-matrix:
 Charge =  0 Multiplicity = 1

                         Standard orientation:
 ---------------------------------------------------------------------
 Center     Atomic      Atomic             Coordinates (Angstroms)
 Number     Number       Type             X           Y           Z
 ---------------------------------------------------------------------
      1          6           0       -1.550062   -0.115850   -0.000018
      2          1           0       -2.049733   -1.080583   -0.000275
      3          1           0       -2.174888    0.773695    0.000807
      4          6           0       -0.221614    0.008897   -0.000559
      5          6           0        1.129756   -0.521182    0.000107
      6          1           0        1.578746   -0.928207   -0.907716
      7          1           0        1.576723   -0.929584    0.908303
      8          6           0        0.820112    0.988915    0.000284
 ---------------------------------------------------------------------

 SCF Done:  E(RB3LYP) =  -154.670631976     A.U. after   12 cycles

 The electronic state is 1-A.
 Alpha  occ. eigenvalues --  -10.22543 -10.22122 -10.20361 -10.19412  -0.89188
 Alpha  occ. eigenvalues --   -0.75575  -0.60105  -0.52765  -0.48036  -0.46604
 Alpha  occ. eigenvalues --   -0.40777  -0.31401  -0.30912  -0.23843
 Alpha virt. eigenvalues --   -0.13026  -0.00677   0.00961   0.01156   0.02175
 Alpha virt. eigenvalues --    0.04061   0.05535   0.05664   0.07756   0.07985
 Alpha virt. eigenvalues --    0.09692   0.11022   0.11522   0.12426   0.13042

 Mulliken charges:
               1
     1  C   -0.315301
     2  H    0.151175
     3  H    0.152780
     4  C    0.325283
     5  C   -0.389233
     6  H    0.162517
     7  H    0.162505
     8  C   -0.249725
 Sum of Mulliken charges =  -0.00000

 Dipole moment (field-independent basis, Debye):
    X=             -1.7319    Y=             -2.5214    Z=              0.0008  Tot=              3.0589
 Quadrupole moment (field-independent basis, Debye-Ang):
   XX=            -22.0399   YY=            -28.6414   ZZ=            -24.1695
   XY=             -3.2931   XZ=             -0.0029   YZ=             -0.0013

  Exact polarizability:  70.805   0.347  45.576   0.000   0.003  34.039
 Approx polarizability: 120.191   3.230  64.187   0.003   0.007  49.335

                      1                      2                      3
                      A                      A                      A
 Frequencies --    141.7445               331.3218               339.3084
 Red. masses --      2.0152                 1.2288                 2.7184
 Frc consts  --      0.0239                 0.0795                 0.1844
 IR Inten    --     12.9897                30.9732                 4.1970

                      4                      5                      6
                      A                      A                      A
 Frequencies --    676.1019               692.5023               935.0934
 Red. masses --      1.2646                 4.4773                 1.7710
 Frc consts  --      0.3406                 1.2650                 0.9124
 IR Inten    --      5.0347                41.4864                37.2096

                      7                      8                      9
                      A                      A                      A
 Frequencies --    976.3600               978.1074              1011.1095
 Red. masses --      1.2734                 1.7657                 1.3793
 Frc consts  --      0.7152                 0.9953                 0.8308
 IR Inten    --      0.3428                41.2545                27.9367

                     10                     11                     12
                      A                      A                      A
 Frequencies --   1052.7359              1194.5944              1384.7702
 Red. masses --      3.0569                 3.2224                 1.0853
 Frc consts  --      1.9961                 2.7094                 1.2262
 IR Inten    --     23.8334                74.0504                17.2521

                     13                     14                     15
                      A                      A                      A
 Frequencies --   1466.1377              1769.6166              3047.1962
 Red. masses --      1.1797                 8.7274                 1.0527
 Frc consts  --      1.4941                16.1026                 5.7593
 IR Inten    --     11.5955                95.5079                 0.7745

                     16                     17                     18
                      A                      A                      A
 Frequencies --   3104.9703              3109.8543              3198.1595
 Red. masses --      1.1085                 1.0568                 1.1173
 Frc consts  --      6.2963                 6.0217                 6.7331
 IR Inten    --      0.1671                15.7722                 4.6430

 - Thermochemistry -
 -------------------
 Temperature   298.150 Kelvin.  Pressure   1.00000 Atm.
 Atom     1 has atomic number  6 and mass  12.00000

 Molecular mass:    52.03130 amu.
 Principal axes and moments of inertia in atomic units:
                           1         2         3
     Eigenvalues --    71.90901 244.90695 304.94667
           X            0.99883  -0.04828  -0.00006
           Y            0.04828   0.99883  -0.00010
           Z            0.00006   0.00010   1.00000
 This molecule is an asymmetric top.
 Rotational symmetry number  1.
 Rotational temperatures (Kelvin)      1.20449     0.35366     0.28403
 Rotational constants (GHZ):          25.09757     7.36909     5.91822
 Zero-point vibrational energy     151983.7 (Joules/Mol)
                                   36.32497 (Kcal/Mol)
 Warning -- explicit consideration of   3 degrees of freedom as
           vibrations may cause significant error
 Vibrational temperatures:    203.94   476.70   488.19   972.76   996.36
          (Kelvin)           1345.39  1404.76  1407.28  1454.76  1514.65
                             1718.75  1992.37  2109.44  2546.08  4384.23
                             4467.35  4474.38  4601.43

 Zero-point correction=                           0.057888 (Hartree/Particle)
 Thermal correction to Energy=                    0.062597
 Thermal correction to Enthalpy=                  0.063541
 Thermal correction to Gibbs Free Energy=         0.031498
 Sum of electronic and zero-point Energies=           -154.612744
 Sum of electronic and thermal Energies=              -154.608035
 Sum of electronic and thermal Enthalpies=            -154.607091
 Sum of electronic and thermal Free Energies=         -154.639134

                     E (Thermal)             CV                S
                      KCal/Mol        Cal/Mol-Kelvin    Cal/Mol-Kelvin
 Total                   39.280             15.183             67.441
 Electronic               0.000              0.000              0.000
 Translational            0.889              2.981             37.771
 Rotational               0.889              2.981             23.200
 Vibrational             37.503              9.221              6.470
 Vibration     1          0.615              1.912              2.780
 Vibration     2          0.714              1.613              1.254
 Vibration     3          0.719              1.597              1.215

 1\1\ CITASK-GV1225\Freq\RB3LYP\6-311++G(d,p)\C4H4\EERD\04-Mar-2018\0\\
 #p b3lyp/6-311++g(d,p) freq\\min\\0,1\C,1.549626,-0.116146,-0.000015\H
 ,2.048735,-1.08117,0.000242\H,2.174969,0.773035,-0.00084\C,0.221251,0.
 009374,0.000526\C,-1.130428,-0.519919,-0.00014\H,-1.579654,-0.926682,0
 .907683\H,-1.577632,-0.92806,-0.908336\C,-0.819905,0.989998,-0.000317\
 \Version=ES64L-G09RevD.01\State=1-A\HF=-154.670632\RMSD=3.841e-09\RMSF
 =9.884e-05\ZeroPoint=0.0578875\Thermal=0.0625972\Dipole=0.6808051,-0.9
 924049,-0.000334\DipoleDeriv=0.4230677,-0.1160654,-0.0001998,-0.043142

 Normal termination of Gaussian 09 at Sun Mar  4 21:19:14 2018.
