 Gaussian 09, Revision D.01,
 Gaussian 09:  ES64L-G09RevD.01 24-Apr-2013

 ---------------------------
 #p b3lyp/6-311++g(d,p) freq
 ---------------------------

 ---
 min
 ---
 Symbolic Z-matrix:
 Charge =  0 Multiplicity = 1

                         Standard orientation:
 ---------------------------------------------------------------------
 Center     Atomic      Atomic             Coordinates (Angstroms)
 Number     Number       Type             X           Y           Z
 ---------------------------------------------------------------------
      1          6           0        0.523047    0.523047    0.523047
      2          1           0        1.140977    1.140977    1.140977
      3          6           0       -0.523047   -0.523047    0.523047
      4          1           0       -1.140977   -1.140977    1.140977
      5          6           0        0.523047   -0.523047   -0.523047
      6          1           0        1.140977   -1.140977   -1.140977
      7          6           0       -0.523047    0.523047   -0.523047
      8          1           0       -1.140977    1.140977   -1.140977
 ---------------------------------------------------------------------

 SCF Done:  E(RB3LYP) =  -154.681171724     A.U. after    8 cycles

 The electronic state is 1-A1.
 Alpha  occ. eigenvalues --  -10.19402 -10.19342 -10.19342 -10.19342  -0.99548
 Alpha  occ. eigenvalues --   -0.59654  -0.59654  -0.59654  -0.53603  -0.39814
 Alpha  occ. eigenvalues --   -0.39814  -0.39814  -0.23554  -0.23554
 Alpha virt. eigenvalues --    0.00266   0.01467   0.01467   0.01467   0.05963
 Alpha virt. eigenvalues --    0.05963   0.05963   0.09140   0.09140   0.10247
 Alpha virt. eigenvalues --    0.10247   0.10247   0.10352   0.11049   0.13044

 Mulliken charges:
               1
     1  C   -0.158843
     2  H    0.158843
     3  C   -0.158843
     4  H    0.158843
     5  C   -0.158843
     6  H    0.158843
     7  C   -0.158843
     8  H    0.158843
 Sum of Mulliken charges =   0.00000

 Dipole moment (field-independent basis, Debye):
    X=              0.0000    Y=              0.0000    Z=              0.0000  Tot=              0.0000
 Quadrupole moment (field-independent basis, Debye-Ang):
   XX=            -23.2214   YY=            -23.2214   ZZ=            -23.2214
   XY=              0.0000   XZ=              0.0000   YZ=              0.0000

  Exact polarizability:  38.601  -0.000  38.601  -0.000  -0.000  38.601
 Approx polarizability:  56.288  -0.000  56.288  -0.000   0.000  56.288

                      1                      2                      3
                      E                      E                     T2
 Frequencies --    565.8649               565.8649               774.5451
 Red. masses --      1.5877                 1.5877                 1.1032
 Frc consts  --      0.2995                 0.2995                 0.3899
 IR Inten    --      0.0000                 0.0000                71.6341

                      4                      5                      6
                     T2                     T2                      E
 Frequencies --    774.5451               774.5451               836.5070
 Red. masses --      1.1032                 1.1032                 2.2436
 Frc consts  --      0.3899                 0.3899                 0.9250
 IR Inten    --     71.6341                71.6341                 0.0000

                      7                      8                      9
                      E                     T1                     T1
 Frequencies --    836.5070               886.4672               886.4672
 Red. masses --      2.2436                 1.3648                 1.3648
 Frc consts  --      0.9250                 0.6319                 0.6319
 IR Inten    --      0.0000                 0.0000                 0.0000

                     10                     11                     12
                     T1                     T2                     T2
 Frequencies --    886.4672              1143.5387              1143.5387
 Red. masses --      1.3648                 5.6605                 5.6605
 Frc consts  --      0.6319                 4.3612                 4.3612
 IR Inten    --      0.0000                 4.5183                 4.5183

                     13                     14                     15
                     T2                     A1                     T2
 Frequencies --   1143.5387              1458.5618              3326.8816
 Red. masses --      5.6605                 5.1085                 1.0938
 Frc consts  --      4.3612                 6.4032                 7.1326
 IR Inten    --      4.5183                 0.0000                13.3008

                     16                     17                     18
                     T2                     T2                     A1
 Frequencies --   3326.8816              3326.8816              3365.2606
 Red. masses --      1.0938                 1.0938                 1.1366
 Frc consts  --      7.1326                 7.1326                 7.5839
 IR Inten    --     13.3008                13.3008                 0.0000

 - Thermochemistry -
 -------------------
 Temperature   298.150 Kelvin.  Pressure   1.00000 Atm.
 Atom     1 has atomic number  6 and mass  12.00000

 Molecular mass:    52.03130 amu.
 Principal axes and moments of inertia in atomic units:
                           1         2         3
     Eigenvalues --   131.27115 131.27115 131.27115
           X            0.19061   0.40456   0.89443
           Y            0.38122   0.80912  -0.44721
           Z            0.90462  -0.42622   0.00000
 This molecule is a spherical top.
 Rotational symmetry number 12.
 Rotational temperatures (Kelvin)      0.65981     0.65981     0.65981
 Rotational constants (GHZ):          13.74819    13.74819    13.74819
 Zero-point vibrational energy     155651.3 (Joules/Mol)
                                   37.20155 (Kcal/Mol)
 Warning -- explicit consideration of   2 degrees of freedom as
           vibrations may cause significant error
 Vibrational temperatures:    814.15   814.15  1114.40  1114.40  1114.40
          (Kelvin)           1203.55  1203.55  1275.43  1275.43  1275.43
                             1645.30  1645.30  1645.30  2098.54  4786.63
                             4786.63  4786.63  4841.85

 Zero-point correction=                           0.059284 (Hartree/Particle)
 Thermal correction to Energy=                    0.063111
 Thermal correction to Enthalpy=                  0.064055
 Thermal correction to Gibbs Free Energy=         0.036565
 Sum of electronic and zero-point Energies=           -154.621887
 Sum of electronic and thermal Energies=              -154.618061
 Sum of electronic and thermal Enthalpies=            -154.617117
 Sum of electronic and thermal Free Energies=         -154.644606

                     E (Thermal)             CV                S
                      KCal/Mol        Cal/Mol-Kelvin    Cal/Mol-Kelvin
 Total                   39.603             13.815             57.857
 Electronic               0.000              0.000              0.000
 Translational            0.889              2.981             37.771
 Rotational               0.889              2.981             17.403
 Vibrational             37.825              7.853              2.683
 Vibration     1          0.922              1.105              0.512
 Vibration     2          0.922              1.105              0.512

 Optimization completed.
    -- Stationary point found.

 1\1\ CITASK-GV2134\Freq\RB3LYP\6-311++G(d,p)\C4H4\EERD\04-Mar-2018\0\\
 #p b3lyp/6-311++g(d,p) freq\\min\\0,1\C,0.813330206,-0.3698915441,0.14
 98241139\H,1.7742022703,-0.8068266454,0.326806077\C,-0.6392643528,-0.5
 062475334,0.3947834126\H,-1.394490562,-1.1042738879,0.8611608074\C,-0.
 1541142555,0.0395014769,-0.8918464359\H,-0.3361831172,0.0862241536,-1.
 9454962558\C,-0.0199585206,0.8364495237,0.3473085244\H,-0.0435355142,1
 .8246883026,0.7575989863\\Version=ES64L-G09RevD.01\State=1-A1\HF=-154.
 6811717\RMSD=7.676e-09\RMSF=5.041e-06\ZeroPoint=0.0592844\Thermal=0.06

 Normal termination of Gaussian 09 at Sun Mar  4 21:17:57 2018.
