 Gaussian 09, Revision D.01,
 Gaussian 09:  ES64L-G09RevD.01 24-Apr-2013

 ---------------------------
 #p b3lyp/6-311++g(d,p) freq
 ---------------------------

 ---
 min
 ---
 Symbolic Z-matrix:
 Charge =  0 Multiplicity = 3

                         Standard orientation:
 ---------------------------------------------------------------------
 Center     Atomic      Atomic             Coordinates (Angstroms)
 Number     Number       Type             X           Y           Z
 ---------------------------------------------------------------------
      1          6           0        1.144635   -0.000010    0.132447
      2          6           0        0.000026    0.868477   -0.254657
      3          1           0        2.048268    0.000036   -0.474250
      4          1           0        1.380078   -0.000092    1.208950
      5          1           0       -1.380322   -0.000092    1.208670
      6          6           0        0.000026   -0.868438   -0.254789
      7          6           0       -1.144662   -0.000010    0.132215
      8          1           0       -2.048172    0.000036   -0.474664
 ---------------------------------------------------------------------

 SCF Done:  E(UB3LYP) =  -154.622390737     A.U. after   14 cycles

 The electronic state is 3-A.
 Alpha  occ. eigenvalues --  -10.22846 -10.22834 -10.22083 -10.22081  -0.93849
 Alpha  occ. eigenvalues --   -0.72430  -0.58716  -0.56069  -0.50887  -0.45208
 Alpha  occ. eigenvalues --   -0.41209  -0.38640  -0.30926  -0.24027  -0.22029
 Alpha virt. eigenvalues --   -0.02330  -0.00565   0.01025   0.01824   0.03232
 Alpha virt. eigenvalues --    0.04405   0.05891   0.07527   0.08477   0.09692
 Alpha virt. eigenvalues --    0.11117   0.11648   0.11712   0.12666   0.13342

  Beta  occ. eigenvalues --  -10.22042 -10.22042 -10.21445 -10.21437  -0.91510
  Beta  occ. eigenvalues --   -0.71640  -0.56995  -0.52193  -0.48340  -0.43624
  Beta  occ. eigenvalues --   -0.40434  -0.37370  -0.26110
  Beta virt. eigenvalues --   -0.11787  -0.08335  -0.00320   0.00767   0.01110
  Beta virt. eigenvalues --    0.01964   0.03850   0.04511   0.06145   0.07610
  Beta virt. eigenvalues --    0.08713   0.10980   0.11218   0.11773   0.12067

 Mulliken charges and spin densities:
               1          2
     1  C   -0.426836  -0.038729
     2  C    0.097453   0.879878
     3  H    0.181242   0.038999
     4  H    0.148141   0.119852
     5  H    0.148141   0.119852
     6  C    0.097453   0.879878
     7  C   -0.426837  -0.038729
     8  H    0.181242   0.038999
 Sum of Mulliken charges =  -0.00000   2.00000

 Dipole moment (field-independent basis, Debye):
    X=             -0.0001    Y=             -0.0001    Z=              1.3895  Tot=              1.3895
 Quadrupole moment (field-independent basis, Debye-Ang):
   XX=            -20.1838   YY=            -30.8734   ZZ=            -24.3212
   XY=             -0.0000   XZ=              0.0004   YZ=             -0.0005

  Exact polarizability:  50.221   0.000  52.932   0.001   0.001  39.374
 Approx polarizability:  68.776  -0.000 105.672   0.001   0.004  54.060

                      1                      2                      3
                      A                      A                      A
 Frequencies --    366.2264               632.1863               764.0249
 Red. masses --      1.8685                 3.8878                 7.3875
 Frc consts  --      0.1477                 0.9155                 2.5408
 IR Inten    --     10.8788               120.4762                 3.1866

                      4                      5                      6
                      A                      A                      A
 Frequencies --    825.5900               848.1669               892.2173
 Red. masses --      2.2352                 1.2774                 1.5939
 Frc consts  --      0.8976                 0.5414                 0.7476
 IR Inten    --      0.0000                 1.4647                 0.0000

                      7                      8                      9
                      A                      A                      A
 Frequencies --   1043.2088              1060.1950              1098.8410
 Red. masses --      1.8384                 1.2055                 1.2311
 Frc consts  --      1.1788                 0.7983                 0.8758
 IR Inten    --      0.8455                13.1551                 0.0000

                     10                     11                     12
                      A                      A                      A
 Frequencies --   1113.0666              1135.6780              1214.0291
 Red. masses --      4.9524                 1.2896                 6.9067
 Frc consts  --      3.6150                 0.9799                 5.9976
 IR Inten    --      1.9670                 3.3629                 0.2825

                     13                     14                     15
                      A                      A                      A
 Frequencies --   1421.1199              1442.2884              2932.6067
 Red. masses --      1.1037                 1.1323                 1.0667
 Frc consts  --      1.3134                 1.3878                 5.4051
 IR Inten    --     11.1434                 3.9272                 2.4559

                     16                     17                     18
                      A                      A                      A
 Frequencies --   2944.7864              3123.7627              3123.7709
 Red. masses --      1.0701                 1.0888                 1.0935
 Frc consts  --      5.4674                 6.2596                 6.2870
 IR Inten    --      8.0117                 4.6242                 0.2520

 - Thermochemistry -
 -------------------
 Temperature   298.150 Kelvin.  Pressure   1.00000 Atm.
 Atom     1 has atomic number  6 and mass  12.00000

 Molecular mass:    52.03130 amu.
 Principal axes and moments of inertia in atomic units:
                           1         2         3
     Eigenvalues --    83.69495 175.25642 220.84290
           X            1.00000  -0.00000  -0.00010
           Y           -0.00000   1.00000  -0.00008
           Z            0.00010   0.00008   1.00000
 This molecule is an asymmetric top.
 Rotational symmetry number  1.
 Rotational temperatures (Kelvin)      1.03488     0.49421     0.39220
 Rotational constants (GHZ):          21.56332    10.29772     8.17206
 Zero-point vibrational energy     155405.5 (Joules/Mol)
                                   37.14280 (Kcal/Mol)
 Warning -- explicit consideration of   1 degrees of freedom as
           vibrations may cause significant error
 Vibrational temperatures:    526.92   909.57  1099.26  1187.84  1220.32
          (Kelvin)           1283.70  1500.94  1525.38  1580.99  1601.45
                             1633.99  1746.71  2044.67  2075.13  4219.36
                             4236.89  4494.39  4494.40

 Zero-point correction=                           0.059191 (Hartree/Particle)
 Thermal correction to Energy=                    0.062952
 Thermal correction to Enthalpy=                  0.063896
 Thermal correction to Gibbs Free Energy=         0.032877
 Sum of electronic and zero-point Energies=           -154.563200
 Sum of electronic and thermal Energies=              -154.559439
 Sum of electronic and thermal Enthalpies=            -154.558495
 Sum of electronic and thermal Free Energies=         -154.589514

                     E (Thermal)             CV                S
                      KCal/Mol        Cal/Mol-Kelvin    Cal/Mol-Kelvin
 Total                   39.503             12.710             65.284
 Electronic               0.000              0.000              2.183
 Translational            0.889              2.981             37.771
 Rotational               0.889              2.981             22.698
 Vibrational             37.725              6.748              2.633
 Vibration     1          0.739              1.542              1.096

 Optimization completed.
    -- Stationary point found.
 Normal termination of Gaussian 09 at Sun Mar  4 21:21:02 2018.
