 Gaussian 09, Revision D.01,
 Gaussian 09:  ES64L-G09RevD.01 24-Apr-2013

 ---------------------------
 #p b3lyp/6-311++g(d,p) freq
 ---------------------------

 ---
 min
 ---
 Symbolic Z-matrix:
 Charge =  1 Multiplicity = 2

                         Standard orientation:
 ---------------------------------------------------------------------
 Center     Atomic      Atomic             Coordinates (Angstroms)
 Number     Number       Type             X           Y           Z
 ---------------------------------------------------------------------
      1          6           0        1.646868   -0.257078   -0.130314
      2          1           0        2.392804   -1.025970   -0.209719
      3          6           0        0.657491    0.513726   -0.003468
      4          1           0        0.604038    1.591577   -0.119265
      5          6           0       -0.816730   -0.120896    0.460676
      6          1           0       -1.151823    0.448068    1.342727
      7          1           0       -0.725691   -1.191229    0.736330
      8          6           0       -1.674183   -0.106160   -0.618572
 ---------------------------------------------------------------------

 SCF Done:  E(UB3LYP) =  -154.286427189     A.U. after   21 cycles

 The electronic state is 2-A.
 Alpha  occ. eigenvalues --  -10.53008 -10.47031 -10.45937 -10.45488  -1.08678
 Alpha  occ. eigenvalues --   -1.01423  -0.82926  -0.79358  -0.74391  -0.69451
 Alpha  occ. eigenvalues --   -0.67358  -0.56031  -0.54018  -0.47120
 Alpha virt. eigenvalues --   -0.35546  -0.35134  -0.22863  -0.15878  -0.14220
 Alpha virt. eigenvalues --   -0.12974  -0.12146  -0.10699  -0.09825  -0.07754
 Alpha virt. eigenvalues --   -0.06267  -0.06198  -0.05591  -0.03992  -0.02486

  Beta  occ. eigenvalues --  -10.52280 -10.46088 -10.45876 -10.45549  -1.07703
  Beta  occ. eigenvalues --   -0.99606  -0.81598  -0.78319  -0.73888  -0.68623
  Beta  occ. eigenvalues --   -0.66486  -0.55195  -0.53017
  Beta virt. eigenvalues --   -0.35934  -0.34310  -0.30110  -0.22132  -0.15654
  Beta virt. eigenvalues --   -0.14048  -0.12699  -0.11883  -0.10522  -0.09594
  Beta virt. eigenvalues --   -0.07479  -0.06120  -0.05833  -0.05430  -0.03767

 Mulliken charges and spin densities:
               1          2
     1  C   -0.045441   0.620403
     2  H    0.303588  -0.023080
     3  C   -0.001424  -0.077383
     4  H    0.289854   0.019354
     5  C   -0.327981   0.020470
     6  H    0.284412   0.000536
     7  H    0.275123  -0.002528
     8  C    0.221870   0.442229
 Sum of Mulliken charges =   1.00000   1.00000

 Dipole moment (field-independent basis, Debye):
    X=              1.0876    Y=             -0.5674    Z=              1.5530  Tot=              1.9790
 Quadrupole moment (field-independent basis, Debye-Ang):
   XX=            -12.4128   YY=            -16.3375   ZZ=            -22.3755
   XY=             -2.3475   XZ=             -3.8293   YZ=             -0.2240

  Exact polarizability:  86.706  -1.150  33.759   3.772   0.678  31.341
 Approx polarizability: 174.321 -11.541  52.821  13.440   1.138  47.060

                      1                      2                      3
                      A                      A                      A
 Frequencies --    111.3429               233.1363               306.4369
 Red. masses --      2.5823                 3.8429                 2.0022
 Frc consts  --      0.0189                 0.1231                 0.1108
 IR Inten    --      7.9631                17.2615                 0.4846

                      4                      5                      6
                      A                      A                      A
 Frequencies --    373.0223               521.2596               628.9952
 Red. masses --      1.7160                 6.5880                 1.6393
 Frc consts  --      0.1407                 1.0547                 0.3821
 IR Inten    --      4.0272                 6.6341                79.6822

                      7                      8                      9
                      A                      A                      A
 Frequencies --    733.4526               774.7976               910.1451
 Red. masses --      1.5591                 1.1493                 1.0909
 Frc consts  --      0.4942                 0.4065                 0.5324
 IR Inten    --     19.2892                90.1049                 7.8876

                     10                     11                     12
                      A                      A                      A
 Frequencies --    984.4681              1122.9881              1231.7972
 Red. masses --      1.3035                 1.0829                 1.2252
 Frc consts  --      0.7443                 0.8046                 1.0953
 IR Inten    --     52.0738                11.8522                17.0287

                     13                     14                     15
                      A                      A                      A
 Frequencies --   1362.2818              1743.8194              2943.7026
 Red. masses --      3.0832                 5.2610                 1.0623
 Frc consts  --      3.3712                 9.4259                 5.4238
 IR Inten    --     93.9940                26.6570                95.8406

                     16                     17                     18
                      A                      A                      A
 Frequencies --   3019.2337              3175.5034              3354.1268
 Red. masses --      1.0925                 1.0939                 1.1347
 Frc consts  --      5.8675                 6.4992                 7.5213
 IR Inten    --     81.6336                83.5574               251.8143

 - Thermochemistry -
 -------------------
 Temperature   298.150 Kelvin.  Pressure   1.00000 Atm.
 Atom     1 has atomic number  6 and mass  12.00000

 Molecular mass:    52.03130 amu.
 Principal axes and moments of inertia in atomic units:
                           1         2         3
     Eigenvalues --    68.27522 345.65814 347.25836
           X            0.99933  -0.03552   0.00850
           Y            0.01473   0.60487   0.79619
           Z            0.03343   0.79553  -0.60499
 This molecule is an asymmetric top.
 Rotational symmetry number  1.
 Rotational temperatures (Kelvin)      1.26860     0.25058     0.24942
 Rotational constants (GHZ):          26.43333     5.22117     5.19711
 Zero-point vibrational energy     140743.7 (Joules/Mol)
                                   33.63855 (Kcal/Mol)
 Warning -- explicit consideration of   5 degrees of freedom as
           vibrations may cause significant error
 Vibrational temperatures:    160.20   335.43   440.89   536.70   749.98
          (Kelvin)            904.98  1055.27  1114.76  1309.49  1416.43
                             1615.73  1772.28  1960.02  2508.96  4235.33
                             4344.00  4568.84  4825.83

 Zero-point correction=                           0.053606 (Hartree/Particle)
 Thermal correction to Energy=                    0.059090
 Thermal correction to Enthalpy=                  0.060034
 Thermal correction to Gibbs Free Energy=         0.025741
 Sum of electronic and zero-point Energies=           -154.232821
 Sum of electronic and thermal Energies=              -154.227337
 Sum of electronic and thermal Enthalpies=            -154.226393
 Sum of electronic and thermal Free Energies=         -154.260686

                     E (Thermal)             CV                S
                      KCal/Mol        Cal/Mol-Kelvin    Cal/Mol-Kelvin
 Total                   37.080             17.993             72.176
 Electronic               0.000              0.000              1.377
 Translational            0.889              2.981             37.771
 Rotational               0.889              2.981             23.620
 Vibrational             35.302             12.032              9.408
 Vibration     1          0.607              1.940              3.245
 Vibration     2          0.654              1.790              1.855
 Vibration     3          0.697              1.661              1.382
 Vibration     4          0.744              1.528              1.067
 Vibration     5          0.876              1.203              0.607

 Normal termination of Gaussian 09 at Thu Jan 24 16:02:49 2019.
