 Gaussian 09, Revision D.01,
 Gaussian 09:  ES64L-G09RevD.01 24-Apr-2013

 ---------------------------
 #p b3lyp/6-311++g(d,p) freq
 ---------------------------

 ---
 min
 ---
 Symbolic Z-matrix:
 Charge =  0 Multiplicity = 1

                         Standard orientation:
 ---------------------------------------------------------------------
 Center     Atomic      Atomic             Coordinates (Angstroms)
 Number     Number       Type             X           Y           Z
 ---------------------------------------------------------------------
      1          6           0        0.151763   -0.110674    1.231071
      2          1           0        1.005191   -0.731136    1.522917
      3          6           0        0.151763    0.736579   -0.000000
      4          1           0       -0.411325    0.298554   -2.060460
      5          6           0       -0.653243   -0.371036    0.000000
      6          1           0       -0.411325    0.298554    2.060460
      7          6           0        0.151763   -0.110674   -1.231071
      8          1           0        1.005191   -0.731136   -1.522917
 ---------------------------------------------------------------------

 SCF Done:  E(RB3LYP) =  -154.669121000     A.U. after   11 cycles

 The electronic state is 1-A'.
 Alpha  occ. eigenvalues --  -10.23190 -10.23188 -10.21284 -10.21212  -0.96466
 Alpha  occ. eigenvalues --   -0.73836  -0.59819  -0.49919  -0.48719  -0.48040
 Alpha  occ. eigenvalues --   -0.42052  -0.33614  -0.28567  -0.27098
 Alpha virt. eigenvalues --   -0.08894  -0.00319   0.01193   0.01915   0.03298
 Alpha virt. eigenvalues --    0.04290   0.05579   0.05672   0.07726   0.08563
 Alpha virt. eigenvalues --    0.11026   0.11093   0.11652   0.12415   0.12587

 Mulliken charges:
               1
     1  C   -0.366682
     2  H    0.109427
     3  C    0.089265
     4  H    0.167672
     5  C    0.089902
     6  H    0.167672
     7  C   -0.366682
     8  H    0.109427
 Sum of Mulliken charges =   0.00000

 Dipole moment (field-independent basis, Debye):
    X=              0.6904    Y=             -0.5076    Z=             -0.0000  Tot=              0.8569
 Quadrupole moment (field-independent basis, Debye-Ang):
   XX=            -25.7444   YY=            -27.3934   ZZ=            -20.3163
   XY=             -2.5369   XZ=             -0.0000   YZ=              0.0000

  Exact polarizability:  37.941   1.587  38.980  -0.000  -0.000  51.333
 Approx polarizability:  62.639  14.236  71.890   0.000   0.000  71.729

                      1                      2                      3
                     A'                     A'                     A"
 Frequencies --    367.5506               399.7683               709.7758
 Red. masses --      2.2730                 7.5553                 1.9356
 Frc consts  --      0.1809                 0.7114                 0.5745
 IR Inten    --      3.4574               144.5810                 0.0004

                      4                      5                      6
                     A'                     A'                     A"
 Frequencies --    927.1126               931.5518              1062.1134
 Red. masses --      5.4840                 1.2290                 1.2378
 Frc consts  --      2.7772                 0.6284                 0.8227
 IR Inten    --     15.6179                 1.7358                 0.7098

                      7                      8                      9
                     A'                     A"                     A'
 Frequencies --   1067.6713              1103.5139              1129.8428
 Red. masses --      1.1604                 1.2492                 1.4868
 Frc consts  --      0.7793                 0.8963                 1.1182
 IR Inten    --     15.6898                 0.0000                 0.9948

                     10                     11                     12
                     A"                     A"                     A'
 Frequencies --   1157.8466              1333.6826              1408.8789
 Red. masses --      1.8082                 5.6749                 3.2560
 Frc consts  --      1.4282                 5.9472                 3.8078
 IR Inten    --      0.0012                29.3921                 1.8012

                     13                     14                     15
                     A"                     A'                     A'
 Frequencies --   1511.4068              1555.4974              3028.0822
 Red. masses --      1.1379                 1.4237                 1.0650
 Frc consts  --      1.5315                 2.0295                 5.7538
 IR Inten    --      4.8358                 2.1424                70.7839

                     16                     17                     18
                     A"                     A"                     A'
 Frequencies --   3029.1238              3188.4566              3190.8637
 Red. masses --      1.0679                 1.1000                 1.1028
 Frc consts  --      5.7733                 6.5887                 6.6154
 IR Inten    --     63.6223                 3.2804                 4.3638

 - Thermochemistry -
 -------------------
 Temperature   298.150 Kelvin.  Pressure   1.00000 Atm.
 Atom     1 has atomic number  6 and mass  12.00000

 Molecular mass:    52.03130 amu.
 Principal axes and moments of inertia in atomic units:
                           1         2         3
     Eigenvalues --    64.28056 201.25240 217.31428
           X            0.00000   0.58695   0.80962
           Y            0.00000   0.80962  -0.58695
           Z            1.00000   0.00000   0.00000
 This molecule is an asymmetric top.
 Rotational symmetry number  1.
 Rotational temperatures (Kelvin)      1.34743     0.43037     0.39856
 Rotational constants (GHZ):          28.07600     8.96755     8.30475
 Zero-point vibrational energy     162110.4 (Joules/Mol)
                                   38.74531 (Kcal/Mol)
 Warning -- explicit consideration of   2 degrees of freedom as
           vibrations may cause significant error
 Vibrational temperatures:    528.82   575.18  1021.21  1333.91  1340.29
          (Kelvin)           1528.14  1536.14  1587.71  1625.59  1665.88
                             1918.87  2027.06  2174.57  2238.01  4356.73
                             4358.23  4587.47  4590.94

 Zero-point correction=                           0.061745 (Hartree/Particle)
 Thermal correction to Energy=                    0.065584
 Thermal correction to Enthalpy=                  0.066528
 Thermal correction to Gibbs Free Energy=         0.036454
 Sum of electronic and zero-point Energies=           -154.607376
 Sum of electronic and thermal Energies=              -154.603537
 Sum of electronic and thermal Enthalpies=            -154.602593
 Sum of electronic and thermal Free Energies=         -154.632667

                     E (Thermal)             CV                S
                      KCal/Mol        Cal/Mol-Kelvin    Cal/Mol-Kelvin
 Total                   41.154             12.463             63.296
 Electronic               0.000              0.000              0.000
 Translational            0.889              2.981             37.771
 Rotational               0.889              2.981             22.557
 Vibrational             39.377              6.501              2.968
 Vibration     1          0.740              1.539              1.090
 Vibration     2          0.766              1.471              0.964

 Optimization completed.
    -- Stationary point found.

 1\1\ CITASK-GV2129\Freq\RB3LYP\6-311++G(d,p)\C4H4\EERD\04-Mar-2018\0\\
 #p b3lyp/6-311++g(d,p) freq\\min\\0,1\C,-1.231066057,0.002100276,-0.18
 6554786\H,-1.522961253,0.012594527,-1.241626079\C,0.0000887592,-0.6880
 08,0.30475\H,2.060496057,-0.004423179,0.509348251\C,-0.0000337785,0.68
 1176,0.318196\H,-2.0604229431,-0.00479382,0.5095347495\C,1.2310749424,
 0.0023217243,-0.1866662139\H,1.522872747,0.0128684734,-1.2417639229\\V
 ersion=ES64L-G09RevD.01\State=1-A'\HF=-154.669121\RMSD=1.015e-09\RMSF=
 8.571e-05\ZeroPoint=0.0617446\Thermal=0.0655838\Dipole=-0.0000157,0.00

 Normal termination of Gaussian 09 at Sun Mar  4 21:18:42 2018.
