 Gaussian 09, Revision D.01,
 Gaussian 09:  ES64L-G09RevD.01 24-Apr-2013

 ---------------------------
 #p b3lyp/6-311++g(d,p) freq
 ---------------------------

 ---
 min
 ---
 Symbolic Z-matrix:
 Charge =  1 Multiplicity = 4

                         Standard orientation:
 ---------------------------------------------------------------------
 Center     Atomic      Atomic             Coordinates (Angstroms)
 Number     Number       Type             X           Y           Z
 ---------------------------------------------------------------------
      1          6           0        1.509592   -0.503947   -0.000271
      2          1           0        1.837590   -0.913886   -0.946116
      3          1           0        1.829713   -0.923635    0.943975
      4          6           0        0.503936    0.616855    0.001010
      5          1           0        0.624313    1.293142    0.881238
      6          1           0        0.627028    1.298326   -0.874530
      7          6           0       -0.864380    0.245803   -0.001385
      8          6           0       -1.968922   -0.484370   -0.000114
 ---------------------------------------------------------------------

 SCF Done:  E(UB3LYP) =  -154.246049114     A.U. after   17 cycles

 The electronic state is 4-A.
 Alpha  occ. eigenvalues --  -10.55719 -10.55383 -10.47353 -10.41610  -1.12573
 Alpha  occ. eigenvalues --   -1.03370  -0.89425  -0.76534  -0.73472  -0.68185
 Alpha  occ. eigenvalues --   -0.63296  -0.62252  -0.58470  -0.58423  -0.44820
 Alpha virt. eigenvalues --   -0.29714  -0.29259  -0.17940  -0.13570  -0.12887
 Alpha virt. eigenvalues --   -0.10849  -0.08779  -0.08226  -0.07731  -0.07243
 Alpha virt. eigenvalues --   -0.06234  -0.04974  -0.03068  -0.02680  -0.02533

  Beta  occ. eigenvalues --  -10.54353 -10.53593 -10.47365 -10.40081  -1.08466
  Beta  occ. eigenvalues --   -0.98883  -0.85624  -0.73758  -0.71114  -0.65745
  Beta  occ. eigenvalues --   -0.60712  -0.56266
  Beta virt. eigenvalues --   -0.46050  -0.45676  -0.29033  -0.24075  -0.22371
  Beta virt. eigenvalues --   -0.17402  -0.13135  -0.12354  -0.09954  -0.08264
  Beta virt. eigenvalues --   -0.07812  -0.07290  -0.06686  -0.04883  -0.04166

 Mulliken charges and spin densities:
               1          2
     1  C   -0.153491   1.093212
     2  H    0.208865  -0.041491
     3  H    0.208490  -0.041549
     4  C   -0.562990  -0.009906
     5  H    0.278319   0.086790
     6  H    0.277872   0.086217
     7  C    0.530658   0.845324
     8  C    0.212277   0.981404
 Sum of Mulliken charges =   1.00000   3.00000

 Dipole moment (field-independent basis, Debye):
    X=             -0.3758    Y=              1.6204    Z=             -0.0008  Tot=              1.6634
 Quadrupole moment (field-independent basis, Debye-Ang):
   XX=            -14.0464   YY=            -19.6163   ZZ=            -19.2062
   XY=             -1.2647   XZ=             -0.0008   YZ=              0.0012

  Exact polarizability:  80.122  11.146  37.666  -0.043   0.016  30.667
 Approx polarizability: 113.459  24.126  59.559  -0.040  -0.016  40.835

                      1                      2                      3
                      A                      A                      A
 Frequencies --     29.7868               202.5925               242.3190
 Red. masses --      1.5953                 4.6136                 1.4410
 Frc consts  --      0.0008                 0.1116                 0.0499
 IR Inten    --      3.7761                 5.1736                 0.1104

                      4                      5                      6
                      A                      A                      A
 Frequencies --    508.7035               561.3365               691.0340
 Red. masses --      2.1712                 2.3149                 1.4495
 Frc consts  --      0.3310                 0.4298                 0.4078
 IR Inten    --      3.0737                87.4077                19.3990

                      7                      8                      9
                      A                      A                      A
 Frequencies --    771.7130               968.2499               995.8709
 Red. masses --      5.5387                 1.2839                 4.2530
 Frc consts  --      1.9434                 0.7092                 2.4851
 IR Inten    --     75.9411                 1.8096                10.4957

                     10                     11                     12
                      A                      A                      A
 Frequencies --   1112.2308              1156.3226              1237.8612
 Red. masses --      1.1615                 1.4222                 1.1115
 Frc consts  --      0.8466                 1.1204                 1.0035
 IR Inten    --      1.5872               169.9682                17.4847

                     13                     14                     15
                      A                      A                      A
 Frequencies --   1363.6894              1456.7833              2828.1795
 Red. masses --      1.8211                 1.8732                 1.0550
 Frc consts  --      1.9953                 2.3422                 4.9717
 IR Inten    --    451.8567               286.7365               215.0763

                     16                     17                     18
                      A                      A                      A
 Frequencies --   2835.4867              3147.3876              3283.2762
 Red. masses --      1.0881                 1.0455                 1.1247
 Frc consts  --      5.1543                 6.1019                 7.1431
 IR Inten    --     32.6848                20.7284                16.8429

 - Thermochemistry -
 -------------------
 Temperature   298.150 Kelvin.  Pressure   1.00000 Atm.
 Atom     1 has atomic number  6 and mass  12.00000

 Molecular mass:    52.03130 amu.
 Principal axes and moments of inertia in atomic units:
                           1         2         3
     Eigenvalues --    69.80212 344.17141 390.02111
           X            0.99977  -0.02166  -0.00009
           Y            0.02166   0.99977  -0.00018
           Z            0.00009   0.00018   1.00000
 This molecule is an asymmetric top.
 Rotational symmetry number  1.
 Rotational temperatures (Kelvin)      1.24085     0.25166     0.22207
 Rotational constants (GHZ):          25.85511     5.24373     4.62729
 Zero-point vibrational energy     139920.2 (Joules/Mol)
                                   33.44172 (Kcal/Mol)
 Warning -- explicit consideration of   5 degrees of freedom as
           vibrations may cause significant error
 Vibrational temperatures:     42.86   291.49   348.64   731.91   807.64
          (Kelvin)            994.24  1110.32  1393.09  1432.83  1600.25
                             1663.69  1781.00  1962.04  2095.98  4069.11
                             4079.63  4528.38  4723.90

 Zero-point correction=                           0.053293 (Hartree/Particle)
 Thermal correction to Energy=                    0.058813
 Thermal correction to Enthalpy=                  0.059757
 Thermal correction to Gibbs Free Energy=         0.023597
 Sum of electronic and zero-point Energies=           -154.192756
 Sum of electronic and thermal Energies=              -154.187237
 Sum of electronic and thermal Enthalpies=            -154.186292
 Sum of electronic and thermal Free Energies=         -154.222452

                     E (Thermal)             CV                S
                      KCal/Mol        Cal/Mol-Kelvin    Cal/Mol-Kelvin
 Total                   36.905             17.137             76.105
 Electronic               0.000              0.000              2.755
 Translational            0.889              2.981             37.771
 Rotational               0.889              2.981             23.753
 Vibrational             35.128             11.175             11.826
 Vibration     1          0.594              1.984              5.844
 Vibration     2          0.639              1.836              2.109
 Vibration     3          0.659              1.775              1.786
 Vibration     4          0.864              1.231              0.637
 Vibration     5          0.917              1.115              0.521

 Normal termination of Gaussian 09 at Thu Jan 24 16:07:15 2019.
