 Gaussian 09, Revision D.01,
 Gaussian 09:  ES64L-G09RevD.01 24-Apr-2013

 ---------------------------
 #p b3lyp/6-311++g(d,p) freq
 ---------------------------

 ---
 min
 ---
 Symbolic Z-matrix:
 Charge =  0 Multiplicity = 1

                         Standard orientation:
 ---------------------------------------------------------------------
 Center     Atomic      Atomic             Coordinates (Angstroms)
 Number     Number       Type             X           Y           Z
 ---------------------------------------------------------------------
      1          6           0        0.578216   -0.555832    0.000000
      2          1           0       -1.203928   -1.700733   -0.000000
      3          1           0        1.664973   -0.590966    0.000000
      4          6           0        0.000000    0.743782    0.000000
      5          6           0       -0.454564    1.860361   -0.000000
      6          1           0       -0.864897    2.840457   -0.000000
      7          6           0       -0.120365   -1.697153   -0.000000
      8          1           0        0.384133   -2.655703    0.000000
 ---------------------------------------------------------------------

 SCF Done:  E(RB3LYP) =  -154.783381204     A.U. after   12 cycles

 The electronic state is 1-A'.
 Alpha  occ. eigenvalues --  -10.20653 -10.18854 -10.18356 -10.17506  -0.81521
 Alpha  occ. eigenvalues --   -0.74420  -0.62952  -0.53937  -0.50289  -0.45930
 Alpha  occ. eigenvalues --   -0.39208  -0.34778  -0.28889  -0.25719
 Alpha virt. eigenvalues --   -0.04749  -0.00645   0.00856   0.01667   0.03062
 Alpha virt. eigenvalues --    0.03637   0.05582   0.06874   0.07191   0.07628
 Alpha virt. eigenvalues --    0.10358   0.10825   0.11362   0.11946   0.12669

 Mulliken charges:
               1
     1  C    0.142200
     2  H    0.136064
     3  H    0.165005
     4  C    1.524887
     5  C   -1.828556
     6  H    0.120629
     7  C   -0.402451
     8  H    0.142222
 Sum of Mulliken charges =  -0.00000

 Dipole moment (field-independent basis, Debye):
    X=              0.0808    Y=             -0.4177    Z=              0.0000  Tot=              0.4254
 Quadrupole moment (field-independent basis, Debye-Ang):
   XX=            -22.8393   YY=            -19.0130   ZZ=            -27.1523
   XY=             -1.8241   XZ=             -0.0000   YZ=             -0.0000

  Exact polarizability:  37.519  -4.801  78.055   0.001   0.002  28.233
 Approx polarizability:  53.252  -8.517 128.842   0.000  -0.000  36.724

                      1                      2                      3
                     A'                     A"                     A'
 Frequencies --    226.1353               321.8326               558.9634
 Red. masses --      3.0766                 2.3532                 3.4213
 Frc consts  --      0.0927                 0.1436                 0.6298
 IR Inten    --      3.2696                10.8996                 5.2833

                      4                      5                      6
                     A"                     A'                     A"
 Frequencies --    653.1377               686.5327               703.1836
 Red. masses --      1.2948                 1.2592                 1.8672
 Frc consts  --      0.3254                 0.3497                 0.5440
 IR Inten    --     53.8727                51.4170                 1.7244

                      7                      8                      9
                     A'                     A"                     A"
 Frequencies --    891.8026               956.3718              1007.0770
 Red. masses --      2.5935                 1.3413                 1.1116
 Frc consts  --      1.2153                 0.7228                 0.6642
 IR Inten    --      2.2373                47.9333                17.3139

                     10                     11                     12
                     A'                     A'                     A'
 Frequencies --   1110.9935              1320.1631              1442.9126
 Red. masses --      1.6634                 1.2831                 1.2184
 Frc consts  --      1.2097                 1.3175                 1.4946
 IR Inten    --      4.6523                 0.4045                 2.9633

                     13                     14                     15
                     A'                     A'                     A'
 Frequencies --   1662.7928              2199.0837              3137.3973
 Red. masses --      4.0891                 6.1134                 1.0789
 Frc consts  --      6.6612                17.4187                 6.2568
 IR Inten    --     11.6656                 0.9009                 4.8538

                     16                     17                     18
                     A'                     A'                     A'
 Frequencies --   3147.3584              3236.6053              3476.5585
 Red. masses --      1.0682                 1.1174                 1.1581
 Frc consts  --      6.2341                 6.8965                 8.2472
 IR Inten    --      3.2901                 6.3241                75.2645

 - Thermochemistry -
 -------------------
 Temperature   298.150 Kelvin.  Pressure   1.00000 Atm.
 Atom     1 has atomic number  6 and mass  12.00000

 Molecular mass:    52.03130 amu.
 Principal axes and moments of inertia in atomic units:
                           1         2         3
     Eigenvalues --    34.87389 381.82026 416.69415
           X           -0.14551   0.98936   0.00000
           Y            0.98936   0.14551   0.00000
           Z           -0.00000   0.00000   1.00000
 This molecule is an asymmetric top.
 Rotational symmetry number  1.
 Rotational temperatures (Kelvin)      2.48363     0.22684     0.20786
 Rotational constants (GHZ):          51.75050     4.72668     4.33109
 Zero-point vibrational energy     159934.1 (Joules/Mol)
                                   38.22518 (Kcal/Mol)
 Warning -- explicit consideration of   3 degrees of freedom as
           vibrations may cause significant error
 Vibrational temperatures:    325.36   463.04   804.22   939.72   987.77
          (Kelvin)           1011.72  1283.10  1376.00  1448.96  1598.47
                             1899.42  2076.03  2392.38  3163.99  4514.01
                             4528.34  4656.75  5001.99

 Zero-point correction=                           0.060916 (Hartree/Particle)
 Thermal correction to Energy=                    0.065388
 Thermal correction to Enthalpy=                  0.066332
 Thermal correction to Gibbs Free Energy=         0.034886
 Sum of electronic and zero-point Energies=           -154.722466
 Sum of electronic and thermal Energies=              -154.717994
 Sum of electronic and thermal Enthalpies=            -154.717049
 Sum of electronic and thermal Free Energies=         -154.748495

                     E (Thermal)             CV                S
                      KCal/Mol        Cal/Mol-Kelvin    Cal/Mol-Kelvin
 Total                   41.031             14.971             66.184
 Electronic               0.000              0.000              0.000
 Translational            0.889              2.981             37.771
 Rotational               0.889              2.981             23.233
 Vibrational             39.254              9.010              5.180
 Vibration     1          0.650              1.801              1.909
 Vibration     2          0.707              1.632              1.301
 Vibration     3          0.915              1.120              0.526

 Optimization completed.
    -- Stationary point found.

 1\1\ CITASK-GV1229\Freq\RB3LYP\6-311++G(d,p)\C4H4\EERD\04-Mar-2018\0\\
 #p b3lyp/6-311++g(d,p) freq\\min\\0,1\C,0.635369,-0.489054,0.001003000
 1\H,1.500969,1.444226,-0.00002\H,0.83258,-1.558345001,0.0015549457\C,-
 0.736084,-0.111631,0.000834899\C,-1.908073,0.170894,0.0007120481\H,-2.
 938499,0.430089,0.0005984227\C,1.659424,0.372306001,0.0005341079\H,2.6
 82624,0.016782001,0.0006979692\\Version=ES64L-G09RevD.01\State=1-A'\HF
 =-154.7833812\RMSD=4.868e-09\RMSF=2.439e-05\ZeroPoint=0.0609157\Therma
 l=0.0653875\Dipole=0.1672232,-0.0068738,0.0000001\DipoleDeriv=0.310550

 Normal termination of Gaussian 09 at Sun Mar  4 21:18:48 2018.
