 Gaussian 09, Revision D.01,
 Gaussian 09:  ES64L-G09RevD.01 24-Apr-2013

 ---------------------------
 #p b3lyp/6-311++g(d,p) freq
 ---------------------------

 ---
 min
 ---
 Symbolic Z-matrix:
 Charge =  1 Multiplicity = 2

                         Standard orientation:
 ---------------------------------------------------------------------
 Center     Atomic      Atomic             Coordinates (Angstroms)
 Number     Number       Type             X           Y           Z
 ---------------------------------------------------------------------
      1          6           0        1.171419    0.117342    0.000045
      2          6           0       -1.829292   -0.708014    0.000081
      3          8           0        1.748811   -0.847089    0.000012
      4          6           0       -1.161868    0.399563   -0.000214
      5          6           0        0.115189    1.132585    0.000030
      6          1           0        0.259056    1.761154   -0.890291
      7          1           0       -1.361783   -1.697156   -0.000498
      8          1           0       -2.919198   -0.697140    0.000536
      9          1           0        0.258745    1.760992    0.890504
 ---------------------------------------------------------------------

 SCF Done:  E(UB3LYP) =  -229.700437194     A.U. after   16 cycles

 The electronic state is 2-A.
 Alpha  occ. eigenvalues --  -19.49396 -10.59472 -10.49208 -10.44144 -10.39021
 Alpha  occ. eigenvalues --   -1.43281  -1.09105  -0.97523  -0.83792  -0.79241
 Alpha  occ. eigenvalues --   -0.77052  -0.75913  -0.72574  -0.68668  -0.67926
 Alpha  occ. eigenvalues --   -0.64476  -0.50023  -0.45112
 Alpha virt. eigenvalues --   -0.29987  -0.29683  -0.20779  -0.18981  -0.12746
 Alpha virt. eigenvalues --   -0.12100  -0.11846  -0.10654  -0.09289  -0.08023
 Alpha virt. eigenvalues --   -0.06995  -0.05673  -0.05595  -0.05101  -0.02670

  Beta  occ. eigenvalues --  -19.49177 -10.59141 -10.49228 -10.42833 -10.39160
  Beta  occ. eigenvalues --   -1.42872  -1.08087  -0.96487  -0.82648  -0.78139
  Beta  occ. eigenvalues --   -0.76304  -0.75613  -0.71282  -0.68385  -0.66990
  Beta  occ. eigenvalues --   -0.63045  -0.49300
  Beta virt. eigenvalues --   -0.33491  -0.29119  -0.25482  -0.20027  -0.18902
  Beta virt. eigenvalues --   -0.12655  -0.12066  -0.11751  -0.10046  -0.09178
  Beta virt. eigenvalues --   -0.07835  -0.06951  -0.05589  -0.05430  -0.04867

 Mulliken charges and spin densities:
               1          2
     1  C    0.450936   0.157574
     2  C   -0.481253  -0.112538
     3  O    0.027764   0.069895
     4  C    0.534035   0.761325
     5  C   -0.484148  -0.019677
     6  H    0.271348   0.012849
     7  H    0.189152   0.074398
     8  H    0.220831   0.043295
     9  H    0.271335   0.012879
 Sum of Mulliken charges =   1.00000   1.00000

 Dipole moment (field-independent basis, Debye):
    X=              0.4086    Y=              1.8232    Z=              0.0005  Tot=              1.8685
 Quadrupole moment (field-independent basis, Debye-Ang):
   XX=            -17.3182   YY=            -19.5091   ZZ=            -26.3459
   XY=              4.0478   XZ=             -0.0017   YZ=              0.0011

  Exact polarizability:  73.943   4.806  47.334  -0.003  -0.002  27.029
 Approx polarizability: 112.526   0.065  80.658  -0.005  -0.008  37.711

                      1                      2                      3
                      A                      A                      A
 Frequencies --    124.2982               142.8193               256.4865
 Red. masses --      4.7896                 1.7661                 4.5080
 Frc consts  --      0.0436                 0.0212                 0.1747
 IR Inten    --      0.9912                11.2543                70.0486

                      4                      5                      6
                      A                      A                      A
 Frequencies --    346.5593               395.6872               515.4814
 Red. masses --      2.3226                 1.5436                 4.9658
 Frc consts  --      0.1644                 0.1424                 0.7774
 IR Inten    --      0.3384                17.0182                 3.2081

                      7                      8                      9
                      A                      A                      A
 Frequencies --    780.4374               887.5754               913.3677
 Red. masses --      6.2948                 4.1695                 1.6400
 Frc consts  --      2.2590                 1.9353                 0.8061
 IR Inten    --     16.6588                 5.4059                 2.4493

                     10                     11                     12
                      A                      A                      A
 Frequencies --    916.9981               934.4598              1227.2239
 Red. masses --      1.8272                 1.3298                 1.1081
 Frc consts  --      0.9053                 0.6842                 0.9833
 IR Inten    --     15.1346                38.0084                 0.6665

                     13                     14                     15
                      A                      A                      A
 Frequencies --   1258.7363              1379.5281              1388.4193
 Red. masses --      1.2174                 1.1009                 1.0678
 Frc consts  --      1.1365                 1.2344                 1.2127
 IR Inten    --      4.5372                17.4219                53.5031

                     16                     17                     18
                      A                      A                      A
 Frequencies --   1797.3851              2261.1148              3005.6540
 Red. masses --      8.7289                12.8290                 1.0568
 Frc consts  --     16.6146                38.6445                 5.6249
 IR Inten    --     52.1928               519.1189                45.2381

                     19                     20                     21
                      A                      A                      A
 Frequencies --   3043.8924              3050.8283              3139.3446
 Red. masses --      1.1034                 1.0650                 1.1047
 Frc consts  --      6.0236                 5.8401                 6.4145
 IR Inten    --     40.7589                26.9182                34.1203

 - Thermochemistry -
 -------------------
 Temperature   298.150 Kelvin.  Pressure   1.00000 Atm.
 Atom     1 has atomic number  6 and mass  12.00000

 Molecular mass:    68.02621 amu.
 Principal axes and moments of inertia in atomic units:
                           1         2         3
     Eigenvalues --   163.87354 479.18879 631.64905
           X            0.99829   0.05841  -0.00001
           Y           -0.05841   0.99829   0.00002
           Z            0.00001  -0.00001   1.00000
 This molecule is an asymmetric top.
 Rotational symmetry number  1.
 Rotational temperatures (Kelvin)      0.52854     0.18075     0.13712
 Rotational constants (GHZ):          11.01301     3.76624     2.85719
 Zero-point vibrational energy     166079.3 (Joules/Mol)
                                   39.69391 (Kcal/Mol)
 Warning -- explicit consideration of   6 degrees of freedom as
           vibrations may cause significant error
 Vibrational temperatures:    178.84   205.48   369.03   498.62   569.30
          (Kelvin)            741.66  1122.87  1277.02  1314.13  1319.35
                             1344.48  1765.70  1811.04  1984.83  1997.62
                             2586.03  3253.24  4324.46  4379.48  4389.46
                             4516.81

 Zero-point correction=                           0.063256 (Hartree/Particle)
 Thermal correction to Energy=                    0.069139
 Thermal correction to Enthalpy=                  0.070083
 Thermal correction to Gibbs Free Energy=         0.033741
 Sum of electronic and zero-point Energies=           -229.637181
 Sum of electronic and thermal Energies=              -229.631298
 Sum of electronic and thermal Enthalpies=            -229.630354
 Sum of electronic and thermal Free Energies=         -229.666696

                     E (Thermal)             CV                S
                      KCal/Mol        Cal/Mol-Kelvin    Cal/Mol-Kelvin
 Total                   43.385             19.056             76.488
 Electronic               0.000              0.000              1.377
 Translational            0.889              2.981             38.570
 Rotational               0.889              2.981             25.409
 Vibrational             41.608             13.094             11.131
 Vibration     1          0.610              1.929              3.032
 Vibration     2          0.616              1.910              2.766
 Vibration     3          0.666              1.752              1.686
 Vibration     4          0.725              1.582              1.182
 Vibration     5          0.762              1.479              0.979
 Vibration     6          0.871              1.216              0.621

 Optimization completed.
    -- Stationary point found.
 Normal termination of Gaussian 09 at Thu Jan 24 16:16:52 2019.
