 Gaussian 09, Revision D.01,
 Gaussian 09:  ES64L-G09RevD.01 24-Apr-2013

 ---------------------------
 #p b3lyp/6-311++g(d,p) freq
 ---------------------------

 ---
 min
 ---
 Symbolic Z-matrix:
 Charge =  0 Multiplicity = 3

                         Standard orientation:
 ---------------------------------------------------------------------
 Center     Atomic      Atomic             Coordinates (Angstroms)
 Number     Number       Type             X           Y           Z
 ---------------------------------------------------------------------
      1          6           0       -1.493271    0.529407    0.000000
      2          1           0       -1.935732    1.005563    0.881864
      3          1           0       -1.771117   -0.524449    0.000000
      4          1           0       -1.935732    1.005563   -0.881864
      5          6           0        0.000000    0.702947    0.000000
      6          1           0        0.403864    1.713970    0.000000
      7          6           0        0.901668   -0.306236    0.000000
      8          6           0        1.464722   -1.459559    0.000000
 ---------------------------------------------------------------------

 SCF Done:  E(UB3LYP) =  -154.651252382     A.U. after   19 cycles

 The electronic state is 3-A".
 Alpha  occ. eigenvalues --  -10.23092 -10.22283 -10.21959 -10.19539  -0.83902
 Alpha  occ. eigenvalues --   -0.76287  -0.67510  -0.52234  -0.45463  -0.44616
 Alpha  occ. eigenvalues --   -0.40567  -0.35620  -0.35165  -0.30635  -0.21686
 Alpha virt. eigenvalues --   -0.02089  -0.01013   0.01058   0.02626   0.03613
 Alpha virt. eigenvalues --    0.04735   0.06157   0.06765   0.07041   0.07999
 Alpha virt. eigenvalues --    0.08967   0.09833   0.11165   0.11873   0.12572

  Beta  occ. eigenvalues --  -10.22061 -10.21125 -10.21003 -10.19550  -0.81564
  Beta  occ. eigenvalues --   -0.73623  -0.65187  -0.50821  -0.44311  -0.43419
  Beta  occ. eigenvalues --   -0.39964  -0.31778  -0.28828
  Beta virt. eigenvalues --   -0.19147  -0.09554  -0.01183   0.01169   0.01352
  Beta virt. eigenvalues --    0.02673   0.04089   0.06123   0.06535   0.06869
  Beta virt. eigenvalues --    0.07555   0.08473   0.10141   0.11185   0.11367

 Mulliken charges and spin densities:
               1          2
     1  C   -0.691834  -0.033099
     2  H    0.151833   0.027115
     3  H    0.164097   0.002763
     4  H    0.151833   0.027115
     5  C   -0.347360   0.685748
     6  H    0.193632   0.000153
     7  C    0.662515   0.119604
     8  C   -0.284716   1.170600
 Sum of Mulliken charges =  -0.00000   2.00000

 Dipole moment (field-independent basis, Debye):
    X=             -1.4770    Y=              2.4285    Z=             -0.0000  Tot=              2.8424
 Quadrupole moment (field-independent basis, Debye-Ang):
   XX=            -23.8455   YY=            -26.9547   ZZ=            -26.1228
   XY=              1.8474   XZ=             -0.0000   YZ=              0.0000

  Exact polarizability:  60.431 -32.193  80.984  -0.000   0.000  33.801
 Approx polarizability:  72.236 -40.223 117.274   0.000   0.000  43.814

                      1                      2                      3
                     A"                     A'                     A"
 Frequencies --     88.4915               205.7290               430.9269
 Red. masses --      1.1268                 4.3459                 5.9292
 Frc consts  --      0.0052                 0.1084                 0.6487
 IR Inten    --      0.0052                 6.5270                 0.8766

                      4                      5                      6
                     A'                     A"                     A'
 Frequencies --    564.4017               571.6889               840.2365
 Red. masses --      4.7426                 1.2645                 3.5434
 Frc consts  --      0.8901                 0.2435                 1.4739
 IR Inten    --      3.0555                56.0535               181.3014

                      7                      8                      9
                     A"                     A'                     A'
 Frequencies --   1012.4273              1033.4276              1109.1637
 Red. masses --      1.3498                 1.5551                 2.9757
 Frc consts  --      0.8152                 0.9785                 2.1569
 IR Inten    --      0.4537               358.5327               163.6443

                     10                     11                     12
                     A'                     A'                     A'
 Frequencies --   1248.0024              1387.1088              1439.4352
 Red. masses --      1.6957                 1.4782                 1.7014
 Frc consts  --      1.5561                 1.6758                 2.0770
 IR Inten    --    664.5158                90.4220               186.2876

                     13                     14                     15
                     A"                     A'                     A'
 Frequencies --   1477.5354              1507.3684              3012.4022
 Red. masses --      1.0457                 1.3761                 1.0376
 Frc consts  --      1.3451                 1.8422                 5.5477
 IR Inten    --      8.2753               198.3632                25.8017

                     16                     17                     18
                     A"                     A'                     A'
 Frequencies --   3056.4043              3116.4540              3129.9096
 Red. masses --      1.1001                 1.0895                 1.0920
 Frc consts  --      6.0547                 6.2345                 6.3028
 IR Inten    --     11.8837                 6.5545                 4.8805

 - Thermochemistry -
 -------------------
 Temperature   298.150 Kelvin.  Pressure   1.00000 Atm.
 Atom     1 has atomic number  6 and mass  12.00000

 Molecular mass:    52.03130 amu.
 Principal axes and moments of inertia in atomic units:
                           1         2         3
     Eigenvalues --    53.61109 363.55317 405.96869
           X            0.82570   0.56411   0.00000
           Y           -0.56411   0.82570   0.00000
           Z           -0.00000   0.00000   1.00000
 This molecule is an asymmetric top.
 Rotational symmetry number  1.
 Rotational temperatures (Kelvin)      1.61560     0.23824     0.21335
 Rotational constants (GHZ):          33.66358     4.96417     4.44552
 Zero-point vibrational energy     150915.6 (Joules/Mol)
                                   36.06969 (Kcal/Mol)
 Warning -- explicit consideration of   5 degrees of freedom as
           vibrations may cause significant error
 Vibrational temperatures:    127.32   296.00   620.01   812.05   822.53
          (Kelvin)           1208.91  1456.66  1486.87  1595.84  1795.59
                             1995.74  2071.02  2125.84  2168.76  4334.17
                             4397.48  4483.88  4503.24

 Zero-point correction=                           0.057481 (Hartree/Particle)
 Thermal correction to Energy=                    0.062457
 Thermal correction to Enthalpy=                  0.063401
 Thermal correction to Gibbs Free Energy=         0.029341
 Sum of electronic and zero-point Energies=           -154.593772
 Sum of electronic and thermal Energies=              -154.588796
 Sum of electronic and thermal Enthalpies=            -154.587852
 Sum of electronic and thermal Free Energies=         -154.621912

                     E (Thermal)             CV                S
                      KCal/Mol        Cal/Mol-Kelvin    Cal/Mol-Kelvin
 Total                   39.192             15.452             71.685
 Electronic               0.000              0.000              2.183
 Translational            0.889              2.981             37.771
 Rotational               0.889              2.981             23.585
 Vibrational             37.415              9.491              8.146
 Vibration     1          0.601              1.957              3.693
 Vibration     2          0.640              1.832              2.081
 Vibration     3          0.792              1.403              0.856
 Vibration     4          0.920              1.108              0.515
 Vibration     5          0.928              1.092              0.501

 Optimization completed.
    -- Stationary point found.
 Normal termination of Gaussian 09 at Sun Mar  4 21:20:11 2018.
