 Gaussian 09, Revision D.01,
 Gaussian 09:  ES64L-G09RevD.01 24-Apr-2013

 ---------------------------
 #p b3lyp/6-311++g(d,p) freq
 ---------------------------

 ---
 min
 ---
 Symbolic Z-matrix:
 Charge =  0 Multiplicity = 1

                         Standard orientation:
 ---------------------------------------------------------------------
 Center     Atomic      Atomic             Coordinates (Angstroms)
 Number     Number       Type             X           Y           Z
 ---------------------------------------------------------------------
      1          6           0        0.000000    0.666782    0.788625
      2          1           0        0.000000    1.433282    1.551289
      3          6           0        0.000000    0.666782   -0.788625
      4          1           0        0.000000    1.433282   -1.551289
      5          6           0       -0.000000   -0.666782    0.788625
      6          6           0       -0.000000   -0.666782   -0.788625
      7          1           0       -0.000000   -1.433282   -1.551289
      8          1           0       -0.000000   -1.433282    1.551289
 ---------------------------------------------------------------------

 SCF Done:  E(RB3LYP) =  -154.721182633     A.U. after    9 cycles

 The electronic state is 1-AG.
 Alpha  occ. eigenvalues --  -10.18763 -10.18748 -10.18679 -10.18666  -0.87310
 Alpha  occ. eigenvalues --   -0.67444  -0.61059  -0.52181  -0.51689  -0.40261
 Alpha  occ. eigenvalues --   -0.39529  -0.36010  -0.32303  -0.19986
 Alpha virt. eigenvalues --   -0.06981   0.00099   0.01061   0.01440   0.03362
 Alpha virt. eigenvalues --    0.06072   0.06394   0.07500   0.07709   0.07758
 Alpha virt. eigenvalues --    0.09519   0.09984   0.11098   0.12316   0.12710

 Mulliken charges:
               1
     1  C   -0.149149
     2  H    0.149149
     3  C   -0.149149
     4  H    0.149149
     5  C   -0.149149
     6  C   -0.149149
     7  H    0.149149
     8  H    0.149149
 Sum of Mulliken charges =  -0.00000

 Dipole moment (field-independent basis, Debye):
    X=             -0.0000    Y=             -0.0000    Z=             -0.0000  Tot=              0.0000
 Quadrupole moment (field-independent basis, Debye-Ang):
   XX=            -27.3055   YY=            -21.0757   ZZ=            -22.5824
   XY=              0.0000   XZ=             -0.0000   YZ=             -0.0000

  Exact polarizability:  31.287   0.000  52.367   0.000  -0.000  42.705
 Approx polarizability:  43.108   0.000  93.820  -0.000   0.000  53.010

                      1                      2                      3
                     AU                     B3U                    B2G
 Frequencies --    535.6042               588.2285               601.4521
 Red. masses --      2.4589                 1.0848                 1.2999
 Frc consts  --      0.4156                 0.2212                 0.2770
 IR Inten    --      0.0000               152.6802                 0.0000

                      4                      5                      6
                     B2U                    B3G                    AU
 Frequencies --    703.0225               852.6362               886.6336
 Red. masses --      2.5894                 5.9447                 1.4950
 Frc consts  --      0.7540                 2.5463                 0.6924
 IR Inten    --      9.6163                 0.0000                 0.0000

                      7                      8                      9
                     B1G                    AG                     B1U
 Frequencies --    890.3510               952.6525              1055.3230
 Red. masses --      1.3548                 1.7615                 1.0919
 Frc consts  --      0.6328                 0.9419                 0.7164
 IR Inten    --      0.0000                 0.0000                 0.5584

                     10                     11                     12
                     AG                     B3G                    B2U
 Frequencies --   1107.6425              1182.9312              1255.9986
 Red. masses --      1.8324                 1.3563                 1.4483
 Frc consts  --      1.3245                 1.1182                 1.3462
 IR Inten    --      0.0000                 0.0000                39.7320

                     13                     14                     15
                     AG                     B1U                    B3G
 Frequencies --   1616.7548              1623.4225              3192.1286
 Red. masses --      6.9000                 5.4672                 1.0799
 Frc consts  --     10.6264                 8.4895                 6.4834
 IR Inten    --      0.0000                 8.2974                 0.0000

                     16                     17                     18
                     B2U                    B1U                    AG
 Frequencies --   3207.6017              3229.1293              3239.2233
 Red. masses --      1.0861                 1.1128                 1.1201
 Frc consts  --      6.5837                 6.8368                 6.9246
 IR Inten    --     10.7120                18.5982                 0.0000

 - Thermochemistry -
 -------------------
 Temperature   298.150 Kelvin.  Pressure   1.00000 Atm.
 Atom     1 has atomic number  6 and mass  12.00000

 Molecular mass:    52.03130 amu.
 Principal axes and moments of inertia in atomic units:
                           1         2         3
     Eigenvalues --   105.78268 141.24963 247.03231
           X            0.00000  -0.00000   1.00000
           Y            0.00000   1.00000  -0.00000
           Z            1.00000  -0.00000  -0.00000
 This molecule is an asymmetric top.
 Rotational symmetry number  4.
 Rotational temperatures (Kelvin)      0.81879     0.61320     0.35062
 Rotational constants (GHZ):          17.06084    12.77696     7.30569
 Zero-point vibrational energy     159825.5 (Joules/Mol)
                                   38.19921 (Kcal/Mol)
 Warning -- explicit consideration of   3 degrees of freedom as
           vibrations may cause significant error
 Vibrational temperatures:    770.61   846.33   865.35  1011.49  1226.75
          (Kelvin)           1275.67  1281.01  1370.65  1518.37  1593.65
                             1701.97  1807.10  2326.15  2335.74  4592.76
                             4615.02  4645.99  4660.51

 Zero-point correction=                           0.060874 (Hartree/Particle)
 Thermal correction to Energy=                    0.064656
 Thermal correction to Enthalpy=                  0.065600
 Thermal correction to Gibbs Free Energy=         0.036884
 Sum of electronic and zero-point Energies=           -154.660308
 Sum of electronic and thermal Energies=              -154.656527
 Sum of electronic and thermal Enthalpies=            -154.655583
 Sum of electronic and thermal Free Energies=         -154.684299

                     E (Thermal)             CV                S
                      KCal/Mol        Cal/Mol-Kelvin    Cal/Mol-Kelvin
 Total                   40.572             13.153             60.439
 Electronic               0.000              0.000              0.000
 Translational            0.889              2.981             37.771
 Rotational               0.889              2.981             20.073
 Vibrational             38.795              7.192              2.595
 Vibration     1          0.891              1.171              0.575
 Vibration     2          0.945              1.057              0.470
 Vibration     3          0.960              1.029              0.447

 Optimization completed.
    -- Stationary point found.

 1\1\ CITASK-GV1924\Freq\RB3LYP\6-311++G(d,p)\C4H4\EERD\04-Mar-2018\0\\
 #p b3lyp/6-311++g(d,p) freq\\min\\0,1\C,0.,0.788625,0.666765\H,0.,1.55
 1289,1.433265\C,0.,-0.788625,0.666765\H,0.,-1.551289,1.433265\C,0.,0.7
 88625,-0.666798\C,0.,-0.788625,-0.666798\H,0.,-1.551289,-1.433298\H,0.
 ,1.551289,-1.433298\\Version=ES64L-G09RevD.01\State=1-AG\HF=-154.72118
 26\RMSD=6.728e-09\RMSF=9.641e-05\ZeroPoint=0.0608743\Thermal=0.0646558
 \Dipole=0.,0.,0.\DipoleDeriv=-0.1907948,0.,0.,0.,0.0536296,0.0874645,0
 .,-0.0977723,-0.0403871,0.1907948,0.,0.,0.,-0.0536296,-0.1145071,0.,-0

 Normal termination of Gaussian 09 at Sun Mar  4 21:17:49 2018.
