 Gaussian 09, Revision D.01,
 Gaussian 09:  ES64L-G09RevD.01 24-Apr-2013

 ---------------------------
 #p b3lyp/6-311++g(d,p) freq
 ---------------------------

 ---
 min
 ---
 Symbolic Z-matrix:
 Charge =  1 Multiplicity = 2

                         Standard orientation:
 ---------------------------------------------------------------------
 Center     Atomic      Atomic             Coordinates (Angstroms)
 Number     Number       Type             X           Y           Z
 ---------------------------------------------------------------------
      1          6           0        0.088382   -0.196101    0.908561
      2          6           0        0.088382    1.025123   -0.000000
      3          6           0       -0.529253   -1.032886    0.000000
      4          6           0        0.088382   -0.196101   -0.908561
      5          1           0        0.996798    1.632748   -0.000000
      6          1           0       -0.825941    1.610999   -0.000000
      7          1           0        0.706894   -0.421975   -1.774698
      8          1           0        0.706894   -0.421975    1.774698
 ---------------------------------------------------------------------

 SCF Done:  E(UB3LYP) =  -154.387931753     A.U. after   14 cycles

 The electronic state is 2-A'.
 Alpha  occ. eigenvalues --  -10.50932 -10.50924 -10.50040 -10.45204  -1.20492
 Alpha  occ. eigenvalues --   -0.93829  -0.90464  -0.80026  -0.73453  -0.68841
 Alpha  occ. eigenvalues --   -0.67364  -0.62125  -0.58955  -0.53252
 Alpha virt. eigenvalues --   -0.31195  -0.28481  -0.15638  -0.14900  -0.14242
 Alpha virt. eigenvalues --   -0.12033  -0.10055  -0.08706  -0.07719  -0.07356
 Alpha virt. eigenvalues --   -0.06632  -0.05763  -0.05451  -0.02910  -0.02304

  Beta  occ. eigenvalues --  -10.50825 -10.50818 -10.48399 -10.45055  -1.19339
  Beta  occ. eigenvalues --   -0.92438  -0.90056  -0.79711  -0.71375  -0.67848
  Beta  occ. eigenvalues --   -0.66263  -0.61940  -0.57033
  Beta virt. eigenvalues --   -0.37689  -0.30984  -0.26382  -0.15449  -0.14738
  Beta virt. eigenvalues --   -0.14171  -0.11537  -0.09865  -0.08675  -0.07413
  Beta virt. eigenvalues --   -0.07284  -0.06545  -0.05406  -0.05317  -0.02559

 Mulliken charges and spin densities:
               1          2
     1  C    0.218353   0.061335
     2  C   -0.554412   0.054788
     3  C    0.070340   0.781549
     4  C    0.218353   0.061335
     5  H    0.237106   0.041714
     6  H    0.252268  -0.006862
     7  H    0.278996   0.003071
     8  H    0.278996   0.003071
 Sum of Mulliken charges =   1.00000   1.00000

 Dipole moment (field-independent basis, Debye):
    X=              1.1917    Y=              0.3644    Z=             -0.0000  Tot=              1.2462
 Quadrupole moment (field-independent basis, Debye-Ang):
   XX=            -19.7058   YY=            -17.7399   ZZ=            -14.6862
   XY=             -0.2386   XZ=              0.0000   YZ=             -0.0000

  Exact polarizability:  28.411   4.946  38.724   0.000   0.000  37.882
 Approx polarizability:  43.308  11.008  59.791   0.000   0.000  65.380

                      1                      2                      3
                     A'                     A'                     A"
 Frequencies --    368.6871               678.3908               747.2111
 Red. masses --      2.3543                 2.2685                 4.5379
 Frc consts  --      0.1886                 0.6151                 1.4928
 IR Inten    --      7.6771                 1.9478                 0.5772

                      4                      5                      6
                     A'                     A"                     A'
 Frequencies --    957.3602               959.1710               967.1311
 Red. masses --      1.5156                 1.1995                 1.8985
 Frc consts  --      0.8184                 0.6502                 1.0463
 IR Inten    --     12.1411                 0.9755                23.1722

                      7                      8                      9
                     A"                     A'                     A"
 Frequencies --   1027.1940              1064.4376              1135.3028
 Red. masses --      1.2359                 1.6808                 1.1811
 Frc consts  --      0.7683                 1.1220                 0.8969
 IR Inten    --      7.4332                 0.4939                 8.4255

                     10                     11                     12
                     A"                     A'                     A"
 Frequencies --   1155.7014              1211.4323              1332.3502
 Red. masses --      1.3714                 2.1492                 4.0542
 Frc consts  --      1.0792                 1.8583                 4.2403
 IR Inten    --      5.4743                24.3222                35.8257

                     13                     14                     15
                     A'                     A'                     A'
 Frequencies --   1429.3736              1503.5438              3069.3968
 Red. masses --      1.9895                 1.7784                 1.0604
 Frc consts  --      2.3949                 2.3687                 5.8863
 IR Inten    --      1.4263                 6.8719                19.3389

                     16                     17                     18
                     A'                     A"                     A'
 Frequencies --   3176.3028              3178.2890              3179.4903
 Red. masses --      1.1093                 1.0971                 1.0994
 Frc consts  --      6.5938                 6.5298                 6.5485
 IR Inten    --      8.5587                62.4869                26.7419

 - Thermochemistry -
 -------------------
 Temperature   298.150 Kelvin.  Pressure   1.00000 Atm.
 Atom     1 has atomic number  6 and mass  12.00000

 Molecular mass:    52.03130 amu.
 Principal axes and moments of inertia in atomic units:
                           1         2         3
     Eigenvalues --   109.73827 136.34018 213.43986
           X            0.24346   0.00000   0.96991
           Y            0.96991   0.00000  -0.24346
           Z           -0.00000   1.00000  -0.00000
 This molecule is an asymmetric top.
 Rotational symmetry number  1.
 Rotational temperatures (Kelvin)      0.78928     0.63528     0.40580
 Rotational constants (GHZ):          16.44587    13.23705     8.45550
 Zero-point vibrational energy     162337.8 (Joules/Mol)
                                   38.79967 (Kcal/Mol)
 Warning -- explicit consideration of   1 degrees of freedom as
           vibrations may cause significant error
 Vibrational temperatures:    530.46   976.05  1075.07  1377.43  1380.03
          (Kelvin)           1391.48  1477.90  1531.49  1633.45  1662.79
                             1742.98  1916.95  2056.55  2163.26  4416.17
                             4569.99  4572.84  4574.57

 Zero-point correction=                           0.061831 (Hartree/Particle)
 Thermal correction to Energy=                    0.065491
 Thermal correction to Enthalpy=                  0.066435
 Thermal correction to Gibbs Free Energy=         0.035940
 Sum of electronic and zero-point Energies=           -154.326101
 Sum of electronic and thermal Energies=              -154.322441
 Sum of electronic and thermal Enthalpies=            -154.321497
 Sum of electronic and thermal Free Energies=         -154.351992

                     E (Thermal)             CV                S
                      KCal/Mol        Cal/Mol-Kelvin    Cal/Mol-Kelvin
 Total                   41.096             12.024             64.183
 Electronic               0.000              0.000              1.377
 Translational            0.889              2.981             37.771
 Rotational               0.889              2.981             22.684
 Vibrational             39.319              6.062              2.351
 Vibration     1          0.741              1.537              1.085

 Optimization completed.
    -- Stationary point found.
 Normal termination of Gaussian 09 at Thu Jan 24 16:05:38 2019.
