 Gaussian 09, Revision D.01,
 Gaussian 09:  ES64L-G09RevD.01 24-Apr-2013

 ---------------------------
 #p b3lyp/6-311++g(d,p) freq
 ---------------------------

 ---
 min
 ---
 Symbolic Z-matrix:
 Charge =  1 Multiplicity = 2

                         Standard orientation:
 ---------------------------------------------------------------------
 Center     Atomic      Atomic             Coordinates (Angstroms)
 Number     Number       Type             X           Y           Z
 ---------------------------------------------------------------------
      1          6           0       -1.621685   -0.270876   -0.000214
      2          1           0       -2.209805    0.071441    0.868488
      3          1           0       -1.511081   -1.351799   -0.001166
      4          1           0       -2.211311    0.073308   -0.867021
      5          6           0       -0.357610    0.470878    0.000047
      6          1           0       -0.393558    1.566538   -0.000424
      7          6           0        0.870076   -0.082791    0.000566
      8          6           0        2.163512   -0.177126   -0.000379
 ---------------------------------------------------------------------

 SCF Done:  E(UB3LYP) =  -154.346409759     A.U. after   19 cycles

 The electronic state is 2-A.
 Alpha  occ. eigenvalues --  -10.53194 -10.52633 -10.48874 -10.42010  -1.10795
 Alpha  occ. eigenvalues --   -1.02406  -0.91752  -0.78410  -0.70041  -0.66818
 Alpha  occ. eigenvalues --   -0.63336  -0.59840  -0.58846  -0.56255
 Alpha virt. eigenvalues --   -0.39100  -0.27418  -0.18261  -0.15990  -0.13751
 Alpha virt. eigenvalues --   -0.12801  -0.11670  -0.09403  -0.08840  -0.08135
 Alpha virt. eigenvalues --   -0.06831  -0.05736  -0.04819  -0.03837  -0.03312

  Beta  occ. eigenvalues --  -10.52715 -10.52069 -10.48237 -10.41936  -1.09554
  Beta  occ. eigenvalues --   -1.00203  -0.90991  -0.77800  -0.69036  -0.66877
  Beta  occ. eigenvalues --   -0.63119  -0.57989  -0.55127
  Beta virt. eigenvalues --   -0.44240  -0.38438  -0.23478  -0.17151  -0.15564
  Beta virt. eigenvalues --   -0.13653  -0.12575  -0.11654  -0.09255  -0.08810
  Beta virt. eigenvalues --   -0.08087  -0.06426  -0.05637  -0.04679  -0.03467

 Mulliken charges and spin densities:
               1          2
     1  C   -0.605891   0.041642
     2  H    0.247237  -0.003551
     3  H    0.219347   0.001259
     4  H    0.247037  -0.003505
     5  C    0.025646  -0.059205
     6  H    0.306159   0.024194
     7  C    0.353880   0.406582
     8  C    0.206586   0.592583
 Sum of Mulliken charges =   1.00000   1.00000

 Dipole moment (field-independent basis, Debye):
    X=             -1.7284    Y=              0.5743    Z=              0.0008  Tot=              1.8213
 Quadrupole moment (field-independent basis, Debye-Ang):
   XX=            -11.8587   YY=            -18.3070   ZZ=            -21.3458
   XY=             -1.6589   XZ=             -0.0009   YZ=             -0.0006

  Exact polarizability:  87.691  -6.672  30.896  -0.029   0.003  26.737
 Approx polarizability: 151.664 -11.714  43.034  -0.036  -0.004  37.718

                      1                      2                      3
                      A                      A                      A
 Frequencies --    138.8628               207.4328               234.2306
 Red. masses --      1.2627                 4.4007                 5.1049
 Frc consts  --      0.0143                 0.1116                 0.1650
 IR Inten    --      2.9665                 3.6095                 0.0620

                      4                      5                      6
                      A                      A                      A
 Frequencies --    468.1989               780.4219               841.9274
 Red. masses --      5.2968                 1.1044                 2.1736
 Frc consts  --      0.6841                 0.3963                 0.9078
 IR Inten    --     32.9896                 5.2627                 8.3928

                      7                      8                      9
                      A                      A                      A
 Frequencies --   1020.4759              1079.4111              1154.3233
 Red. masses --      1.8465                 1.8943                 2.9558
 Frc consts  --      1.1329                 1.3004                 2.3205
 IR Inten    --      2.6340                54.3934                82.4459

                     10                     11                     12
                      A                      A                      A
 Frequencies --   1273.8794              1279.1384              1414.0331
 Red. masses --      1.7608                 1.1592                 1.0487
 Frc consts  --      1.6835                 1.1175                 1.2354
 IR Inten    --     50.5980                79.3695                22.5669

                     13                     14                     15
                      A                      A                      A
 Frequencies --   1441.6620              1526.0003              2968.2596
 Red. masses --      1.3823                 2.5303                 1.0431
 Frc consts  --      1.6927                 3.4716                 5.4148
 IR Inten    --      2.8257                36.8731               125.0489

                     16                     17                     18
                      A                      A                      A
 Frequencies --   2994.7509              3074.6234              3173.0920
 Red. masses --      1.0903                 1.0846                 1.1000
 Frc consts  --      5.7612                 6.0411                 6.5253
 IR Inten    --     25.6698                65.8643                15.4160

 - Thermochemistry -
 -------------------
 Temperature   298.150 Kelvin.  Pressure   1.00000 Atm.
 Atom     1 has atomic number  6 and mass  12.00000

 Molecular mass:    52.03130 amu.
 Principal axes and moments of inertia in atomic units:
                           1         2         3
     Eigenvalues --    35.10285 397.90724 422.16986
           X            0.99995   0.01038  -0.00000
           Y           -0.01038   0.99995  -0.00009
           Z           -0.00000   0.00009   1.00000
 This molecule is an asymmetric top.
 Rotational symmetry number  1.
 Rotational temperatures (Kelvin)      2.46743     0.21767     0.20516
 Rotational constants (GHZ):          51.41295     4.53558     4.27492
 Zero-point vibrational energy     149956.2 (Joules/Mol)
                                   35.84040 (Kcal/Mol)
 Warning -- explicit consideration of   4 degrees of freedom as
           vibrations may cause significant error
 Vibrational temperatures:    199.79   298.45   337.01   673.63  1122.85
          (Kelvin)           1211.34  1468.24  1553.03  1660.81  1832.83
                             1840.39  2034.48  2074.23  2195.57  4270.66
                             4308.77  4423.69  4565.37

 Zero-point correction=                           0.057115 (Hartree/Particle)
 Thermal correction to Energy=                    0.062193
 Thermal correction to Enthalpy=                  0.063137
 Thermal correction to Gibbs Free Energy=         0.029582
 Sum of electronic and zero-point Energies=           -154.289294
 Sum of electronic and thermal Energies=              -154.284217
 Sum of electronic and thermal Enthalpies=            -154.283273
 Sum of electronic and thermal Free Energies=         -154.316828

                     E (Thermal)             CV                S
                      KCal/Mol        Cal/Mol-Kelvin    Cal/Mol-Kelvin
 Total                   39.026             15.554             70.622
 Electronic               0.000              0.000              1.377
 Translational            0.889              2.981             37.771
 Rotational               0.889              2.981             23.293
 Vibrational             37.249              9.592              8.181
 Vibration     1          0.614              1.914              2.819
 Vibration     2          0.641              1.829              2.066
 Vibration     3          0.654              1.788              1.846
 Vibration     4          0.825              1.321              0.743

 Normal termination of Gaussian 09 at Thu Jan 24 16:04:06 2019.
