 Gaussian 09, Revision D.01,
 Gaussian 09:  ES64L-G09RevD.01 24-Apr-2013

 ---------------------------
 #p b3lyp/6-311++g(d,p) freq
 ---------------------------

 ---
 min
 ---
 Symbolic Z-matrix:
 Charge =  0 Multiplicity = 3

                         Standard orientation:
 ---------------------------------------------------------------------
 Center     Atomic      Atomic             Coordinates (Angstroms)
 Number     Number       Type             X           Y           Z
 ---------------------------------------------------------------------
      1          6           0        1.688415    0.106302    0.019702
      2          1           0        2.566097   -0.528940    0.006150
      3          1           0        1.849270    1.178546    0.057987
      4          6           0        0.423138   -0.415243   -0.016748
      5          1           0        0.286247   -1.492903   -0.035698
      6          6           0       -2.047863   -0.177303    0.038553
      7          6           0       -0.746955    0.381719   -0.042306
      8          1           0       -0.602027    1.470453   -0.023644
 ---------------------------------------------------------------------

 SCF Done:  E(UB3LYP) =  -154.643922891     A.U. after   20 cycles

 The electronic state is 3-A.
 Alpha  occ. eigenvalues --  -10.23577 -10.22680 -10.22021 -10.20249  -0.85291
 Alpha  occ. eigenvalues --   -0.76101  -0.62659  -0.57080  -0.48858  -0.47304
 Alpha  occ. eigenvalues --   -0.40950  -0.37756  -0.29078  -0.27645  -0.19767
 Alpha virt. eigenvalues --   -0.07772  -0.01370   0.00188   0.01036   0.01966
 Alpha virt. eigenvalues --    0.04187   0.04869   0.06088   0.07635   0.08810
 Alpha virt. eigenvalues --    0.09270   0.10921   0.11117   0.11429   0.12249

  Beta  occ. eigenvalues --  -10.22885 -10.22746 -10.21549 -10.18484  -0.83951
  Beta  occ. eigenvalues --   -0.72946  -0.60848  -0.55355  -0.47805  -0.45873
  Beta  occ. eigenvalues --   -0.40424  -0.34743  -0.25629
  Beta virt. eigenvalues --   -0.17568  -0.04491  -0.04206  -0.01228   0.00236
  Beta virt. eigenvalues --    0.02128   0.03029   0.04366   0.05534   0.06428
  Beta virt. eigenvalues --    0.07826   0.09039   0.09708   0.11079   0.11901

 Mulliken charges and spin densities:
               1          2
     1  C   -0.377087   0.584746
     2  H    0.160707  -0.026712
     3  H    0.147153  -0.024620
     4  C    0.198400  -0.166761
     5  H    0.178172   0.005772
     6  C   -0.386015   1.224691
     7  C   -0.050068   0.374204
     8  H    0.128738   0.028680
 Sum of Mulliken charges =  -0.00000   2.00000

 Dipole moment (field-independent basis, Debye):
    X=              4.8716    Y=              0.8641    Z=             -0.2805  Tot=              4.9556
 Quadrupole moment (field-independent basis, Debye-Ang):
   XX=            -32.4258   YY=            -23.3442   ZZ=            -26.2758
   XY=             -2.0941   XZ=              0.8915   YZ=              0.2118

  Exact polarizability: 107.968   6.047  46.291   8.004   1.454  35.179
 Approx polarizability: 140.400   7.502  60.951   2.227   0.066  44.389

                      1                      2                      3
                      A                      A                      A
 Frequencies --    137.4994               300.8544               484.5465
 Red. masses --      4.5539                 3.2095                 1.6311
 Frc consts  --      0.0507                 0.1712                 0.2256
 IR Inten    --     43.4323                12.1485               131.0576

                      4                      5                      6
                      A                      A                      A
 Frequencies --    514.3990               705.4678               946.9234
 Red. masses --      2.8381                 1.2095                 1.3792
 Frc consts  --      0.4425                 0.3547                 0.7286
 IR Inten    --     14.1298               125.7119                32.9111

                      7                      8                      9
                      A                      A                      A
 Frequencies --    950.3419              1019.9328              1120.0030
 Red. masses --      1.5742                 1.1975                 1.8679
 Frc consts  --      0.8377                 0.7339                 1.3805
 IR Inten    --     18.5066                19.8697                11.5626

                     10                     11                     12
                      A                      A                      A
 Frequencies --   1211.6755              1279.0143              1312.6104
 Red. masses --      1.8439                 2.3337                 1.8713
 Frc consts  --      1.5950                 2.2493                 1.8997
 IR Inten    --     27.1629                14.0769                25.2103

                     13                     14                     15
                      A                      A                      A
 Frequencies --   1455.4756              1535.8424              3001.7712
 Red. masses --      1.6400                 1.7381                 1.0831
 Frc consts  --      2.0470                 2.4155                 5.7499
 IR Inten    --     26.8873                21.4050                27.7400

                     16                     17                     18
                      A                      A                      A
 Frequencies --   3137.9821              3159.8543              3235.4812
 Red. masses --      1.0547                 1.0910                 1.1174
 Frc consts  --      6.1187                 6.4182                 6.8918
 IR Inten    --      3.4540                 2.3069                 3.1957

 - Thermochemistry -
 -------------------
 Temperature   298.150 Kelvin.  Pressure   1.00000 Atm.
 Atom     1 has atomic number  6 and mass  12.00000

 Molecular mass:    52.03130 amu.
 Principal axes and moments of inertia in atomic units:
                           1         2         3
     Eigenvalues --    37.42685 370.12145 407.17832
           X            0.99999  -0.00471   0.00119
           Y            0.00470   0.99996   0.00795
           Z           -0.00122  -0.00794   0.99997
 This molecule is an asymmetric top.
 Rotational symmetry number  1.
 Rotational temperatures (Kelvin)      2.31422     0.23401     0.21272
 Rotational constants (GHZ):          48.22050     4.87608     4.43231
 Zero-point vibrational energy     152581.7 (Joules/Mol)
                                   36.46791 (Kcal/Mol)
 Warning -- explicit consideration of   4 degrees of freedom as
           vibrations may cause significant error
 Vibrational temperatures:    197.83   432.86   697.15   740.10  1015.01
          (Kelvin)           1362.41  1367.33  1467.45  1611.43  1743.33
                             1840.21  1888.55  2094.10  2209.73  4318.87
                             4514.85  4546.32  4655.13

 Zero-point correction=                           0.058115 (Hartree/Particle)
 Thermal correction to Energy=                    0.062788
 Thermal correction to Enthalpy=                  0.063732
 Thermal correction to Gibbs Free Energy=         0.030679
 Sum of electronic and zero-point Energies=           -154.585808
 Sum of electronic and thermal Energies=              -154.581135
 Sum of electronic and thermal Enthalpies=            -154.580191
 Sum of electronic and thermal Free Energies=         -154.613244

                     E (Thermal)             CV                S
                      KCal/Mol        Cal/Mol-Kelvin    Cal/Mol-Kelvin
 Total                   39.400             15.016             69.567
 Electronic               0.000              0.000              2.183
 Translational            0.889              2.981             37.771
 Rotational               0.889              2.981             23.249
 Vibrational             37.623              9.054              6.364
 Vibration     1          0.614              1.916              2.838
 Vibration     2          0.693              1.672              1.412
 Vibration     3          0.841              1.284              0.698
 Vibration     4          0.869              1.218              0.623

 Optimization completed.
    -- Stationary point found.
 Normal termination of Gaussian 09 at Sun Mar  4 21:21:20 2018.
