 Gaussian 09, Revision D.01,
 Gaussian 09:  ES64L-G09RevD.01 24-Apr-2013

 ---------------------------
 #p b3lyp/6-311++g(d,p) freq
 ---------------------------

 ---
 min
 ---
 Symbolic Z-matrix:
 Charge =  1 Multiplicity = 2

                         Standard orientation:
 ---------------------------------------------------------------------
 Center     Atomic      Atomic             Coordinates (Angstroms)
 Number     Number       Type             X           Y           Z
 ---------------------------------------------------------------------
      1          8           0       -1.156797    1.036629    0.000000
      2          6           0        0.000000    0.424111    0.000000
      3          6           0        1.237558    1.104902    0.000000
      4          6           0       -0.037128   -0.973883    0.000000
      5          6           0       -0.041711   -2.184340    0.000000
      6          1           0        1.283521    2.189763    0.000000
      7          1           0        2.161070    0.539856    0.000000
      8          1           0       -1.091033    2.007101    0.000000
      9          1           0       -0.051493   -3.254490    0.000000
 ---------------------------------------------------------------------

 SCF Done:  E(UB3LYP) =  -229.706209943     A.U. after   17 cycles

 The electronic state is 2-A".
 Alpha  occ. eigenvalues --  -19.42729 -10.54012 -10.46167 -10.43101 -10.41168
 Alpha  occ. eigenvalues --   -1.34854  -1.05529  -0.98727  -0.91274  -0.81144
 Alpha  occ. eigenvalues --   -0.75609  -0.73873  -0.68559  -0.67082  -0.62517
 Alpha  occ. eigenvalues --   -0.55091  -0.52179  -0.50169
 Alpha virt. eigenvalues --   -0.29318  -0.20681  -0.17515  -0.13679  -0.12500
 Alpha virt. eigenvalues --   -0.11596  -0.10337  -0.09195  -0.08997  -0.08037
 Alpha virt. eigenvalues --   -0.06435  -0.05099  -0.04419  -0.03752  -0.03675

  Beta  occ. eigenvalues --  -19.42401 -10.53969 -10.45169 -10.42772 -10.41180
  Beta  occ. eigenvalues --   -1.34236  -1.04339  -0.97034  -0.90331  -0.80850
  Beta  occ. eigenvalues --   -0.74798  -0.73507  -0.66590  -0.66506  -0.61985
  Beta  occ. eigenvalues --   -0.52559  -0.51894
  Beta virt. eigenvalues --   -0.39801  -0.25501  -0.20482  -0.17315  -0.13563
  Beta virt. eigenvalues --   -0.11446  -0.11421  -0.10210  -0.08826  -0.08527
  Beta virt. eigenvalues --   -0.07927  -0.06085  -0.04971  -0.03720  -0.03554

 Mulliken charges and spin densities:
               1          2
     1  O   -0.021291   0.117754
     2  C    1.068015   0.066891
     3  C   -0.196431   0.735482
     4  C    1.320260  -0.054853
     5  C   -2.203713   0.211646
     6  H    0.208365  -0.035156
     7  H    0.251617  -0.030187
     8  H    0.343630  -0.003250
     9  H    0.229548  -0.008329
 Sum of Mulliken charges =   1.00000   1.00000

 Dipole moment (field-independent basis, Debye):
    X=              1.9903    Y=              1.2212    Z=              0.0000  Tot=              2.3351
 Quadrupole moment (field-independent basis, Debye-Ang):
   XX=            -22.9171   YY=             -2.2074   ZZ=            -27.9982
   XY=              0.6136   XZ=              0.0000   YZ=              0.0000

  Exact polarizability:  42.174   4.319  83.596  -0.000   0.001  23.141
 Approx polarizability:  60.285   3.447 144.358  -0.000  -0.000  31.453

                      1                      2                      3
                     A'                     A"                     A"
 Frequencies --    186.5111               224.8284               384.6636
 Red. masses --      3.7472                 2.8725                 1.1394
 Frc consts  --      0.0768                 0.0855                 0.0993
 IR Inten    --     10.8617                20.1888                 4.1020

                      4                      5                      6
                     A'                     A"                     A'
 Frequencies --    437.2663               573.3105               592.3337
 Red. masses --      2.7779                 1.1263                 5.9996
 Frc consts  --      0.3129                 0.2181                 1.2402
 IR Inten    --      2.9313               122.7811                10.7804

                      7                      8                      9
                     A"                     A'                     A"
 Frequencies --    623.8602               750.4330               798.0188
 Red. masses --      4.7725                 1.2807                 1.2988
 Frc consts  --      1.0944                 0.4249                 0.4873
 IR Inten    --      0.2147                36.1521                15.3594

                     10                     11                     12
                     A'                     A"                     A'
 Frequencies --    839.0601               902.2457              1004.8317
 Red. masses --      3.9829                 1.4520                 1.5847
 Frc consts  --      1.6521                 0.6964                 0.9427
 IR Inten    --      8.1166                41.3119                15.4340

                     13                     14                     15
                     A'                     A'                     A'
 Frequencies --   1165.5248              1415.9404              1470.4481
 Red. masses --      1.4462                 2.2192                 4.2109
 Frc consts  --      1.1575                 2.6214                 5.3645
 IR Inten    --    149.2117               152.7366                92.1241

                     16                     17                     18
                     A'                     A'                     A'
 Frequencies --   1498.1088              2189.4231              3143.7035
 Red. masses --      1.6596                 6.0543                 1.0551
 Frc consts  --      2.1945                17.0992                 6.1439
 IR Inten    --     65.7919               446.1686                30.5982

                     19                     20                     21
                     A'                     A'                     A'
 Frequencies --   3265.2514              3413.3176              3716.2708
 Red. masses --      1.1216                 1.1653                 1.0672
 Frc consts  --      7.0459                 7.9989                 8.6835
 IR Inten    --     11.7743                82.2718               302.1543

 - Thermochemistry -
 -------------------
 Temperature   298.150 Kelvin.  Pressure   1.00000 Atm.
 Atom     1 has atomic number  8 and mass  15.99491

 Molecular mass:    68.02621 amu.
 Principal axes and moments of inertia in atomic units:
                           1         2         3
     Eigenvalues --   168.93684 437.34367 606.28051
           X            0.00900   0.99996   0.00000
           Y            0.99996  -0.00900   0.00000
           Z            0.00000  -0.00000   1.00000
 This molecule is an asymmetric top.
 Rotational symmetry number  1.
 Rotational temperatures (Kelvin)      0.51270     0.19805     0.14286
 Rotational constants (GHZ):          10.68293     4.12660     2.97674
 Zero-point vibrational energy     171038.2 (Joules/Mol)
                                   40.87911 (Kcal/Mol)
 Warning -- explicit consideration of   6 degrees of freedom as
           vibrations may cause significant error
 Vibrational temperatures:    268.35   323.48   553.44   629.13   824.86
          (Kelvin)            852.23   897.59  1079.70  1148.17  1207.22
                             1298.13  1445.73  1676.93  2037.22  2115.64
                             2155.44  3150.09  4523.08  4697.96  4911.00
                             5346.88

 Zero-point correction=                           0.065145 (Hartree/Particle)
 Thermal correction to Energy=                    0.070536
 Thermal correction to Enthalpy=                  0.071480
 Thermal correction to Gibbs Free Energy=         0.036500
 Sum of electronic and zero-point Energies=           -229.641065
 Sum of electronic and thermal Energies=              -229.635674
 Sum of electronic and thermal Enthalpies=            -229.634730
 Sum of electronic and thermal Free Energies=         -229.669710

                     E (Thermal)             CV                S
                      KCal/Mol        Cal/Mol-Kelvin    Cal/Mol-Kelvin
 Total                   44.262             18.974             73.623
 Electronic               0.000              0.000              1.377
 Translational            0.889              2.981             38.570
 Rotational               0.889              2.981             25.308
 Vibrational             42.485             13.013              8.368
 Vibration     1          0.632              1.858              2.262
 Vibration     2          0.649              1.803              1.920
 Vibration     3          0.754              1.503              1.021
 Vibration     4          0.798              1.389              0.835
 Vibration     5          0.930              1.089              0.498
 Vibration     6          0.950              1.048              0.463

 Optimization completed.
    -- Stationary point found.
 Normal termination of Gaussian 09 at Thu Jan 24 16:21:09 2019.
