 Gaussian 09, Revision D.01,
 Gaussian 09:  ES64L-G09RevD.01 24-Apr-2013

 ---------------------------
 #p b3lyp/6-311++g(d,p) freq
 ---------------------------

 ---
 min
 ---
 Symbolic Z-matrix:
 Charge =  0 Multiplicity = 1

                         Standard orientation:
 ---------------------------------------------------------------------
 Center     Atomic      Atomic             Coordinates (Angstroms)
 Number     Number       Type             X           Y           Z
 ---------------------------------------------------------------------
      1          6           0        1.633224   -0.101607    0.001190
      2          1           0       -0.375044    1.436597    0.923021
      3          6           0       -0.397677    0.873881   -0.000083
      4          1           0       -0.378400    1.436626   -0.923289
      5          6           0        0.426895   -0.498955   -0.002787
      6          6           0       -1.031224   -0.482076    0.000936
      7          1           0       -1.519698   -0.810218   -0.911748
      8          1           0       -1.514171   -0.810464    0.916482
 ---------------------------------------------------------------------

 SCF Done:  E(RB3LYP) =  -154.693364240     A.U. after   12 cycles

 The electronic state is 1-A.
 Alpha  occ. eigenvalues --  -10.24819 -10.23988 -10.19752 -10.19148  -0.91199
 Alpha  occ. eigenvalues --   -0.72321  -0.65035  -0.54469  -0.52789  -0.41950
 Alpha  occ. eigenvalues --   -0.40851  -0.34332  -0.28127  -0.27672
 Alpha virt. eigenvalues --   -0.05018  -0.01538  -0.00423   0.01079   0.03407
 Alpha virt. eigenvalues --    0.03753   0.04912   0.05260   0.06079   0.07818
 Alpha virt. eigenvalues --    0.08386   0.09380   0.11097   0.11698   0.12621

 Mulliken charges:
               1
     1  C   -0.297142
     2  H    0.170947
     3  C   -0.263817
     4  H    0.170899
     5  C    0.244409
     6  C   -0.363241
     7  H    0.168927
     8  H    0.169017
 Sum of Mulliken charges =  -0.00000

 Dipole moment (field-independent basis, Debye):
    X=             -4.4129    Y=              0.4511    Z=              0.0025  Tot=              4.4359
 Quadrupole moment (field-independent basis, Debye-Ang):
   XX=            -30.9055   YY=            -23.1052   ZZ=            -23.8763
   XY=              0.1787   XZ=              0.0001   YZ=             -0.0044

  Exact polarizability:  57.375  -0.215  40.993   0.024   0.004  34.964
 Approx polarizability:  93.077  -2.074  62.822   0.092   0.025  48.725

                      1                      2                      3
                      A                      A                      A
 Frequencies --    115.4625               258.9299               739.2493
 Red. masses --      7.4066                 3.9284                 9.2972
 Frc consts  --      0.0582                 0.1552                 2.9935
 IR Inten    --      1.2233                 0.2873                60.4917

                      4                      5                      6
                      A                      A                      A
 Frequencies --    809.4105               819.1613               947.0662
 Red. masses --      1.0240                 5.5849                 1.0727
 Frc consts  --      0.3953                 2.2080                 0.5669
 IR Inten    --      0.7243                 1.3587                 0.8829

                      7                      8                      9
                      A                      A                      A
 Frequencies --   1036.2488              1056.1631              1112.0923
 Red. masses --      1.1335                 1.3316                 1.4305
 Frc consts  --      0.7172                 0.8751                 1.0423
 IR Inten    --      2.9586                 2.6722                 8.7380

                     10                     11                     12
                      A                      A                      A
 Frequencies --   1145.6465              1180.8552              1468.3373
 Red. masses --      2.8925                 1.2808                 1.0901
 Frc consts  --      2.2368                 1.0522                 1.3847
 IR Inten    --      2.6862                 0.0014                 2.8103

                     13                     14                     15
                      A                      A                      A
 Frequencies --   1494.7612              1940.8633              3104.2027
 Red. masses --      1.1932                11.2006                 1.0535
 Frc consts  --      1.5708                24.8588                 5.9810
 IR Inten    --      1.8795               145.6214                 8.8205

                     16                     17                     18
                      A                      A                      A
 Frequencies --   3147.5623              3182.5898              3253.3047
 Red. masses --      1.0504                 1.1176                 1.1226
 Frc consts  --      6.1313                 6.6697                 7.0002
 IR Inten    --      5.3933                 1.3124                 0.4034

 - Thermochemistry -
 -------------------
 Temperature   298.150 Kelvin.  Pressure   1.00000 Atm.
 Atom     1 has atomic number  6 and mass  12.00000

 Molecular mass:    52.03130 amu.
 Principal axes and moments of inertia in atomic units:
                           1         2         3
     Eigenvalues --    85.24487 203.40465 264.35064
           X            0.99926   0.03858   0.00001
           Y           -0.03858   0.99926  -0.00025
           Z           -0.00002   0.00025   1.00000
 This molecule is an asymmetric top.
 Rotational symmetry number  1.
 Rotational temperatures (Kelvin)      1.01606     0.42582     0.32765
 Rotational constants (GHZ):          21.17126     8.87266     6.82707
 Zero-point vibrational energy     160370.8 (Joules/Mol)
                                   38.32954 (Kcal/Mol)
 Warning -- explicit consideration of   2 degrees of freedom as
           vibrations may cause significant error
 Vibrational temperatures:    166.12   372.54  1063.61  1164.56  1178.59
          (Kelvin)           1362.62  1490.93  1519.58  1600.05  1648.33
                             1698.99  2112.61  2150.63  2792.47  4466.25
                             4528.63  4579.03  4680.77

 Zero-point correction=                           0.061082 (Hartree/Particle)
 Thermal correction to Energy=                    0.065522
 Thermal correction to Enthalpy=                  0.066466
 Thermal correction to Gibbs Free Energy=         0.034743
 Sum of electronic and zero-point Energies=           -154.632282
 Sum of electronic and thermal Energies=              -154.627843
 Sum of electronic and thermal Enthalpies=            -154.626898
 Sum of electronic and thermal Free Energies=         -154.658621

                     E (Thermal)             CV                S
                      KCal/Mol        Cal/Mol-Kelvin    Cal/Mol-Kelvin
 Total                   41.115             13.661             66.766
 Electronic               0.000              0.000              0.000
 Translational            0.889              2.981             37.771
 Rotational               0.889              2.981             23.043
 Vibrational             39.338              7.699              5.953
 Vibration     1          0.608              1.937              3.175
 Vibration     2          0.668              1.748              1.669

 1\1\ CITASK-GV1813\Freq\RB3LYP\6-311++G(d,p)\C4H4\EERD\04-Mar-2018\0\\
 #p b3lyp/6-311++g(d,p) freq\\min\\0,1\C,-1.632233,-0.149641,-0.006364\
 H,0.334032,1.445393,-0.922146\C,0.369919,0.883545,0.001067\H,0.331718,
 1.445498,0.924166\C,-0.415049,-0.512317,0.001345\C,1.041995,-0.453734,
 0.002096\H,1.536852,-0.767778,0.9163\H,1.536947,-0.768162,-0.911939\\V
 ersion=ES64L-G09RevD.01\State=1-A\HF=-154.6933642\RMSD=2.501e-09\RMSF=
 4.660e-05\ZeroPoint=0.061082\Thermal=0.0655216\Dipole=1.7303656,0.2270
 592,0.0043278\DipoleDeriv=0.6816834,0.0572699,0.0058669,-0.1835136,-0.

 Normal termination of Gaussian 09 at Sun Mar  4 21:19:23 2018.
