 Gaussian 09, Revision D.01,
 Gaussian 09:  ES64L-G09RevD.01 24-Apr-2013

 ---------------------------
 #p b3lyp/6-311++g(d,p) freq
 ---------------------------

 ---
 min
 ---
 Symbolic Z-matrix:
 Charge =  1 Multiplicity = 4

                         Standard orientation:
 ---------------------------------------------------------------------
 Center     Atomic      Atomic             Coordinates (Angstroms)
 Number     Number       Type             X           Y           Z
 ---------------------------------------------------------------------
      1          6           0        0.513340    1.700348   -0.000000
      2          1           0        0.742089    2.222729    0.934888
      3          1           0        0.742089    2.222729   -0.934888
      4          6           0        0.000000    0.535792    0.000000
      5          6           0       -0.584287   -0.753056    0.000000
      6          1           0       -1.293094   -0.766055   -0.860150
      7          1           0       -1.293094   -0.766055    0.860150
      8          6           0        0.254615   -1.968643   -0.000000
 ---------------------------------------------------------------------

 SCF Done:  E(UB3LYP) =  -154.239431936     A.U. after   19 cycles

 The electronic state is 4-A".
 Alpha  occ. eigenvalues --  -10.51264 -10.48009 -10.46753 -10.44287  -1.09456
 Alpha  occ. eigenvalues --   -1.01788  -0.86600  -0.77470  -0.72491  -0.72443
 Alpha  occ. eigenvalues --   -0.67814  -0.61201  -0.54195  -0.45511  -0.44538
 Alpha virt. eigenvalues --   -0.36014  -0.24379  -0.17477  -0.13238  -0.12643
 Alpha virt. eigenvalues --   -0.10411  -0.10243  -0.08667  -0.07709  -0.05962
 Alpha virt. eigenvalues --   -0.04676  -0.04037  -0.03711  -0.02271  -0.01828

  Beta  occ. eigenvalues --  -10.50874 -10.47782 -10.44247 -10.42245  -1.08029
  Beta  occ. eigenvalues --   -1.00345  -0.80861  -0.74807  -0.71557  -0.71512
  Beta  occ. eigenvalues --   -0.67117  -0.55019
  Beta virt. eigenvalues --   -0.37242  -0.34536  -0.25977  -0.24910  -0.22595
  Beta virt. eigenvalues --   -0.17058  -0.13106  -0.12530  -0.10205  -0.09706
  Beta virt. eigenvalues --   -0.08269  -0.07348  -0.04972  -0.04207  -0.02831

 Mulliken charges and spin densities:
               1          2
     1  C   -0.513521  -0.011808
     2  H    0.243833   0.010153
     3  H    0.243833   0.010153
     4  C    0.622561   0.213960
     5  C   -0.325639   0.126037
     6  H    0.271708   0.016934
     7  H    0.271708   0.016934
     8  C    0.185515   2.617635
 Sum of Mulliken charges =   1.00000   3.00000

 Dipole moment (field-independent basis, Debye):
    X=             -0.7652    Y=              2.0206    Z=             -0.0000  Tot=              2.1606
 Quadrupole moment (field-independent basis, Debye-Ang):
   XX=            -19.3054   YY=            -10.0404   ZZ=            -18.8310
   XY=              4.8272   XZ=             -0.0000   YZ=             -0.0000

  Exact polarizability:  32.001   9.587  91.607   0.000   0.000  27.413
 Approx polarizability:  45.886  16.400 149.164   0.000  -0.000  38.785

                      1                      2                      3
                     A"                     A'                     A"
 Frequencies --     70.6098               208.9625               268.1159
 Red. masses --      1.1903                 5.0274                 1.4056
 Frc consts  --      0.0035                 0.1293                 0.0595
 IR Inten    --     21.6223                 1.6143                 1.5843

                      4                      5                      6
                     A"                     A'                     A"
 Frequencies --    524.5470               551.4896               835.1740
 Red. masses --      1.5042                 6.3782                 1.9467
 Frc consts  --      0.2438                 1.1429                 0.8000
 IR Inten    --      0.0161                32.4830                18.6841

                      7                      8                      9
                     A'                     A'                     A'
 Frequencies --    872.1765               877.9818              1027.5794
 Red. masses --      3.6976                 1.3682                 2.3106
 Frc consts  --      1.6572                 0.6214                 1.4375
 IR Inten    --     17.0167                62.5613               194.9059

                     10                     11                     12
                     A"                     A'                     A'
 Frequencies --   1105.9872              1160.4156              1218.1018
 Red. masses --      1.1834                 1.6753                 1.1615
 Frc consts  --      0.8529                 1.3291                 1.0154
 IR Inten    --      0.2067                 8.1524               113.8868

                     13                     14                     15
                     A'                     A'                     A'
 Frequencies --   1289.3950              1879.1648              2881.4640
 Red. masses --      1.1602                 9.1112                 1.0611
 Frc consts  --      1.1365                18.9563                 5.1907
 IR Inten    --     33.8341               117.0600               119.9110

                     16                     17                     18
                     A"                     A'                     A"
 Frequencies --   2887.8883              3050.7377              3114.3648
 Red. masses --      1.0847                 1.0629                 1.1096
 Frc consts  --      5.3298                 5.8284                 6.3412
 IR Inten    --     64.9020               200.8195                98.6268

 - Thermochemistry -
 -------------------
 Temperature   298.150 Kelvin.  Pressure   1.00000 Atm.
 Atom     1 has atomic number  6 and mass  12.00000

 Molecular mass:    52.03130 amu.
 Principal axes and moments of inertia in atomic units:
                           1         2         3
     Eigenvalues --    47.39837 386.24241 410.40740
           X            0.16148   0.98688   0.00000
           Y            0.98688  -0.16148   0.00000
           Z           -0.00000  -0.00000   1.00000
 This molecule is an asymmetric top.
 Rotational symmetry number  1.
 Rotational temperatures (Kelvin)      1.82736     0.22425     0.21104
 Rotational constants (GHZ):          38.07602     4.67256     4.39744
 Zero-point vibrational energy     142500.1 (Joules/Mol)
                                   34.05834 (Kcal/Mol)
 Warning -- explicit consideration of   5 degrees of freedom as
           vibrations may cause significant error
 Vibrational temperatures:    101.59   300.65   385.76   754.71   793.47
          (Kelvin)           1201.63  1254.87  1263.22  1478.46  1591.27
                             1669.58  1752.57  1855.15  2703.70  4145.78
                             4155.02  4389.33  4480.87

 Zero-point correction=                           0.054275 (Hartree/Particle)
 Thermal correction to Energy=                    0.059597
 Thermal correction to Enthalpy=                  0.060541
 Thermal correction to Gibbs Free Energy=         0.025501
 Sum of electronic and zero-point Energies=           -154.185157
 Sum of electronic and thermal Energies=              -154.179835
 Sum of electronic and thermal Enthalpies=            -154.178891
 Sum of electronic and thermal Free Energies=         -154.213931

                     E (Thermal)             CV                S
                      KCal/Mol        Cal/Mol-Kelvin    Cal/Mol-Kelvin
 Total                   37.398             16.707             73.749
 Electronic               0.000              0.000              2.755
 Translational            0.889              2.981             37.771
 Rotational               0.889              2.981             23.534
 Vibrational             35.620             10.745              9.689
 Vibration     1          0.598              1.968              4.136
 Vibration     2          0.642              1.827              2.053
 Vibration     3          0.673              1.732              1.608
 Vibration     4          0.880              1.196              0.600
 Vibration     5          0.907              1.136              0.541

 Optimization completed.
    -- Stationary point found.
 Normal termination of Gaussian 09 at Thu Jan 24 16:10:18 2019.
