 Gaussian 09, Revision D.01,
 Gaussian 09:  ES64L-G09RevD.01 24-Apr-2013

 ---------------------------
 #p b3lyp/6-311++g(d,p) freq
 ---------------------------

 ---
 min
 ---
 Symbolic Z-matrix:
 Charge =  1 Multiplicity = 4

                         Standard orientation:
 ---------------------------------------------------------------------
 Center     Atomic      Atomic             Coordinates (Angstroms)
 Number     Number       Type             X           Y           Z
 ---------------------------------------------------------------------
      1          6           0        0.000000    0.810676   -0.571299
      2          1           0       -0.902815    1.268668   -0.993587
      3          1           0        0.902815    1.268668   -0.993587
      4          6           0       -0.000000   -0.810676   -0.571299
      5          1           0       -0.902815   -1.268668   -0.993587
      6          1           0        0.902815   -1.268668   -0.993587
      7          6           0        0.000000    0.710589    0.902495
      8          6           0       -0.000000   -0.710589    0.902495
 ---------------------------------------------------------------------

 SCF Done:  E(UB3LYP) =  -154.289877793     A.U. after   12 cycles

 The electronic state is 4-A2.
 Alpha  occ. eigenvalues --  -10.53901 -10.53853 -10.45878 -10.45864  -1.18111
 Alpha  occ. eigenvalues --   -0.93930  -0.93198  -0.74428  -0.73384  -0.72190
 Alpha  occ. eigenvalues --   -0.67596  -0.64333  -0.56241  -0.54175  -0.53431
 Alpha virt. eigenvalues --   -0.31474  -0.17103  -0.15849  -0.13993  -0.13565
 Alpha virt. eigenvalues --   -0.10280  -0.09435  -0.08401  -0.07483  -0.06715
 Alpha virt. eigenvalues --   -0.06386  -0.05905  -0.02915  -0.02340  -0.01406

  Beta  occ. eigenvalues --  -10.51535 -10.51498 -10.45538 -10.45526  -1.13927
  Beta  occ. eigenvalues --   -0.91535  -0.89224  -0.72196  -0.68506  -0.67528
  Beta  occ. eigenvalues --   -0.63909  -0.63056
  Beta virt. eigenvalues --   -0.42973  -0.38334  -0.35523  -0.22924  -0.16788
  Beta virt. eigenvalues --   -0.14870  -0.13686  -0.12610  -0.09545  -0.09021
  Beta virt. eigenvalues --   -0.08238  -0.07079  -0.05936  -0.05522  -0.04134

 Mulliken charges and spin densities:
               1          2
     1  C   -0.468906   0.125262
     2  H    0.269832   0.045147
     3  H    0.269832   0.045147
     4  C   -0.468906   0.125262
     5  H    0.269832   0.045147
     6  H    0.269832   0.045147
     7  C    0.429242   1.284444
     8  C    0.429242   1.284444
 Sum of Mulliken charges =   1.00000   3.00000

 Dipole moment (field-independent basis, Debye):
    X=             -0.0000    Y=             -0.0000    Z=             -1.0079  Tot=              1.0079
 Quadrupole moment (field-independent basis, Debye-Ang):
   XX=            -18.9531   YY=            -16.8460   ZZ=            -18.1040
   XY=              0.0000   XZ=              0.0000   YZ=             -0.0000

  Exact polarizability:  27.047   0.000  42.628  -0.000  -0.000  39.649
 Approx polarizability:  39.651  -0.000  68.773   0.000   0.000  62.830

                      1                      2                      3
                     A2                     B1                     A1
 Frequencies --    300.3761               691.1620               733.2640
 Red. masses --      1.8935                 1.1546                 5.7616
 Frc consts  --      0.1007                 0.3250                 1.8252
 IR Inten    --      0.0000                 5.4590                12.7368

                      4                      5                      6
                     B2                     B1                     A2
 Frequencies --    784.7580               935.3374               944.4143
 Red. masses --      7.5843                 1.0785                 2.0808
 Frc consts  --      2.7519                 0.5559                 1.0934
 IR Inten    --     12.8577                 0.6357                 0.0000

                      7                      8                      9
                     B2                     A1                     A2
 Frequencies --    953.2959              1082.0309              1086.0348
 Red. masses --      3.1564                 3.1600                 1.0954
 Frc consts  --      1.6900                 2.1798                 0.7612
 IR Inten    --     31.9660                 0.3500                 0.0000

                     10                     11                     12
                     A1                     B2                     A1
 Frequencies --   1095.6523              1213.7812              1343.2644
 Red. masses --      1.3983                 1.7256                 2.8412
 Frc consts  --      0.9890                 1.4978                 3.0205
 IR Inten    --     67.0157                11.3805                 6.7480

                     13                     14                     15
                     B2                     A1                     B2
 Frequencies --   1351.4075              1386.9634              3004.0600
 Red. masses --      1.0652                 1.5338                 1.0506
 Frc consts  --      1.1462                 1.7384                 5.5861
 IR Inten    --     17.4999                16.7458                73.2460

                     16                     17                     18
                     A1                     A2                     B1
 Frequencies --   3021.2969              3069.4597              3084.5588
 Red. masses --      1.0558                 1.1079                 1.1061
 Frc consts  --      5.6782                 6.1503                 6.2006
 IR Inten    --     60.6575                 0.0000                49.4439

 - Thermochemistry -
 -------------------
 Temperature   298.150 Kelvin.  Pressure   1.00000 Atm.
 Atom     1 has atomic number  6 and mass  12.00000

 Molecular mass:    52.03130 amu.
 Principal axes and moments of inertia in atomic units:
                           1         2         3
     Eigenvalues --   122.65837 134.50573 233.69640
           X            0.00000   0.00000   1.00000
           Y            1.00000   0.00000  -0.00000
           Z            0.00000   1.00000   0.00000
 This molecule is an asymmetric top.
 Rotational symmetry number  2.
 Rotational temperatures (Kelvin)      0.70614     0.64394     0.37063
 Rotational constants (GHZ):          14.71356    13.41758     7.72259
 Zero-point vibrational energy     155999.7 (Joules/Mol)
                                   37.28483 (Kcal/Mol)
 Warning -- explicit consideration of   1 degrees of freedom as
           vibrations may cause significant error
 Vibrational temperatures:    432.17   994.43  1055.00  1129.09  1345.74
          (Kelvin)           1358.80  1371.58  1556.80  1562.56  1576.40
                             1746.36  1932.66  1944.37  1995.53  4322.17
                             4346.97  4416.26  4437.99

 Zero-point correction=                           0.059417 (Hartree/Particle)
 Thermal correction to Energy=                    0.063226
 Thermal correction to Enthalpy=                  0.064170
 Thermal correction to Gibbs Free Energy=         0.033339
 Sum of electronic and zero-point Energies=           -154.230461
 Sum of electronic and thermal Energies=              -154.226652
 Sum of electronic and thermal Enthalpies=            -154.225707
 Sum of electronic and thermal Free Energies=         -154.256539

                     E (Thermal)             CV                S
                      KCal/Mol        Cal/Mol-Kelvin    Cal/Mol-Kelvin
 Total                   39.675             12.683             64.890
 Electronic               0.000              0.000              2.755
 Translational            0.889              2.981             37.771
 Rotational               0.889              2.981             21.494
 Vibrational             37.898              6.721              2.871
 Vibration     1          0.693              1.673              1.415

 Normal termination of Gaussian 09 at Thu Jan 24 16:07:25 2019.
