 Gaussian 09, Revision D.01,
 Gaussian 09:  ES64L-G09RevD.01 24-Apr-2013

 ---------------------------
 #p b3lyp/6-311++g(d,p) freq
 ---------------------------

 ---
 min
 ---
 Symbolic Z-matrix:
 Charge =  0 Multiplicity = 1

                         Standard orientation:
 ---------------------------------------------------------------------
 Center     Atomic      Atomic             Coordinates (Angstroms)
 Number     Number       Type             X           Y           Z
 ---------------------------------------------------------------------
      1          6           0        0.046416    0.665958   -0.000000
      2          1           0       -0.863425   -1.067960    0.000000
      3          1           0       -0.438548    1.078920    0.893032
      4          1           0        1.090700    0.979002   -0.000000
      5          1           0       -0.438548    1.078920   -0.893032
      6          8           0        0.046416   -0.758079    0.000000
 ---------------------------------------------------------------------

 SCF Done:  E(RB3LYP) =  -115.764999220     A.U. after   10 cycles

 The electronic state is 1-A'.
 Alpha  occ. eigenvalues --  -19.12686 -10.21601  -1.02603  -0.69010  -0.51535
 Alpha  occ. eigenvalues --   -0.44630  -0.43254  -0.34431  -0.28434
 Alpha virt. eigenvalues --   -0.01322   0.00925   0.03214   0.03782   0.07030
 Alpha virt. eigenvalues --    0.08304   0.10209   0.11825   0.16324   0.17889
 Alpha virt. eigenvalues --    0.17892   0.19280   0.20959   0.21103   0.24347

 Mulliken charges:
               1
     1  C   -0.279042
     2  H    0.250318
     3  H    0.120493
     4  H    0.149280
     5  H    0.120493
     6  O   -0.361541
 Sum of Mulliken charges =   0.00000

 Dipole moment (field-independent basis, Debye):
    X=             -1.5166    Y=              1.1262    Z=             -0.0000  Tot=              1.8891
 Quadrupole moment (field-independent basis, Debye-Ang):
   XX=            -11.9349   YY=            -13.6651   ZZ=            -13.9901
   XY=              2.2895   XZ=              0.0000   YZ=             -0.0000

  Exact polarizability:  18.572   0.670  20.342  -0.000  -0.000  17.980
 Approx polarizability:  23.563   0.776  24.085  -0.000  -0.000  21.733

                      1                      2                      3
                     A"                     A'                     A'
 Frequencies --    294.3768              1041.9324              1070.1007
 Red. masses --      1.0716                 3.4001                 1.3148
 Frc consts  --      0.0547                 2.1748                 0.8871
 IR Inten    --    134.7877               128.5905                 0.8941

                      4                      5                      6
                     A"                     A'                     A'
 Frequencies --   1167.4000              1355.8032              1479.7483
 Red. masses --      1.2668                 1.2969                 1.1308
 Frc consts  --      1.0172                 1.4046                 1.4589
 IR Inten    --      0.2277                20.7732                 5.1192

                      7                      8                      9
                     A"                     A'                     A'
 Frequencies --   1493.6685              1504.9500              2989.8993
 Red. masses --      1.0472                 1.0436                 1.0360
 Frc consts  --      1.3765                 1.3926                 5.4568
 IR Inten    --      3.2613                 5.0267                68.3113

                     10                     11                     12
                     A"                     A'                     A'
 Frequencies --   3037.3469              3112.7025              3849.0801
 Red. masses --      1.1057                 1.0969                 1.0668
 Frc consts  --      6.0099                 6.2619                 9.3123
 IR Inten    --     63.6620                27.3825                30.0757

 - Thermochemistry -
 -------------------
 Temperature   298.150 Kelvin.  Pressure   1.00000 Atm.
 Atom     1 has atomic number  6 and mass  12.00000

 Molecular mass:    32.02621 amu.
 Principal axes and moments of inertia in atomic units:
                           1         2         3
     Eigenvalues --    14.08279  73.21174  75.81359
           X            0.05450   0.99851  -0.00000
           Y            0.99851  -0.05450   0.00000
           Z           -0.00000   0.00000   1.00000
 This molecule is an asymmetric top.
 Rotational symmetry number  1.
 Rotational temperatures (Kelvin)      6.15033     1.18306     1.14246
 Rotational constants (GHZ):         128.15226    24.65098    23.80498
 Zero-point vibrational energy     133963.9 (Joules/Mol)
                                   32.01813 (Kcal/Mol)
 Warning -- explicit consideration of   1 degrees of freedom as
           vibrations may cause significant error
 Vibrational temperatures:    423.54  1499.11  1539.63  1679.63  1950.70
          (Kelvin)           2129.03  2149.05  2165.28  4301.79  4370.06
                             4478.48  5537.96

 Zero-point correction=                           0.051024 (Hartree/Particle)
 Thermal correction to Energy=                    0.054387
 Thermal correction to Enthalpy=                  0.055331
 Thermal correction to Gibbs Free Energy=         0.028236
 Sum of electronic and zero-point Energies=           -115.713975
 Sum of electronic and thermal Energies=              -115.710613
 Sum of electronic and thermal Enthalpies=            -115.709669
 Sum of electronic and thermal Free Energies=         -115.736763

                     E (Thermal)             CV                S
                      KCal/Mol        Cal/Mol-Kelvin    Cal/Mol-Kelvin
 Total                   34.128              8.867             57.025
 Electronic               0.000              0.000              0.000
 Translational            0.889              2.981             36.324
 Rotational               0.889              2.981             18.997
 Vibrational             32.351              2.905              1.703
 Vibration     1          0.689              1.684              1.449

 Optimization completed.
    -- Stationary point found.
 Normal termination of Gaussian 09 at Sun Mar  4 21:07:13 2018.
