 Gaussian 09, Revision D.01,
 Gaussian 09:  ES64L-G09RevD.01 24-Apr-2013

 ---------------------------
 #p b3lyp/6-311++g(d,p) freq
 ---------------------------

 ---
 min
 ---
 Symbolic Z-matrix:
 Charge =  1 Multiplicity = 2

                         Standard orientation:
 ---------------------------------------------------------------------
 Center     Atomic      Atomic             Coordinates (Angstroms)
 Number     Number       Type             X           Y           Z
 ---------------------------------------------------------------------
      1          6           0        0.025795    0.638281    0.000000
      2          1           0        0.726793    0.960330    0.825098
      3          1           0        0.726793    0.960330   -0.825098
      4          1           0       -0.870663   -1.128180   -0.000000
      5          1           0       -0.944056    1.129036    0.000000
      6          8           0        0.025795   -0.718900   -0.000000
 ---------------------------------------------------------------------

 SCF Done:  E(UB3LYP) =  -115.371468365     A.U. after   12 cycles

 The electronic state is 2-A".
 Alpha  occ. eigenvalues --  -19.54610 -10.53446  -1.42534  -1.02403  -0.85903
 Alpha  occ. eigenvalues --   -0.79975  -0.78988  -0.67693  -0.64117
 Alpha virt. eigenvalues --   -0.23439  -0.17935  -0.14933  -0.14584  -0.11524
 Alpha virt. eigenvalues --   -0.11026  -0.08190  -0.06277  -0.03380  -0.02704
 Alpha virt. eigenvalues --   -0.02345  -0.01316  -0.00499   0.00244   0.06354

  Beta  occ. eigenvalues --  -19.52779 -10.53273  -1.38606  -1.00411  -0.84553
  Beta  occ. eigenvalues --   -0.77210  -0.72264  -0.66332
  Beta virt. eigenvalues --   -0.49485  -0.22947  -0.17452  -0.14658  -0.13380
  Beta virt. eigenvalues --   -0.10890  -0.10803  -0.07972  -0.06096  -0.03025
  Beta virt. eigenvalues --   -0.02353  -0.01707  -0.00994   0.00370   0.00689

 Mulliken charges and spin densities:
               1          2
     1  C   -0.349643   0.071751
     2  H    0.324769   0.152543
     3  H    0.324769   0.152543
     4  H    0.357065  -0.017936
     5  H    0.243778  -0.009598
     6  O    0.099262   0.650698
 Sum of Mulliken charges =   1.00000   1.00000

 Dipole moment (field-independent basis, Debye):
    X=             -1.1525    Y=              1.0181    Z=             -0.0000  Tot=              1.5378
 Quadrupole moment (field-independent basis, Debye-Ang):
   XX=             -8.0131   YY=             -6.5707   ZZ=            -10.1302
   XY=              3.3076   XZ=             -0.0000   YZ=             -0.0000

  Exact polarizability:  15.175   3.006  23.073  -0.000   0.000  13.566
 Approx polarizability:  19.414   4.624  33.210  -0.000  -0.000  17.578

                      1                      2                      3
                     A"                     A'                     A"
 Frequencies --    314.3358               945.8129               977.7035
 Red. masses --      1.0809                 1.7744                 1.3017
 Frc consts  --      0.0629                 0.9352                 0.7331
 IR Inten    --    321.0443               110.2999                 5.1996

                      4                      5                      6
                     A'                     A"                     A'
 Frequencies --   1040.1760              1213.4202              1236.0050
 Red. masses --      1.1618                 1.0603                 1.9010
 Frc consts  --      0.7406                 0.9198                 1.7111
 IR Inten    --    176.1147                17.0860               127.3282

                      7                      8                      9
                     A'                     A'                     A"
 Frequencies --   1280.9819              1480.1544              2639.5194
 Red. masses --      1.2187                 1.1292                 1.0651
 Frc consts  --      1.1782                 1.4576                 4.3719
 IR Inten    --     16.1323                17.4074               117.2162

                     10                     11                     12
                     A'                     A'                     A'
 Frequencies --   2749.3616              3179.6575              3569.1260
 Red. masses --      1.0484                 1.1015                 1.0693
 Frc consts  --      4.6691                 6.5612                 8.0256
 IR Inten    --    228.8532                15.1335               318.2778

 - Thermochemistry -
 -------------------
 Temperature   298.150 Kelvin.  Pressure   1.00000 Atm.
 Atom     1 has atomic number  6 and mass  12.00000

 Molecular mass:    32.02621 amu.
 Principal axes and moments of inertia in atomic units:
                           1         2         3
     Eigenvalues --    14.31746  67.65485  72.17167
           X            0.08364   0.99650   0.00000
           Y            0.99650  -0.08364   0.00000
           Z            0.00000   0.00000   1.00000
 This molecule is an asymmetric top.
 Rotational symmetry number  1.
 Rotational temperatures (Kelvin)      6.04952     1.28023     1.20011
 Rotational constants (GHZ):         126.05178    26.67571    25.00623
 Zero-point vibrational energy     123372.4 (Joules/Mol)
                                   29.48671 (Kcal/Mol)
 Warning -- explicit consideration of   1 degrees of freedom as
           vibrations may cause significant error
 Vibrational temperatures:    452.26  1360.81  1406.70  1496.58  1745.84
          (Kelvin)           1778.33  1843.04  2129.61  3797.67  3955.71
                             4574.81  5135.17

 Zero-point correction=                           0.046990 (Hartree/Particle)
 Thermal correction to Energy=                    0.050390
 Thermal correction to Enthalpy=                  0.051334
 Thermal correction to Gibbs Free Energy=         0.023614
 Sum of electronic and zero-point Energies=           -115.324478
 Sum of electronic and thermal Energies=              -115.321078
 Sum of electronic and thermal Enthalpies=            -115.320134
 Sum of electronic and thermal Free Energies=         -115.347855

                     E (Thermal)             CV                S
                      KCal/Mol        Cal/Mol-Kelvin    Cal/Mol-Kelvin
 Total                   31.620              9.404             58.343
 Electronic               0.000              0.000              1.377
 Translational            0.889              2.981             36.324
 Rotational               0.889              2.981             18.886
 Vibrational             29.843              3.443              1.755
 Vibration     1          0.702              1.646              1.339

 Optimization completed.
    -- Stationary point found.
 Normal termination of Gaussian 09 at Thu Jan 24 15:44:27 2019.
