 Gaussian 09, Revision D.01,
 Gaussian 09:  ES64L-G09RevD.01 24-Apr-2013

 ---------------------------
 #p b3lyp/6-311++g(d,p) freq
 ---------------------------

 ---
 min
 ---
 Symbolic Z-matrix:
 Charge =  1 Multiplicity = 1

                         Standard orientation:
 ---------------------------------------------------------------------
 Center     Atomic      Atomic             Coordinates (Angstroms)
 Number     Number       Type             X           Y           Z
 ---------------------------------------------------------------------
      1          6           0        0.000000    0.000000    0.162822
      2          1           0        0.000000    0.000000   -0.976935
 ---------------------------------------------------------------------

 SCF Done:  E(RB3LYP) =  -38.0897448630     A.U. after    7 cycles

 The electronic state is 1-SG.
 Alpha  occ. eigenvalues --  -10.79695  -1.05134  -0.72172
 Alpha virt. eigenvalues --   -0.54542  -0.54542  -0.23166  -0.13607  -0.11431
 Alpha virt. eigenvalues --   -0.11431  -0.09980  -0.04946   0.17390   0.23091
 Alpha virt. eigenvalues --    0.23091   0.25841   0.40605   0.68743   0.68743

 Mulliken charges:
               1
     1  C    0.752570
     2  H    0.247430
 Sum of Mulliken charges =   1.00000

 Dipole moment (field-independent basis, Debye):
    X=              0.0000    Y=              0.0000    Z=             -1.4694  Tot=              1.4694
 Quadrupole moment (field-independent basis, Debye-Ang):
   XX=             -3.8982   YY=             -3.8982   ZZ=             -4.4783
   XY=              0.0000   XZ=              0.0000   YZ=              0.0000

  Exact polarizability:   6.620  -0.000   6.620   0.000   0.000   8.647
 Approx polarizability:   9.690  -0.000   9.690  -0.000  -0.000  10.095

                      1
                     SG
 Frequencies --   2806.9700
 Red. masses --      1.0848
 Frc consts  --      5.0360
 IR Inten    --      1.4816

 - Thermochemistry -
 -------------------
 Temperature   298.150 Kelvin.  Pressure   1.00000 Atm.
 Atom     1 has atomic number  6 and mass  12.00000

 Molecular mass:    13.00783 amu.
 Principal axes and moments of inertia in atomic units:
                           1         2         3
     Eigenvalues --     0.00000   4.31304   4.31304
           X            0.00000  -0.00000   1.00000
           Y            0.00000   1.00000   0.00000
           Z            1.00000   0.00000   0.00000
 This molecule is a prolate symmetric top.
 Rotational symmetry number  1.
 Rotational temperature (Kelvin)     20.08183
 Rotational constant (GHZ):         418.437845
 Zero-point vibrational energy      16789.4 (Joules/Mol)
                                    4.01276 (Kcal/Mol)
 Vibrational temperatures:   4038.60
          (Kelvin)

 Zero-point correction=                           0.006395 (Hartree/Particle)
 Thermal correction to Energy=                    0.008755
 Thermal correction to Enthalpy=                  0.009699
 Thermal correction to Gibbs Free Energy=        -0.009775
 Sum of electronic and zero-point Energies=            -38.083350
 Sum of electronic and thermal Energies=               -38.080990
 Sum of electronic and thermal Enthalpies=             -38.080045
 Sum of electronic and thermal Free Energies=          -38.099520

                     E (Thermal)             CV                S
                      KCal/Mol        Cal/Mol-Kelvin    Cal/Mol-Kelvin
 Total                    5.494              4.968             40.987
 Electronic               0.000              0.000              0.000
 Translational            0.889              2.981             33.638
 Rotational               0.592              1.987              7.348
 Vibrational              4.013              0.000              0.000

 Optimization completed.
    -- Stationary point found.
 Normal termination of Gaussian 09 at Thu Jan 24 15:29:58 2019.
