 Gaussian 09, Revision D.01,
 Gaussian 09:  ES64L-G09RevD.01 24-Apr-2013

 ---------------------------
 #p b3lyp/6-311++g(d,p) freq
 ---------------------------

 ---
 min
 ---
 Symbolic Z-matrix:
 Charge =  0 Multiplicity = 4

                         Standard orientation:
 ---------------------------------------------------------------------
 Center     Atomic      Atomic             Coordinates (Angstroms)
 Number     Number       Type             X           Y           Z
 ---------------------------------------------------------------------
      1          6           0        0.000000    0.000000    0.156547
      2          1           0        0.000000    0.000000   -0.939285
 ---------------------------------------------------------------------

 SCF Done:  E(UB3LYP) =  -38.4611788855     A.U. after    9 cycles

 The electronic state is 4-SG.
 Alpha  occ. eigenvalues --  -10.25589  -0.67309  -0.39375  -0.26381  -0.26381
 Alpha virt. eigenvalues --    0.00210   0.06226   0.07040   0.07040   0.11335
 Alpha virt. eigenvalues --    0.14527   0.43133   0.51716   0.51716   0.53724
 Alpha virt. eigenvalues --    0.72190   1.05282   1.05282   1.26627   1.26627

  Beta  occ. eigenvalues --  -10.21166  -0.55962
  Beta virt. eigenvalues --   -0.17233  -0.06480  -0.06480   0.00847   0.08176
  Beta virt. eigenvalues --    0.09790   0.09790   0.12690   0.17556   0.46890
  Beta virt. eigenvalues --    0.59499   0.59499   0.61582   0.78342   1.13843

 Mulliken charges and spin densities:
               1          2
     1  C   -0.176096   2.880198
     2  H    0.176096   0.119802
 Sum of Mulliken charges =   0.00000   3.00000

 Dipole moment (field-independent basis, Debye):
    X=              0.0000    Y=              0.0000    Z=             -0.7724  Tot=              0.7724
 Quadrupole moment (field-independent basis, Debye-Ang):
   XX=             -7.6038   YY=             -7.6038   ZZ=             -5.5004
   XY=              0.0000   XZ=              0.0000   YZ=              0.0000

  Exact polarizability:   8.472  -0.000   8.472  -0.000  -0.000  10.269
 Approx polarizability:   8.426  -0.000   8.426  -0.000  -0.000  12.023

                      1
                     SG
 Frequencies --   3047.0668
 Red. masses --      1.0848
 Frc consts  --      5.9343
 IR Inten    --     55.6501

 - Thermochemistry -
 -------------------
 Temperature   298.150 Kelvin.  Pressure   1.00000 Atm.
 Atom     1 has atomic number  6 and mass  12.00000

 Molecular mass:    13.00783 amu.
 Principal axes and moments of inertia in atomic units:
                           1         2         3
     Eigenvalues --     0.00000   3.98701   3.98701
           X            0.00000  -0.00000   1.00000
           Y            0.00000   1.00000   0.00000
           Z            1.00000   0.00000   0.00000
 This molecule is a prolate symmetric top.
 Rotational symmetry number  1.
 Rotational temperature (Kelvin)     21.72400
 Rotational constant (GHZ):         452.655224
 Zero-point vibrational energy      18225.5 (Joules/Mol)
                                    4.35600 (Kcal/Mol)
 Vibrational temperatures:   4384.04
          (Kelvin)

 Zero-point correction=                           0.006942 (Hartree/Particle)
 Thermal correction to Energy=                    0.009302
 Thermal correction to Enthalpy=                  0.010246
 Thermal correction to Gibbs Free Energy=        -0.010462
 Sum of electronic and zero-point Energies=            -38.454237
 Sum of electronic and thermal Energies=               -38.451877
 Sum of electronic and thermal Enthalpies=             -38.450932
 Sum of electronic and thermal Free Energies=          -38.471641

                     E (Thermal)             CV                S
                      KCal/Mol        Cal/Mol-Kelvin    Cal/Mol-Kelvin
 Total                    5.837              4.968             43.585
 Electronic               0.000              0.000              2.755
 Translational            0.889              2.981             33.638
 Rotational               0.592              1.987              7.192
 Vibrational              4.356              0.000              0.000

 Optimization completed.
    -- Stationary point found.
 Normal termination of Gaussian 09 at Sun Mar  4 20:54:57 2018.
