 Gaussian 09, Revision D.01,
 Gaussian 09:  ES64L-G09RevD.01 24-Apr-2013

 ---------------------------
 #p b3lyp/6-311++g(d,p) freq
 ---------------------------

 ---
 min
 ---
 Symbolic Z-matrix:
 Charge =  0 Multiplicity = 2

                         Standard orientation:
 ---------------------------------------------------------------------
 Center     Atomic      Atomic             Coordinates (Angstroms)
 Number     Number       Type             X           Y           Z
 ---------------------------------------------------------------------
      1          6           0        0.000000    0.000000    0.160906
      2          1           0        0.000000    0.000000   -0.965436
 ---------------------------------------------------------------------

 SCF Done:  E(UB3LYP) =  -38.4941027894     A.U. after   10 cycles

 Unable to determine electronic state:  an orbital has unidentified symmetry.
 Alpha  occ. eigenvalues --  -10.28146  -0.65438  -0.32769  -0.26245
 Alpha virt. eigenvalues --   -0.15234  -0.00241   0.06903   0.07034   0.07705
 Alpha virt. eigenvalues --    0.11530   0.14288   0.43996   0.51599   0.53531
 Alpha virt. eigenvalues --    0.56699   0.71780   1.06931   1.07541   1.27460

  Beta  occ. eigenvalues --  -10.26661  -0.61208  -0.30648
  Beta virt. eigenvalues --   -0.13594  -0.09300  -0.00027   0.07197   0.07926
  Beta virt. eigenvalues --    0.08811   0.11894   0.14929   0.44755   0.54407
  Beta virt. eigenvalues --    0.57412   0.57458   0.74301   1.07816   1.10544

 Mulliken charges and spin densities:
               1          2
     1  C   -0.086698   1.026412
     2  H    0.086698  -0.026412
 Sum of Mulliken charges =   0.00000   1.00000

 Dipole moment (field-independent basis, Debye):
    X=              0.0000    Y=              0.0000    Z=             -1.5696  Tot=              1.5696
 Quadrupole moment (field-independent basis, Debye-Ang):
   XX=             -7.8784   YY=             -5.7511   ZZ=             -7.9114
   XY=              0.0000   XZ=              0.0000   YZ=              0.0000

  Exact polarizability:  11.543   0.000   9.391   0.000   0.000  15.470
 Approx polarizability:  10.553  -0.000  12.797  -0.000  -0.000  17.528

                      1
                     SG
 Frequencies --   2820.9811
 Red. masses --      1.0848
 Frc consts  --      5.0864
 IR Inten    --    166.9022

 - Thermochemistry -
 -------------------
 Temperature   298.150 Kelvin.  Pressure   1.00000 Atm.
 Atom     1 has atomic number  6 and mass  12.00000

 Molecular mass:    13.00783 amu.
 Principal axes and moments of inertia in atomic units:
                           1         2         3
     Eigenvalues --     0.00000   4.21211   4.21211
           X            0.00000  -0.00000   1.00000
           Y            0.00000   1.00000   0.00000
           Z            1.00000   0.00000   0.00000
 This molecule is a prolate symmetric top.
 Rotational symmetry number  1.
 Rotational temperature (Kelvin)     20.56303
 Rotational constant (GHZ):         428.464590
 Zero-point vibrational energy      16873.2 (Joules/Mol)
                                    4.03279 (Kcal/Mol)
 Vibrational temperatures:   4058.76
          (Kelvin)

 Zero-point correction=                           0.006427 (Hartree/Particle)
 Thermal correction to Energy=                    0.008787
 Thermal correction to Enthalpy=                  0.009731
 Thermal correction to Gibbs Free Energy=        -0.010375
 Sum of electronic and zero-point Energies=            -38.487676
 Sum of electronic and thermal Energies=               -38.485316
 Sum of electronic and thermal Enthalpies=             -38.484371
 Sum of electronic and thermal Free Energies=          -38.504478

                     E (Thermal)             CV                S
                      KCal/Mol        Cal/Mol-Kelvin    Cal/Mol-Kelvin
 Total                    5.514              4.968             42.317
 Electronic               0.000              0.000              1.377
 Translational            0.889              2.981             33.638
 Rotational               0.592              1.987              7.301
 Vibrational              4.033              0.000              0.000

 Optimization completed.
    -- Stationary point found.
 Normal termination of Gaussian 09 at Sun Mar  4 20:54:57 2018.
