 Gaussian 09, Revision D.01,
 Gaussian 09:  ES64L-G09RevD.01 24-Apr-2013

 ---------------------------
 #p b3lyp/6-311++g(d,p) freq
 ---------------------------

 ---
 min
 ---
 Symbolic Z-matrix:
 Charge =  1 Multiplicity = 3

                         Standard orientation:
 ---------------------------------------------------------------------
 Center     Atomic      Atomic             Coordinates (Angstroms)
 Number     Number       Type             X           Y           Z
 ---------------------------------------------------------------------
      1          6           0        0.000000    0.000000    0.163458
      2          1           0        0.000000    0.000000   -0.980745
 ---------------------------------------------------------------------

 SCF Done:  E(UB3LYP) =  -38.0563752953     A.U. after    9 cycles

 Unable to determine electronic state:  partially filled degenerate orbitals.
 Alpha  occ. eigenvalues --  -10.76277  -1.06417  -0.79275  -0.67360
 Alpha virt. eigenvalues --   -0.54546  -0.23562  -0.14827  -0.11784  -0.11293
 Alpha virt. eigenvalues --   -0.10765  -0.04687   0.16414   0.21957   0.23139
 Alpha virt. eigenvalues --    0.23373   0.40770   0.66030   0.66648   0.87122

  Beta  occ. eigenvalues --  -10.72717  -0.97354
  Beta virt. eigenvalues --   -0.56549  -0.49732  -0.44503  -0.20840  -0.11773
  Beta virt. eigenvalues --   -0.10805  -0.10029  -0.09403  -0.04201   0.18909
  Beta virt. eigenvalues --    0.24997   0.27683   0.28583   0.44353   0.72379

 Mulliken charges and spin densities:
               1          2
     1  C    0.659467   1.835996
     2  H    0.340533   0.164004
 Sum of Mulliken charges =   1.00000   2.00000

 Dipole moment (field-independent basis, Debye):
    X=              0.0000    Y=              0.0000    Z=             -0.7761  Tot=              0.7761
 Quadrupole moment (field-independent basis, Debye-Ang):
   XX=             -5.2611   YY=             -3.7054   ZZ=             -2.4940
   XY=              0.0000   XZ=              0.0000   YZ=              0.0000

  Exact polarizability:   4.640  -0.000   5.144   0.000  -0.000   7.699
 Approx polarizability:   5.001  -0.000   6.973  -0.000  -0.000   9.149

                      1
                     SG
 Frequencies --   2615.9361
 Red. masses --      1.0848
 Frc consts  --      4.3738
 IR Inten    --    328.8144

 - Thermochemistry -
 -------------------
 Temperature   298.150 Kelvin.  Pressure   1.00000 Atm.
 Atom     1 has atomic number  6 and mass  12.00000

 Molecular mass:    13.00783 amu.
 Principal axes and moments of inertia in atomic units:
                           1         2         3
     Eigenvalues --     0.00000   4.34676   4.34676
           X            0.00000  -0.00000   1.00000
           Y            0.00000   1.00000   0.00000
           Z            1.00000   0.00000   0.00000
 This molecule is a prolate symmetric top.
 Rotational symmetry number  1.
 Rotational temperature (Kelvin)     19.92607
 Rotational constant (GHZ):         415.192337
 Zero-point vibrational energy      15646.8 (Joules/Mol)
                                    3.73967 (Kcal/Mol)
 Vibrational temperatures:   3763.74
          (Kelvin)

 Zero-point correction=                           0.005960 (Hartree/Particle)
 Thermal correction to Energy=                    0.008320
 Thermal correction to Enthalpy=                  0.009264
 Thermal correction to Gibbs Free Energy=        -0.011255
 Sum of electronic and zero-point Energies=            -38.050416
 Sum of electronic and thermal Energies=               -38.048055
 Sum of electronic and thermal Enthalpies=             -38.047111
 Sum of electronic and thermal Free Energies=          -38.067630

                     E (Thermal)             CV                S
                      KCal/Mol        Cal/Mol-Kelvin    Cal/Mol-Kelvin
 Total                    5.221              4.969             43.185
 Electronic               0.000              0.000              2.183
 Translational            0.889              2.981             33.638
 Rotational               0.592              1.987              7.364
 Vibrational              3.740              0.001              0.000

 Optimization completed.
    -- Stationary point found.
 Normal termination of Gaussian 09 at Thu Jan 24 15:29:58 2019.
