 Gaussian 09, Revision D.01,
 Gaussian 09:  ES64L-G09RevD.01 24-Apr-2013

 ---------------------------
 #p b3lyp/6-311++g(d,p) freq
 ---------------------------

 ---
 min
 ---
 Symbolic Z-matrix:
 Charge =  1 Multiplicity = 3

                         Standard orientation:
 ---------------------------------------------------------------------
 Center     Atomic      Atomic             Coordinates (Angstroms)
 Number     Number       Type             X           Y           Z
 ---------------------------------------------------------------------
      1          6           0        0.000000   -0.000000   -0.758852
      2          6           0       -0.000000    0.000000    0.494977
      3          1           0       -0.000000   -0.000000    1.583249
 ---------------------------------------------------------------------

 SCF Done:  E(UB3LYP) =  -76.2065448709     A.U. after   11 cycles

 Unable to determine electronic state:  partially filled degenerate orbitals.
 Alpha  occ. eigenvalues --  -10.65407 -10.61151  -1.16792  -0.89539  -0.75581
 Alpha  occ. eigenvalues --   -0.70564  -0.66944
 Alpha virt. eigenvalues --   -0.36063  -0.33165  -0.18953  -0.16621  -0.11766
 Alpha virt. eigenvalues --   -0.11334  -0.09858  -0.05101  -0.04972  -0.04632
 Alpha virt. eigenvalues --   -0.00650   0.03746   0.17234   0.21493   0.23983

  Beta  occ. eigenvalues --  -10.62244 -10.60285  -1.10730  -0.87441  -0.64265
  Beta virt. eigenvalues --   -0.53989  -0.51642  -0.29688  -0.26640  -0.18078
  Beta virt. eigenvalues --   -0.15958  -0.11276  -0.10921  -0.08546  -0.04278
  Beta virt. eigenvalues --   -0.04046  -0.03828  -0.00159   0.04387   0.20134

 Mulliken charges and spin densities:
               1          2
     1  C    0.427775   1.456665
     2  C    0.233092   0.536656
     3  H    0.339133   0.006679
 Sum of Mulliken charges =   1.00000   2.00000

 Dipole moment (field-independent basis, Debye):
    X=             -0.0000    Y=              0.0000    Z=              0.6921  Tot=              0.6921
 Quadrupole moment (field-independent basis, Debye-Ang):
   XX=            -10.5044   YY=             -8.7660   ZZ=             -2.8252
   XY=              0.0000   XZ=             -0.0000   YZ=             -0.0000

  Exact polarizability:  12.561   0.000   7.965  -0.002   0.000  20.125
 Approx polarizability:  11.615  -0.000  10.455  -0.000   0.000  37.283

                      1                      2                      3
                     PI                     PI                     SG
 Frequencies --    505.6876               810.1232              1884.1947
 Red. masses --      1.3272                 1.3272                 5.7169
 Frc consts  --      0.2000                 0.5132                11.9582
 IR Inten    --      6.3796                19.9767                12.6380

                      4
                     SG
 Frequencies --   3237.7984
 Red. masses --      1.1574
 Frc consts  --      7.1487
 IR Inten    --    246.5787

 - Thermochemistry -
 -------------------
 Temperature   298.150 Kelvin.  Pressure   1.00000 Atm.
 Atom     1 has atomic number  6 and mass  12.00000

 Molecular mass:    25.00783 amu.
 Principal axes and moments of inertia in atomic units:
                           1         2         3
     Eigenvalues --     0.00000  43.84522  43.84522
           X           -0.00000   0.58479   0.81118
           Y            0.00000   0.81118  -0.58479
           Z            1.00000   0.00000   0.00000
 This molecule is a prolate symmetric top.
 Rotational symmetry number  1.
 Rotational temperature (Kelvin)      1.97544
 Rotational constant (GHZ):          41.161637
 Zero-point vibrational energy      38506.6 (Joules/Mol)
                                    9.20330 (Kcal/Mol)
 Warning -- explicit consideration of   1 degrees of freedom as
           vibrations may cause significant error
 Vibrational temperatures:    727.57  1165.59  2710.93  4658.46
          (Kelvin)

 Zero-point correction=                           0.014666 (Hartree/Particle)
 Thermal correction to Energy=                    0.017323
 Thermal correction to Enthalpy=                  0.018267
 Thermal correction to Gibbs Free Energy=        -0.005761
 Sum of electronic and zero-point Energies=            -76.191878
 Sum of electronic and thermal Energies=               -76.189222
 Sum of electronic and thermal Enthalpies=             -76.188277
 Sum of electronic and thermal Free Energies=          -76.212306

                     E (Thermal)             CV                S
                      KCal/Mol        Cal/Mol-Kelvin    Cal/Mol-Kelvin
 Total                   10.871              6.858             50.572
 Electronic               0.000              0.000              2.183
 Translational            0.889              2.981             35.587
 Rotational               0.592              1.987             11.957
 Vibrational              9.389              1.890              0.846
 Vibration     1          0.861              1.237              0.644

 Normal termination of Gaussian 09 at Thu Jan 24 15:32:37 2019.
