 Gaussian 09, Revision D.01,
 Gaussian 09:  ES64L-G09RevD.01 24-Apr-2013

 ---------------------------
 #p b3lyp/6-311++g(d,p) freq
 ---------------------------

 ---
 min
 ---
 Symbolic Z-matrix:
 Charge =  0 Multiplicity = 2

                         Standard orientation:
 ---------------------------------------------------------------------
 Center     Atomic      Atomic             Coordinates (Angstroms)
 Number     Number       Type             X           Y           Z
 ---------------------------------------------------------------------
      1          6           0        0.000000    0.000000    0.473671
      2          6           0       -0.000000   -0.000000   -0.730413
      3          1           0        0.000000    0.000000    1.540453
 ---------------------------------------------------------------------

 SCF Done:  E(UB3LYP) =  -76.6309418733     A.U. after   12 cycles

 The electronic state is 2-SG.
 Alpha  occ. eigenvalues --  -10.24389 -10.20063  -0.78253  -0.56210  -0.40889
 Alpha  occ. eigenvalues --   -0.32171  -0.32171
 Alpha virt. eigenvalues --    0.00239   0.00239   0.00425   0.03748   0.06563
 Alpha virt. eigenvalues --    0.06563   0.08151   0.12181   0.12818   0.12818
 Alpha virt. eigenvalues --    0.16718   0.23379   0.41570   0.45122   0.52005

  Beta  occ. eigenvalues --  -10.22220 -10.20012  -0.76306  -0.55284  -0.30780
  Beta  occ. eigenvalues --   -0.30780
  Beta virt. eigenvalues --   -0.20166   0.00553   0.02114   0.02114   0.04553
  Beta virt. eigenvalues --    0.06573   0.06573   0.08549   0.12462   0.13550
  Beta virt. eigenvalues --    0.13550   0.17432   0.23583   0.43837   0.46532

 Mulliken charges and spin densities:
               1          2
     1  C   -0.176647  -0.040742
     2  C    0.006815   1.006768
     3  H    0.169832   0.033973
 Sum of Mulliken charges =  -0.00000   1.00000

 Dipole moment (field-independent basis, Debye):
    X=              0.0000    Y=              0.0000    Z=              0.7766  Tot=              0.7766
 Quadrupole moment (field-independent basis, Debye-Ang):
   XX=            -12.9664   YY=            -12.9664   ZZ=             -8.2688
   XY=             -0.0000   XZ=              0.0000   YZ=             -0.0000

  Exact polarizability:  20.866  -0.011  20.881   0.015  -0.012  27.093
 Approx polarizability:  16.162   0.000  16.162   0.000   0.000  50.348

                      1                      2                      3
                     PI                     PI                     SG
 Frequencies --    307.3691               310.2801              2077.0824
 Red. masses --      1.3345                 1.3345                 5.6175
 Frc consts  --      0.0743                 0.0757                14.2791
 IR Inten    --     12.2817                12.0088                 5.2198

                      4
                     SG
 Frequencies --   3438.0377
 Red. masses --      1.1615
 Frc consts  --      8.0892
 IR Inten    --     58.8864

 - Thermochemistry -
 -------------------
 Temperature   298.150 Kelvin.  Pressure   1.00000 Atm.
 Atom     1 has atomic number  6 and mass  12.00000

 Molecular mass:    25.00783 amu.
 Principal axes and moments of inertia in atomic units:
                           1         2         3
     Eigenvalues --     0.00000  40.68355  40.68355
           X            0.00000   0.16430   0.98641
           Y            0.00000   0.98641  -0.16430
           Z            1.00000  -0.00000   0.00000
 This molecule is a prolate symmetric top.
 Rotational symmetry number  1.
 Rotational temperature (Kelvin)      2.12896
 Rotational constant (GHZ):          44.360462
 Zero-point vibrational energy      36682.1 (Joules/Mol)
                                    8.76723 (Kcal/Mol)
 Warning -- explicit consideration of   2 degrees of freedom as
           vibrations may cause significant error
 Vibrational temperatures:    442.24   446.42  2988.45  4946.56
          (Kelvin)

 Zero-point correction=                           0.013971 (Hartree/Particle)
 Thermal correction to Energy=                    0.017151
 Thermal correction to Enthalpy=                  0.018095
 Thermal correction to Gibbs Free Energy=        -0.006379
 Sum of electronic and zero-point Energies=            -76.616970
 Sum of electronic and thermal Energies=               -76.613791
 Sum of electronic and thermal Enthalpies=             -76.612847
 Sum of electronic and thermal Free Energies=          -76.637321

                     E (Thermal)             CV                S
                      KCal/Mol        Cal/Mol-Kelvin    Cal/Mol-Kelvin
 Total                   10.762              8.291             51.510
 Electronic               0.000              0.000              1.377
 Translational            0.889              2.981             35.587
 Rotational               0.592              1.987             11.808
 Vibrational              9.281              3.323              2.738
 Vibration     1          0.697              1.660              1.376
 Vibration     2          0.699              1.654              1.361

 Normal termination of Gaussian 09 at Sun Mar  4 20:55:28 2018.
