 Gaussian 09, Revision D.01,
 Gaussian 09:  ES64L-G09RevD.01 24-Apr-2013

 ---------------------------
 #p b3lyp/6-311++g(d,p) freq
 ---------------------------

 ---
 min
 ---
 Symbolic Z-matrix:
 Charge =  1 Multiplicity = 1

                         Standard orientation:
 ---------------------------------------------------------------------
 Center     Atomic      Atomic             Coordinates (Angstroms)
 Number     Number       Type             X           Y           Z
 ---------------------------------------------------------------------
      1          6           0        0.042576   -0.792639    0.000000
      2          6           0        0.042576    0.544380    0.000000
      3          1           0       -0.510907    1.489555    0.000000
 ---------------------------------------------------------------------

 SCF Done:  E(RB3LYP) =  -76.1520737853     A.U. after   13 cycles

 The electronic state is 1-A'.
 Alpha  occ. eigenvalues --  -10.65679 -10.64140  -1.14139  -0.89949  -0.66833
 Alpha  occ. eigenvalues --   -0.65367
 Alpha virt. eigenvalues --   -0.58761  -0.36831  -0.34431  -0.18702  -0.16084
 Alpha virt. eigenvalues --   -0.11886  -0.11510  -0.08528  -0.05411  -0.04773
 Alpha virt. eigenvalues --   -0.04726  -0.01381   0.01149   0.07596   0.22042

 Mulliken charges:
               1
     1  C    0.498198
     2  C    0.189068
     3  H    0.312734
 Sum of Mulliken charges =   1.00000

 Dipole moment (field-independent basis, Debye):
    X=              0.4728    Y=              1.8778    Z=              0.0000  Tot=              1.9364
 Quadrupole moment (field-independent basis, Debye-Ang):
   XX=             -7.8554   YY=             -5.0032   ZZ=            -10.9930
   XY=             -1.8182   XZ=              0.0000   YZ=              0.0000

  Exact polarizability:  10.625  -1.260  28.522   0.000   0.000  34.730
 Approx polarizability:  15.882  -1.053  76.032  -0.000  -0.000  15.715

                      1                      2                      3
                     A'                     A'                     A'
 Frequencies --    638.0926              1378.0634              3138.7262
 Red. masses --      1.3264                 6.4868                 1.1048
 Frc consts  --      0.3182                 7.2581                 6.4129
 IR Inten    --    156.8106                79.9672               166.1515

 - Thermochemistry -
 -------------------
 Temperature   298.150 Kelvin.  Pressure   1.00000 Atm.
 Atom     1 has atomic number  6 and mass  12.00000

 Molecular mass:    25.00783 amu.
 Principal axes and moments of inertia in atomic units:
                           1         2         3
     Eigenvalues --     0.85319  47.50119  48.35438
           X           -0.06628   0.99780   0.00000
           Y            0.99780   0.06628   0.00000
           Z           -0.00000   0.00000   1.00000
 This molecule is an asymmetric top.
 Rotational symmetry number  1.
 Rotational temperatures (Kelvin)    101.51781     1.82340     1.79123
 Rotational constants (GHZ):        2115.29038    37.99360    37.32322
 Zero-point vibrational energy      30833.0 (Joules/Mol)
                                    7.36927 (Kcal/Mol)
 Vibrational temperatures:    918.07  1982.72  4515.92
          (Kelvin)

 Zero-point correction=                           0.011744 (Hartree/Particle)
 Thermal correction to Energy=                    0.014725
 Thermal correction to Enthalpy=                  0.015669
 Thermal correction to Gibbs Free Energy=        -0.008720
 Sum of electronic and zero-point Energies=            -76.140330
 Sum of electronic and thermal Energies=               -76.137349
 Sum of electronic and thermal Enthalpies=             -76.136405
 Sum of electronic and thermal Free Energies=          -76.160794

                     E (Thermal)             CV                S
                      KCal/Mol        Cal/Mol-Kelvin    Cal/Mol-Kelvin
 Total                    9.240              7.028             51.330
 Electronic               0.000              0.000              0.000
 Translational            0.889              2.981             35.587
 Rotational               0.889              2.981             15.335
 Vibrational              7.462              1.066              0.408

 Optimization completed.
    -- Stationary point found.
 Normal termination of Gaussian 09 at Thu Jan 24 15:32:36 2019.
