 Gaussian 09, Revision D.01,
 Gaussian 09:  ES64L-G09RevD.01 24-Apr-2013

 ---------------------------
 #p b3lyp/6-311++g(d,p) freq
 ---------------------------

 ---
 min
 ---
 Symbolic Z-matrix:
 Charge =  0 Multiplicity = 2

                         Standard orientation:
 ---------------------------------------------------------------------
 Center     Atomic      Atomic             Coordinates (Angstroms)
 Number     Number       Type             X           Y           Z
 ---------------------------------------------------------------------
      1          1           0        0.000000   -0.000000    1.026821
      2          6           0        0.000000    0.636623   -0.085568
      3          6           0       -0.000000   -0.636623   -0.085568
 ---------------------------------------------------------------------

 SCF Done:  E(UB3LYP) =  -76.5938972447     A.U. after   11 cycles

 The electronic state is 2-A1.
 Alpha  occ. eigenvalues --  -10.26236 -10.26091  -0.86785  -0.45149  -0.43897
 Alpha  occ. eigenvalues --   -0.34923  -0.33662
 Alpha virt. eigenvalues --   -0.03458  -0.01193  -0.00453   0.04933   0.05412
 Alpha virt. eigenvalues --    0.06188   0.06735   0.11690   0.11957   0.12309
 Alpha virt. eigenvalues --    0.12587   0.17215   0.35577   0.37833   0.45597

  Beta  occ. eigenvalues --  -10.25305 -10.25182  -0.84438  -0.44387  -0.37230
  Beta  occ. eigenvalues --   -0.32701
  Beta virt. eigenvalues --   -0.21172  -0.01814   0.00074   0.00287   0.05236
  Beta virt. eigenvalues --    0.05678   0.06245   0.07182   0.11967   0.12136
  Beta virt. eigenvalues --    0.12628   0.13057   0.17523   0.37252   0.38219

 Mulliken charges and spin densities:
               1          2
     1  H    0.170080  -0.002135
     2  C   -0.085040   0.501067
     3  C   -0.085040   0.501067
 Sum of Mulliken charges =  -0.00000   1.00000

 Dipole moment (field-independent basis, Debye):
    X=              0.0000    Y=             -0.0000    Z=              0.9619  Tot=              0.9619
 Quadrupole moment (field-independent basis, Debye-Ang):
   XX=            -13.4880   YY=            -13.4620   ZZ=            -10.7236
   XY=             -0.0000   XZ=             -0.0000   YZ=              0.0000

  Exact polarizability:  28.712   0.000  41.486  -0.000  -0.000  18.672
 Approx polarizability:  24.588   0.000  81.797   0.000   0.000  26.791

                      1                      2                      3
                     B2                     A1                     A1
 Frequencies --    255.4162              1803.5563              2367.1924
 Red. masses --      1.1627                11.5180                 1.0503
 Frc consts  --      0.0447                22.0743                 3.4676
 IR Inten    --      3.3107                 0.6763                 5.8154

 - Thermochemistry -
 -------------------
 Temperature   298.150 Kelvin.  Pressure   1.00000 Atm.
 Atom     1 has atomic number  1 and mass   1.00783

 Molecular mass:    25.00783 amu.
 Principal axes and moments of inertia in atomic units:
                           1         2         3
     Eigenvalues --     4.27397  34.73551  39.00948
           X            0.00000   0.00000   1.00000
           Y            1.00000   0.00000  -0.00000
           Z            0.00000   1.00000   0.00000
 This molecule is an asymmetric top.
 Rotational symmetry number  2.
 Rotational temperatures (Kelvin)     20.26542     2.49352     2.22033
 Rotational constants (GHZ):         422.26332    51.95667    46.26417
 Zero-point vibrational energy      26474.3 (Joules/Mol)
                                    6.32752 (Kcal/Mol)
 Warning -- explicit consideration of   1 degrees of freedom as
           vibrations may cause significant error
 Vibrational temperatures:    367.49  2594.91  3405.86
          (Kelvin)

 Zero-point correction=                           0.010084 (Hartree/Particle)
 Thermal correction to Energy=                    0.013397
 Thermal correction to Enthalpy=                  0.014341
 Thermal correction to Gibbs Free Energy=        -0.011171
 Sum of electronic and zero-point Energies=            -76.583814
 Sum of electronic and thermal Energies=               -76.580501
 Sum of electronic and thermal Enthalpies=             -76.579557
 Sum of electronic and thermal Free Energies=          -76.605069

                     E (Thermal)             CV                S
                      KCal/Mol        Cal/Mol-Kelvin    Cal/Mol-Kelvin
 Total                    8.406              7.743             53.695
 Electronic               0.000              0.000              1.377
 Translational            0.889              2.981             35.587
 Rotational               0.889              2.981             15.034
 Vibrational              6.629              1.781              1.696
 Vibration     1          0.666              1.754              1.693

 Optimization completed.
    -- Stationary point found.
 Normal termination of Gaussian 09 at Sun Mar  4 20:55:29 2018.
