 Gaussian 09, Revision D.01,
 Gaussian 09:  ES64L-G09RevD.01 24-Apr-2013

 ---------------------------
 #p b3lyp/6-311++g(d,p) freq
 ---------------------------

 ---
 min
 ---
 Symbolic Z-matrix:
 Charge =  0 Multiplicity = 4

                         Standard orientation:
 ---------------------------------------------------------------------
 Center     Atomic      Atomic             Coordinates (Angstroms)
 Number     Number       Type             X           Y           Z
 ---------------------------------------------------------------------
      1          6           0       -0.075028    0.825952    0.000000
      2          6           0       -0.075028   -0.632230   -0.000000
      3          1           0        0.900332   -1.162332   -0.000000
 ---------------------------------------------------------------------

 SCF Done:  E(UB3LYP) =  -76.4985595775     A.U. after   13 cycles

 The electronic state is 4-A".
 Alpha  occ. eigenvalues --  -10.28570 -10.26481  -0.80095  -0.56895  -0.38741
 Alpha  occ. eigenvalues --   -0.34808  -0.34569  -0.20161
 Alpha virt. eigenvalues --   -0.08373  -0.00182   0.04584   0.05380   0.05850
 Alpha virt. eigenvalues --    0.09038   0.10103   0.10936   0.12146   0.14955
 Alpha virt. eigenvalues --    0.16886   0.25901   0.45875   0.48206   0.50037

  Beta  occ. eigenvalues --  -10.26463 -10.24129  -0.72216  -0.51302  -0.30549
  Beta virt. eigenvalues --   -0.19879  -0.18314  -0.03596  -0.00901   0.00280
  Beta virt. eigenvalues --    0.05196   0.06593   0.06887   0.09338   0.11630
  Beta virt. eigenvalues --    0.12190   0.12702   0.16564   0.17959   0.30587

 Mulliken charges and spin densities:
               1          2
     1  C   -0.073966   1.558191
     2  C   -0.054016   1.411529
     3  H    0.127983   0.030281
 Sum of Mulliken charges =  -0.00000   3.00000

 Dipole moment (field-independent basis, Debye):
    X=              0.4214    Y=             -1.6504    Z=             -0.0000  Tot=              1.7034
 Quadrupole moment (field-independent basis, Debye-Ang):
   XX=            -13.1411   YY=            -14.4245   ZZ=            -11.8176
   XY=             -1.7333   XZ=             -0.0000   YZ=             -0.0000

  Exact polarizability:  20.101   0.483  45.588  -0.000  -0.000  18.257
 Approx polarizability:  22.710   0.683  66.392   0.000   0.000  19.983

                      1                      2                      3
                     A'                     A'                     A'
 Frequencies --    862.0333              1170.9924              2879.9121
 Red. masses --      1.3260                 5.7140                 1.0814
 Frc consts  --      0.5806                 4.6164                 5.2846
 IR Inten    --    214.5112                17.8333                75.8324

 - Thermochemistry -
 -------------------
 Temperature   298.150 Kelvin.  Pressure   1.00000 Atm.
 Atom     1 has atomic number  6 and mass  12.00000

 Molecular mass:    25.00783 amu.
 Principal axes and moments of inertia in atomic units:
                           1         2         3
     Eigenvalues --     2.91192  51.40926  54.32118
           X           -0.08781   0.99614   0.00000
           Y            0.99614   0.08781   0.00000
           Z           -0.00000  -0.00000   1.00000
 This molecule is an asymmetric top.
 Rotational symmetry number  1.
 Rotational temperatures (Kelvin)     29.74457     1.68479     1.59448
 Rotational constants (GHZ):         619.77705    35.10537    33.22352
 Zero-point vibrational energy      29385.9 (Joules/Mol)
                                    7.02340 (Kcal/Mol)
 Vibrational temperatures:   1240.27  1684.79  4143.55
          (Kelvin)

 Zero-point correction=                           0.011192 (Hartree/Particle)
 Thermal correction to Energy=                    0.014106
 Thermal correction to Enthalpy=                  0.015050
 Thermal correction to Gibbs Free Energy=        -0.011224
 Sum of electronic and zero-point Energies=            -76.487367
 Sum of electronic and thermal Energies=               -76.484453
 Sum of electronic and thermal Enthalpies=             -76.483509
 Sum of electronic and thermal Free Energies=          -76.509784

                     E (Thermal)             CV                S
                      KCal/Mol        Cal/Mol-Kelvin    Cal/Mol-Kelvin
 Total                    8.852              6.740             55.299
 Electronic               0.000              0.000              2.755
 Translational            0.889              2.981             35.587
 Rotational               0.889              2.981             16.749
 Vibrational              7.074              0.779              0.209

 Optimization completed.
    -- Stationary point found.
 Normal termination of Gaussian 09 at Sun Mar  4 20:55:30 2018.
