 Gaussian 09, Revision D.01,
 Gaussian 09:  ES64L-G09RevD.01 24-Apr-2013

 ---------------------------
 #p b3lyp/6-311++g(d,p) freq
 ---------------------------

 ---
 min
 ---
 Symbolic Z-matrix:
 Charge =  0 Multiplicity = 2

                         Standard orientation:
 ---------------------------------------------------------------------
 Center     Atomic      Atomic             Coordinates (Angstroms)
 Number     Number       Type             X           Y           Z
 ---------------------------------------------------------------------
      1          6           0        0.000000    0.044071   -0.000000
      2          6           0        1.046753   -0.703267    0.000000
      3          1           0        2.113920   -0.610301   -0.000000
      4          8           0       -1.049304    0.570685   -0.000000
 ---------------------------------------------------------------------

 SCF Done:  E(UB3LYP) =  -151.974189656     A.U. after   14 cycles

 The electronic state is 2-A".
 Alpha  occ. eigenvalues --  -19.21084 -10.30164 -10.22956  -1.13854  -0.80500
 Alpha  occ. eigenvalues --   -0.56525  -0.52374  -0.48819  -0.46523  -0.30396
 Alpha  occ. eigenvalues --   -0.28380
 Alpha virt. eigenvalues --   -0.01111  -0.00613   0.01797   0.03227   0.05793
 Alpha virt. eigenvalues --    0.05893   0.08951   0.10227   0.10410   0.11190
 Alpha virt. eigenvalues --    0.14715   0.18138   0.23391   0.25822   0.26016

  Beta  occ. eigenvalues --  -19.20259 -10.30206 -10.21932  -1.12421  -0.77464
  Beta  occ. eigenvalues --   -0.55385  -0.51450  -0.46045  -0.44709  -0.26966
  Beta virt. eigenvalues --   -0.17718  -0.00896  -0.00316   0.03266   0.04200
  Beta virt. eigenvalues --    0.05958   0.07247   0.09132   0.10324   0.11480
  Beta virt. eigenvalues --    0.11785   0.14953   0.18687   0.23645   0.26159

 Mulliken charges and spin densities:
               1          2
     1  C    0.127567   0.010258
     2  C   -0.106500   0.730387
     3  H    0.168928  -0.041475
     4  O   -0.189995   0.300830
 Sum of Mulliken charges =   0.00000   1.00000

 Dipole moment (field-independent basis, Debye):
    X=              1.8378    Y=              0.2423    Z=             -0.0000  Tot=              1.8537
 Quadrupole moment (field-independent basis, Debye-Ang):
   XX=            -15.3117   YY=            -19.4713   ZZ=            -16.4290
   XY=              0.7731   XZ=              0.0000   YZ=              0.0000

  Exact polarizability:  34.496 -12.461  25.060   0.000  -0.000  16.562
 Approx polarizability:  59.699 -29.176  41.264   0.000  -0.000  17.531

                      1                      2                      3
                     A'                     A"                     A'
 Frequencies --    426.4648               502.0711               555.8251
 Red. masses --      1.2365                 4.2952                 7.6034
 Frc consts  --      0.1325                 0.6379                 1.3840
 IR Inten    --    241.5318                 2.8798                 3.7763

                      4                      5                      6
                     A'                     A'                     A'
 Frequencies --   1268.1950              2086.6363              3354.5463
 Red. masses --      7.8021                 9.7568                 1.1072
 Frc consts  --      7.3933                25.0294                 7.3407
 IR Inten    --      9.1843               344.0896                53.0019

 - Thermochemistry -
 -------------------
 Temperature   298.150 Kelvin.  Pressure   1.00000 Atm.
 Atom     1 has atomic number  6 and mass  12.00000

 Molecular mass:    41.00274 amu.
 Principal axes and moments of inertia in atomic units:
                           1         2         3
     Eigenvalues --     1.39913 165.33495 166.73408
           X            0.87022   0.49266   0.00000
           Y           -0.49266   0.87022   0.00000
           Z            0.00000  -0.00000   1.00000
 This molecule is an asymmetric top.
 Rotational symmetry number  1.
 Rotational temperatures (Kelvin)     61.90546     0.52387     0.51947
 Rotational constants (GHZ):        1289.90197    10.91567    10.82407
 Zero-point vibrational energy      49009.4 (Joules/Mol)
                                   11.71354 (Kcal/Mol)
 Warning -- explicit consideration of   3 degrees of freedom as
           vibrations may cause significant error
 Vibrational temperatures:    613.59   722.37   799.71  1824.65  3002.20
          (Kelvin)           4826.44

 Zero-point correction=                           0.018667 (Hartree/Particle)
 Thermal correction to Energy=                    0.022205
 Thermal correction to Enthalpy=                  0.023150
 Thermal correction to Gibbs Free Energy=        -0.004798
 Sum of electronic and zero-point Energies=           -151.955523
 Sum of electronic and thermal Energies=              -151.951984
 Sum of electronic and thermal Enthalpies=            -151.951040
 Sum of electronic and thermal Free Energies=         -151.978988

                     E (Thermal)             CV                S
                      KCal/Mol        Cal/Mol-Kelvin    Cal/Mol-Kelvin
 Total                   13.934              9.920             58.821
 Electronic               0.000              0.000              1.377
 Translational            0.889              2.981             37.061
 Rotational               0.889              2.981             18.296
 Vibrational             12.157              3.958              2.088
 Vibration     1          0.788              1.413              0.870
 Vibration     2          0.857              1.245              0.653
 Vibration     3          0.911              1.127              0.532

 Optimization completed.
    -- Stationary point found.
 Normal termination of Gaussian 09 at Sun Mar  4 20:56:26 2018.
