 Gaussian 09, Revision D.01,
 Gaussian 09:  ES64L-G09RevD.01 24-Apr-2013

 ---------------------------
 #p b3lyp/6-311++g(d,p) freq
 ---------------------------

 ---
 min
 ---
 Symbolic Z-matrix:
 Charge =  0 Multiplicity = 2

                         Standard orientation:
 ---------------------------------------------------------------------
 Center     Atomic      Atomic             Coordinates (Angstroms)
 Number     Number       Type             X           Y           Z
 ---------------------------------------------------------------------
      1          6           0       -0.000000    0.634991    0.000000
      2          6           0        0.988935   -0.287939    0.000000
      3          1           0       -0.340802    1.661797    0.000000
      4          8           0       -0.699101   -0.468013   -0.000000
 ---------------------------------------------------------------------

 SCF Done:  E(UB3LYP) =  -151.885034957     A.U. after   14 cycles

 The electronic state is 2-A".
 Alpha  occ. eigenvalues --  -19.22675 -10.28816 -10.26945  -1.14399  -0.74333
 Alpha  occ. eigenvalues --   -0.63001  -0.50284  -0.49341  -0.37967  -0.32461
 Alpha  occ. eigenvalues --   -0.26905
 Alpha virt. eigenvalues --   -0.05398  -0.04138  -0.00725   0.04006   0.04876
 Alpha virt. eigenvalues --    0.05080   0.08644   0.09903   0.11190   0.11302
 Alpha virt. eigenvalues --    0.15937   0.16863   0.18987   0.19536   0.20637

  Beta  occ. eigenvalues --  -19.21250 -10.28606 -10.26329  -1.12008  -0.71604
  Beta  occ. eigenvalues --   -0.62379  -0.48954  -0.43187  -0.36640  -0.31329
  Beta virt. eigenvalues --   -0.14266  -0.03279  -0.02062  -0.00705   0.04214
  Beta virt. eigenvalues --    0.05096   0.05386   0.08727   0.09966   0.11383
  Beta virt. eigenvalues --    0.11864   0.16059   0.16969   0.19582   0.20467

 Mulliken charges and spin densities:
               1          2
     1  C    0.050550   0.188562
     2  C   -0.137740   0.379863
     3  H    0.164788  -0.006841
     4  O   -0.077598   0.438416
 Sum of Mulliken charges =   0.00000   1.00000

 Dipole moment (field-independent basis, Debye):
    X=             -0.8930    Y=              2.9053    Z=              0.0000  Tot=              3.0395
 Quadrupole moment (field-independent basis, Debye-Ang):
   XX=            -19.9679   YY=            -15.7076   ZZ=            -17.0564
   XY=              0.2802   XZ=             -0.0000   YZ=             -0.0000

  Exact polarizability:  30.610  -2.317  27.036  -0.000  -0.000  17.942
 Approx polarizability:  55.077  -0.027  40.188   0.000   0.000  23.679

                      1                      2                      3
                     A'                     A"                     A'
 Frequencies --    291.0295               823.8031              1041.5322
 Red. masses --     11.5207                 1.3576                 1.5165
 Frc consts  --      0.5749                 0.5428                 0.9692
 IR Inten    --     25.6278                12.4997                18.3390

                      4                      5                      6
                     A'                     A'                     A'
 Frequencies --   1297.0428              1550.2276              3224.6043
 Red. masses --      3.6398                 6.1502                 1.1101
 Frc consts  --      3.6078                 8.7082                 6.8006
 IR Inten    --      4.7969                30.2964                 5.4499

 - Thermochemistry -
 -------------------
 Temperature   298.150 Kelvin.  Pressure   1.00000 Atm.
 Atom     1 has atomic number  6 and mass  12.00000

 Molecular mass:    41.00274 amu.
 Principal axes and moments of inertia in atomic units:
                           1         2         3
     Eigenvalues --    42.32115  70.95847 113.27962
           X            0.98727  -0.15905  -0.00000
           Y            0.15905   0.98727  -0.00000
           Z            0.00000   0.00000   1.00000
 This molecule is an asymmetric top.
 Rotational symmetry number  1.
 Rotational temperatures (Kelvin)      2.04658     1.22063     0.76460
 Rotational constants (GHZ):          42.64396    25.43377    15.93174
 Zero-point vibrational energy      49215.8 (Joules/Mol)
                                   11.76286 (Kcal/Mol)
 Warning -- explicit consideration of   1 degrees of freedom as
           vibrations may cause significant error
 Vibrational temperatures:    418.73  1185.27  1498.53  1866.15  2230.43
          (Kelvin)           4639.48

 Zero-point correction=                           0.018745 (Hartree/Particle)
 Thermal correction to Energy=                    0.022128
 Thermal correction to Enthalpy=                  0.023072
 Thermal correction to Gibbs Free Energy=        -0.005754
 Sum of electronic and zero-point Energies=           -151.866290
 Sum of electronic and thermal Energies=              -151.862907
 Sum of electronic and thermal Enthalpies=            -151.861963
 Sum of electronic and thermal Free Energies=         -151.890789

                     E (Thermal)             CV                S
                      KCal/Mol        Cal/Mol-Kelvin    Cal/Mol-Kelvin
 Total                   13.885              8.811             60.670
 Electronic               0.000              0.000              1.377
 Translational            0.889              2.981             37.061
 Rotational               0.889              2.981             20.459
 Vibrational             12.108              2.849              1.773
 Vibration     1          0.687              1.690              1.468

 Optimization completed.
    -- Stationary point found.
 Normal termination of Gaussian 09 at Sun Mar  4 20:56:29 2018.
