 Gaussian 09, Revision D.01,
 Gaussian 09:  ES64L-G09RevD.01 24-Apr-2013

 ---------------------------
 #p b3lyp/6-311++g(d,p) freq
 ---------------------------

 ---
 min
 ---
 Symbolic Z-matrix:
 Charge =  0 Multiplicity = 4

                         Standard orientation:
 ---------------------------------------------------------------------
 Center     Atomic      Atomic             Coordinates (Angstroms)
 Number     Number       Type             X           Y           Z
 ---------------------------------------------------------------------
      1          6           0        1.258339    0.056837   -0.000000
      2          6           0       -1.078001   -0.364843    0.000000
      3          1           0       -1.082025   -1.454248   -0.000000
      4          8           0        0.000000    0.412785    0.000000
 ---------------------------------------------------------------------

 SCF Done:  E(UB3LYP) =  -151.777812639     A.U. after   13 cycles

 The electronic state is 4-A".
 Alpha  occ. eigenvalues --  -19.27237 -10.30681 -10.27336  -1.18555  -0.80757
 Alpha  occ. eigenvalues --   -0.63398  -0.51817  -0.51421  -0.40376  -0.32323
 Alpha  occ. eigenvalues --   -0.26119  -0.21327
 Alpha virt. eigenvalues --   -0.08240  -0.00148   0.02976   0.05046   0.05765
 Alpha virt. eigenvalues --    0.06706   0.08499   0.09793   0.10970   0.12794
 Alpha virt. eigenvalues --    0.14547   0.19267   0.22001   0.24206   0.29082

  Beta  occ. eigenvalues --  -19.26968 -10.27640 -10.25462  -1.17032  -0.75967
  Beta  occ. eigenvalues --   -0.59003  -0.49346  -0.47902  -0.34559
  Beta virt. eigenvalues --   -0.14174  -0.10444  -0.05334  -0.03960   0.00583
  Beta virt. eigenvalues --    0.03474   0.06290   0.07638   0.07915   0.09699
  Beta virt. eigenvalues --    0.10486   0.11500   0.13818   0.15913   0.21820

 Mulliken charges and spin densities:
               1          2
     1  C   -0.252227   1.217895
     2  C   -0.054324   1.811902
     3  H    0.163070   0.056969
     4  O    0.143481  -0.086766
 Sum of Mulliken charges =  -0.00000   3.00000

 Dipole moment (field-independent basis, Debye):
    X=             -2.0859    Y=             -1.0904    Z=             -0.0000  Tot=              2.3537
 Quadrupole moment (field-independent basis, Debye-Ang):
   XX=            -21.3191   YY=            -16.8784   ZZ=            -17.4039
   XY=              1.3122   XZ=              0.0000   YZ=             -0.0000

  Exact polarizability:  44.783   5.525  25.165   0.000   0.000  18.796
 Approx polarizability:  63.512   6.417  30.045  -0.000   0.000  24.709

                      1                      2                      3
                     A"                     A'                     A'
 Frequencies --    409.7564               457.3990              1000.9289
 Red. masses --      1.5588                 4.3655                 3.5507
 Frc consts  --      0.1542                 0.5381                 2.0959
 IR Inten    --     17.1111                 8.4983                12.7135

                      4                      5                      6
                     A'                     A'                     A'
 Frequencies --   1098.3016              1147.3806              3118.5982
 Red. masses --      1.7780                10.7272                 1.0854
 Frc consts  --      1.2636                 8.3205                 6.2193
 IR Inten    --      4.0439                79.1835                 2.1075

 - Thermochemistry -
 -------------------
 Temperature   298.150 Kelvin.  Pressure   1.00000 Atm.
 Atom     1 has atomic number  6 and mass  12.00000

 Molecular mass:    41.00274 amu.
 Principal axes and moments of inertia in atomic units:
                           1         2         3
     Eigenvalues --    16.83436 127.93705 144.77141
           X            0.97183  -0.23568   0.00000
           Y            0.23568   0.97183   0.00000
           Z            0.00000  -0.00000   1.00000
 This molecule is an asymmetric top.
 Rotational symmetry number  1.
 Rotational temperatures (Kelvin)      5.14506     0.67700     0.59828
 Rotational constants (GHZ):         107.20580    14.10648    12.46614
 Zero-point vibrational energy      43259.1 (Joules/Mol)
                                   10.33918 (Kcal/Mol)
 Warning -- explicit consideration of   2 degrees of freedom as
           vibrations may cause significant error
 Vibrational temperatures:    589.55   658.09  1440.11  1580.21  1650.82
          (Kelvin)           4486.96

 Zero-point correction=                           0.016477 (Hartree/Particle)
 Thermal correction to Energy=                    0.019949
 Thermal correction to Enthalpy=                  0.020893
 Thermal correction to Gibbs Free Energy=        -0.008610
 Sum of electronic and zero-point Energies=           -151.761336
 Sum of electronic and thermal Energies=              -151.757863
 Sum of electronic and thermal Enthalpies=            -151.756919
 Sum of electronic and thermal Free Energies=         -151.786423

                     E (Thermal)             CV                S
                      KCal/Mol        Cal/Mol-Kelvin    Cal/Mol-Kelvin
 Total                   12.518              9.655             62.096
 Electronic               0.000              0.000              2.755
 Translational            0.889              2.981             37.061
 Rotational               0.889              2.981             20.372
 Vibrational             10.741              3.693              1.909
 Vibration     1          0.774              1.449              0.927
 Vibration     2          0.816              1.345              0.774

 Optimization completed.
    -- Stationary point found.
 Normal termination of Gaussian 09 at Sun Mar  4 20:56:27 2018.
