 Gaussian 09, Revision D.01,
 Gaussian 09:  ES64L-G09RevD.01 24-Apr-2013

 ---------------------------
 #p b3lyp/6-311++g(d,p) freq
 ---------------------------

 ---
 min
 ---
 Symbolic Z-matrix:
 Charge =  1 Multiplicity = 1

                         Standard orientation:
 ---------------------------------------------------------------------
 Center     Atomic      Atomic             Coordinates (Angstroms)
 Number     Number       Type             X           Y           Z
 ---------------------------------------------------------------------
      1          6           0       -0.417291    1.465239   -0.000000
      2          6           0       -0.000000    0.158931   -0.000000
      3          1           0        1.115835   -1.371998    0.000000
      4          8           0        0.173489   -1.046627    0.000000
 ---------------------------------------------------------------------

 SCF Done:  E(RB3LYP) =  -151.479660843     A.U. after   11 cycles

 The electronic state is 1-A'.
 Alpha  occ. eigenvalues --  -19.59027 -10.62673 -10.58453  -1.50094  -1.08741
 Alpha  occ. eigenvalues --   -0.99858  -0.82875  -0.80110  -0.60932  -0.58154
 Alpha virt. eigenvalues --   -0.50271  -0.29566  -0.26588  -0.26576  -0.15930
 Alpha virt. eigenvalues --   -0.11918  -0.11251  -0.08995  -0.07052  -0.06650
 Alpha virt. eigenvalues --   -0.04782  -0.03314  -0.01095   0.01749   0.04987

 Mulliken charges:
               1
     1  C    0.309538
     2  C    0.223043
     3  H    0.402073
     4  O    0.065346
 Sum of Mulliken charges =   1.00000

 Dipole moment (field-independent basis, Debye):
    X=              2.1808    Y=             -1.7923    Z=             -0.0000  Tot=              2.8228
 Quadrupole moment (field-independent basis, Debye-Ang):
   XX=            -12.6455   YY=            -11.4640   ZZ=            -13.1397
   XY=             -4.1562   XZ=              0.0000   YZ=              0.0000

  Exact polarizability:  17.151  -6.817  33.561   0.000   0.000  13.746
 Approx polarizability:  24.287 -13.774  60.714   0.000  -0.000  20.475

                      1                      2                      3
                     A"                     A'                     A'
 Frequencies --    100.7509               286.2607              1040.7716
 Red. masses --      5.1266                 6.2059                 7.3510
 Frc consts  --      0.0307                 0.2996                 4.6915
 IR Inten    --      8.6353                14.0113                63.6860

                      4                      5                      6
                     A'                     A'                     A'
 Frequencies --   1171.4630              1966.7936              3382.2806
 Red. masses --      1.2735                10.8923                 1.0669
 Frc consts  --      1.0297                24.8250                 7.1909
 IR Inten    --    249.1720                 5.2069               416.8079

 - Thermochemistry -
 -------------------
 Temperature   298.150 Kelvin.  Pressure   1.00000 Atm.
 Atom     1 has atomic number  6 and mass  12.00000

 Molecular mass:    41.00274 amu.
 Principal axes and moments of inertia in atomic units:
                           1         2         3
     Eigenvalues --     2.53739 173.28380 175.82119
           X           -0.25402   0.96720   0.00000
           Y            0.96720   0.25402   0.00000
           Z           -0.00000  -0.00000   1.00000
 This molecule is an asymmetric top.
 Rotational symmetry number  1.
 Rotational temperatures (Kelvin)     34.13498     0.49984     0.49262
 Rotational constants (GHZ):         711.25851    10.41494    10.26464
 Zero-point vibrational energy      47541.5 (Joules/Mol)
                                   11.36269 (Kcal/Mol)
 Warning -- explicit consideration of   2 degrees of freedom as
           vibrations may cause significant error
 Vibrational temperatures:    144.96   411.86  1497.44  1685.47  2829.77
          (Kelvin)           4866.34

 Zero-point correction=                           0.018108 (Hartree/Particle)
 Thermal correction to Energy=                    0.022162
 Thermal correction to Enthalpy=                  0.023106
 Thermal correction to Gibbs Free Energy=        -0.005929
 Sum of electronic and zero-point Energies=           -151.461553
 Sum of electronic and thermal Energies=              -151.457499
 Sum of electronic and thermal Enthalpies=            -151.456555
 Sum of electronic and thermal Free Energies=         -151.485590

                     E (Thermal)             CV                S
                      KCal/Mol        Cal/Mol-Kelvin    Cal/Mol-Kelvin
 Total                   13.907             10.182             61.110
 Electronic               0.000              0.000              0.000
 Translational            0.889              2.981             37.061
 Rotational               0.889              2.981             18.986
 Vibrational             12.129              4.220              5.063
 Vibration     1          0.604              1.949              3.440
 Vibration     2          0.684              1.699              1.496

 Optimization completed.
    -- Stationary point found.
 Normal termination of Gaussian 09 at Thu Jan 24 15:35:19 2019.
