 Gaussian 09, Revision D.01,
 Gaussian 09:  ES64L-G09RevD.01 24-Apr-2013

 ---------------------------
 #p b3lyp/6-311++g(d,p) freq
 ---------------------------

 ---
 min
 ---
 Symbolic Z-matrix:
 Charge =  1 Multiplicity = 3

                         Standard orientation:
 ---------------------------------------------------------------------
 Center     Atomic      Atomic             Coordinates (Angstroms)
 Number     Number       Type             X           Y           Z
 ---------------------------------------------------------------------
      1          6           0        0.197336   -1.187433   -0.000000
      2          6           0       -0.395712    1.264436    0.000000
      3          1           0        1.190253   -1.643171   -0.000000
      4          8           0       -0.000000    0.147644    0.000000
 ---------------------------------------------------------------------

 SCF Done:  E(UB3LYP) =  -151.484699292     A.U. after   15 cycles

 The electronic state is 3-A".
 Alpha  occ. eigenvalues --  -19.61529 -10.64601 -10.61458  -1.53850  -1.18472
 Alpha  occ. eigenvalues --   -0.87996  -0.84976  -0.84767  -0.68043  -0.61734
 Alpha  occ. eigenvalues --   -0.55805
 Alpha virt. eigenvalues --   -0.35781  -0.34708  -0.20114  -0.17861  -0.12074
 Alpha virt. eigenvalues --   -0.10920  -0.10705  -0.07991  -0.06667  -0.05923
 Alpha virt. eigenvalues --   -0.02741  -0.02099  -0.01208   0.04327   0.04606

  Beta  occ. eigenvalues --  -19.61756 -10.63955 -10.58324  -1.53362  -1.15520
  Beta  occ. eigenvalues --   -0.85574  -0.83980  -0.81394  -0.66562
  Beta virt. eigenvalues --   -0.42787  -0.39680  -0.32492  -0.29094  -0.17430
  Beta virt. eigenvalues --   -0.17106  -0.10986  -0.09786  -0.09529  -0.06882
  Beta virt. eigenvalues --   -0.05979  -0.05241  -0.02259  -0.01536  -0.00057

 Mulliken charges and spin densities:
               1          2
     1  C    0.135636   1.797069
     2  C    0.151979   0.362132
     3  H    0.276689   0.011665
     4  O    0.435696  -0.170866
 Sum of Mulliken charges =   1.00000   2.00000

 Dipole moment (field-independent basis, Debye):
    X=              0.9914    Y=             -1.3998    Z=             -0.0000  Tot=              1.7153
 Quadrupole moment (field-independent basis, Debye-Ang):
   XX=            -12.2580   YY=             -8.9832   ZZ=            -14.7240
   XY=             -2.8892   XZ=             -0.0000   YZ=             -0.0000

  Exact polarizability:  16.361  -6.981  37.106   0.000   0.000  13.463
 Approx polarizability:  22.185 -11.869  63.437  -0.000   0.000  17.733

                      1                      2                      3
                     A'                     A"                     A'
 Frequencies --    256.2608               307.5745               796.3106
 Red. masses --      6.7759                 4.3723                 7.0814
 Frc consts  --      0.2622                 0.2437                 2.6456
 IR Inten    --      8.1551                14.3436                 6.4389

                      4                      5                      6
                     A'                     A'                     A'
 Frequencies --   1030.8874              1657.9202              3131.6462
 Red. masses --      1.2812                11.6907                 1.0901
 Frc consts  --      0.8022                18.9330                 6.2988
 IR Inten    --     24.6354                46.6922               160.4956

 - Thermochemistry -
 -------------------
 Temperature   298.150 Kelvin.  Pressure   1.00000 Atm.
 Atom     1 has atomic number  6 and mass  12.00000

 Molecular mass:    41.00274 amu.
 Principal axes and moments of inertia in atomic units:
                           1         2         3
     Eigenvalues --     2.62216 150.40055 153.02271
           X           -0.26951   0.96300  -0.00000
           Y            0.96300   0.26951  -0.00000
           Z            0.00000   0.00000   1.00000
 This molecule is an asymmetric top.
 Rotational symmetry number  1.
 Rotational temperatures (Kelvin)     33.03150     0.57589     0.56602
 Rotational constants (GHZ):         688.26565    11.99957    11.79394
 Zero-point vibrational energy      42949.5 (Joules/Mol)
                                   10.26518 (Kcal/Mol)
 Warning -- explicit consideration of   2 degrees of freedom as
           vibrations may cause significant error
 Vibrational temperatures:    368.70   442.53  1145.71  1483.22  2385.37
          (Kelvin)           4505.73

 Zero-point correction=                           0.016359 (Hartree/Particle)
 Thermal correction to Energy=                    0.020194
 Thermal correction to Enthalpy=                  0.021139
 Thermal correction to Gibbs Free Energy=        -0.008009
 Sum of electronic and zero-point Energies=           -151.468341
 Sum of electronic and thermal Energies=              -151.464505
 Sum of electronic and thermal Enthalpies=            -151.463561
 Sum of electronic and thermal Free Energies=         -151.492708

                     E (Thermal)             CV                S
                      KCal/Mol        Cal/Mol-Kelvin    Cal/Mol-Kelvin
 Total                   12.672             10.417             61.345
 Electronic               0.000              0.000              2.183
 Translational            0.889              2.981             37.061
 Rotational               0.889              2.981             18.740
 Vibrational             10.895              4.456              3.361
 Vibration     1          0.666              1.752              1.687
 Vibration     2          0.697              1.659              1.375

 Optimization completed.
    -- Stationary point found.
 Normal termination of Gaussian 09 at Thu Jan 24 15:35:58 2019.
