 Gaussian 09, Revision D.01,
 Gaussian 09:  ES64L-G09RevD.01 24-Apr-2013

 ---------------------------
 #p b3lyp/6-311++g(d,p) freq
 ---------------------------

 ---
 min
 ---
 Symbolic Z-matrix:
 Charge =  1 Multiplicity = 1

                         Standard orientation:
 ---------------------------------------------------------------------
 Center     Atomic      Atomic             Coordinates (Angstroms)
 Number     Number       Type             X           Y           Z
 ---------------------------------------------------------------------
      1          6           0       -1.349447   -0.086781    0.000314
      2          6           0        1.338818   -0.233823    0.000064
      3          1           0        1.699950    0.823887    0.000822
      4          8           0       -0.204522    0.137467   -0.000386
 ---------------------------------------------------------------------

 SCF Done:  E(RB3LYP) =  -151.485743415     A.U. after   11 cycles

 The electronic state is 1-A.
 Alpha  occ. eigenvalues --  -19.57559 -10.65176 -10.63171  -1.49753  -1.09372
 Alpha  occ. eigenvalues --   -0.85616  -0.81432  -0.80678  -0.66191  -0.59993
 Alpha virt. eigenvalues --   -0.45393  -0.35885  -0.32270  -0.27391  -0.19009
 Alpha virt. eigenvalues --   -0.12272  -0.10670  -0.10246  -0.07895  -0.06925
 Alpha virt. eigenvalues --   -0.05618  -0.04326  -0.02932  -0.01386   0.02962

 Mulliken charges:
               1
     1  C    0.216749
     2  C    0.276246
     3  H    0.233984
     4  O    0.273021
 Sum of Mulliken charges =   1.00000

 Dipole moment (field-independent basis, Debye):
    X=              1.8120    Y=              1.1590    Z=              0.0015  Tot=              2.1509
 Quadrupole moment (field-independent basis, Debye-Ang):
   XX=             -7.4940   YY=            -15.1192   ZZ=            -13.6290
   XY=              2.2268   XZ=              0.0023   YZ=             -0.0002

  Exact polarizability:  35.253   0.426  17.100  -0.001   0.001  15.427
 Approx polarizability:  54.960   0.480  22.894  -0.005  -0.002  23.340

                      1                      2                      3
                      A                      A                      A
 Frequencies --    222.2535               245.2123               376.4610
 Red. masses --      2.1617                 8.9197                11.8477
 Frc consts  --      0.0629                 0.3160                 0.9893
 IR Inten    --     53.2166                10.2909               188.7124

                      4                      5                      6
                      A                      A                      A
 Frequencies --   1257.0524              1887.2745              2947.0087
 Red. masses --      1.1151                12.3113                 1.0874
 Frc consts  --      1.0381                25.8359                 5.5641
 IR Inten    --     26.6023               476.9128                 5.8730

 - Thermochemistry -
 -------------------
 Temperature   298.150 Kelvin.  Pressure   1.00000 Atm.
 Atom     1 has atomic number  6 and mass  12.00000

 Molecular mass:    41.00274 amu.
 Principal axes and moments of inertia in atomic units:
                           1         2         3
     Eigenvalues --     5.96970 167.54841 173.51808
           X            0.99950   0.03147   0.00004
           Y           -0.03147   0.99950   0.00044
           Z           -0.00003  -0.00044   1.00000
 This molecule is an asymmetric top.
 Rotational symmetry number  1.
 Rotational temperatures (Kelvin)     14.50890     0.51695     0.49916
 Rotational constants (GHZ):         302.31676    10.77146    10.40088
 Zero-point vibrational energy      41482.1 (Joules/Mol)
                                    9.91446 (Kcal/Mol)
 Warning -- explicit consideration of   3 degrees of freedom as
           vibrations may cause significant error
 Vibrational temperatures:    319.77   352.81   541.64  1808.62  2715.36
          (Kelvin)           4240.08

 Zero-point correction=                           0.015800 (Hartree/Particle)
 Thermal correction to Energy=                    0.019999
 Thermal correction to Enthalpy=                  0.020944
 Thermal correction to Gibbs Free Energy=        -0.008346
 Sum of electronic and zero-point Energies=           -151.469944
 Sum of electronic and thermal Energies=              -151.465744
 Sum of electronic and thermal Enthalpies=            -151.464800
 Sum of electronic and thermal Free Energies=         -151.494089

                     E (Thermal)             CV                S
                      KCal/Mol        Cal/Mol-Kelvin    Cal/Mol-Kelvin
 Total                   12.550             11.249             61.644
 Electronic               0.000              0.000              0.000
 Translational            0.889              2.981             37.061
 Rotational               0.889              2.981             19.790
 Vibrational             10.772              5.287              4.794
 Vibration     1          0.648              1.807              1.941
 Vibration     2          0.660              1.771              1.765
 Vibration     3          0.747              1.520              1.053

 Optimization completed.
    -- Stationary point found.
 Normal termination of Gaussian 09 at Thu Jan 24 15:35:56 2019.
