 Gaussian 09, Revision D.01,
 Gaussian 09:  ES64L-G09RevD.01 24-Apr-2013

 ---------------------------
 #p b3lyp/6-311++g(d,p) freq
 ---------------------------

 ---
 min
 ---
 Symbolic Z-matrix:
 Charge =  0 Multiplicity = 4

                         Standard orientation:
 ---------------------------------------------------------------------
 Center     Atomic      Atomic             Coordinates (Angstroms)
 Number     Number       Type             X           Y           Z
 ---------------------------------------------------------------------
      1          6           0        0.000000    0.543497    0.000000
      2          6           0        1.377730    0.106518    0.000000
      3          1           0       -0.606433   -1.252556   -0.000000
      4          8           0       -0.957494   -0.330942   -0.000000
 ---------------------------------------------------------------------

 SCF Done:  E(UB3LYP) =  -151.795979875     A.U. after   14 cycles

 The electronic state is 4-A".
 Alpha  occ. eigenvalues --  -19.25139 -10.31874 -10.24778  -1.16974  -0.78072
 Alpha  occ. eigenvalues --   -0.68069  -0.51102  -0.49418  -0.39127  -0.32024
 Alpha  occ. eigenvalues --   -0.29409  -0.22350
 Alpha virt. eigenvalues --   -0.04873  -0.01924   0.03764   0.05359   0.05670
 Alpha virt. eigenvalues --    0.08426   0.08838   0.09502   0.10749   0.10763
 Alpha virt. eigenvalues --    0.16474   0.18225   0.20203   0.25753   0.26929

  Beta  occ. eigenvalues --  -19.24253 -10.30284 -10.22265  -1.14803  -0.72133
  Beta  occ. eigenvalues --   -0.64234  -0.47724  -0.45510  -0.30835
  Beta virt. eigenvalues --   -0.16638  -0.16206  -0.07700   0.00274   0.01774
  Beta virt. eigenvalues --    0.04394   0.06250   0.06338   0.08732   0.09691
  Beta virt. eigenvalues --    0.10859   0.11587   0.11951   0.17049   0.18714

 Mulliken charges and spin densities:
               1          2
     1  C   -0.037860   1.008469
     2  C   -0.194969   1.762740
     3  H    0.236041   0.122394
     4  O   -0.003212   0.106397
 Sum of Mulliken charges =  -0.00000   3.00000

 Dipole moment (field-independent basis, Debye):
    X=             -1.5609    Y=             -1.2362    Z=             -0.0000  Tot=              1.9911
 Quadrupole moment (field-independent basis, Debye-Ang):
   XX=            -22.6733   YY=            -16.3405   ZZ=            -17.5790
   XY=              1.7941   XZ=             -0.0000   YZ=              0.0000

  Exact polarizability:  48.459  -2.404  34.121   0.000  -0.000  19.754
 Approx polarizability:  79.734  -5.929  44.861   0.000   0.000  25.451

                      1                      2                      3
                     A'                     A"                     A'
 Frequencies --    493.9065               602.3141              1019.4762
 Red. masses --      4.1420                 1.3649                 3.3208
 Frc consts  --      0.5953                 0.2917                 2.0335
 IR Inten    --     35.0268                88.1243                47.4589

                      4                      5                      6
                     A'                     A'                     A'
 Frequencies --   1151.4456              1316.2107              3425.5418
 Red. masses --      1.7620                12.8519                 1.0605
 Frc consts  --      1.3764                13.1180                 7.3319
 IR Inten    --     91.3602               283.2578                10.9427

 - Thermochemistry -
 -------------------
 Temperature   298.150 Kelvin.  Pressure   1.00000 Atm.
 Atom     1 has atomic number  6 and mass  12.00000

 Molecular mass:    41.00274 amu.
 Principal axes and moments of inertia in atomic units:
                           1         2         3
     Eigenvalues --    18.62155 141.28869 159.91023
           X            0.97402  -0.22645  -0.00000
           Y            0.22645   0.97402  -0.00000
           Z            0.00000  -0.00000   1.00000
 This molecule is an asymmetric top.
 Rotational symmetry number  1.
 Rotational temperatures (Kelvin)      4.65127     0.61303     0.54164
 Rotational constants (GHZ):          96.91683    12.77343    11.28596
 Zero-point vibrational energy      47903.8 (Joules/Mol)
                                   11.44929 (Kcal/Mol)
 Warning -- explicit consideration of   2 degrees of freedom as
           vibrations may cause significant error
 Vibrational temperatures:    710.62   866.59  1466.80  1656.67  1893.73
          (Kelvin)           4928.58

 Zero-point correction=                           0.018246 (Hartree/Particle)
 Thermal correction to Energy=                    0.021530
 Thermal correction to Enthalpy=                  0.022475
 Thermal correction to Gibbs Free Energy=        -0.006873
 Sum of electronic and zero-point Energies=           -151.777734
 Sum of electronic and thermal Energies=              -151.774449
 Sum of electronic and thermal Enthalpies=            -151.773505
 Sum of electronic and thermal Free Energies=         -151.802853

                     E (Thermal)             CV                S
                      KCal/Mol        Cal/Mol-Kelvin    Cal/Mol-Kelvin
 Total                   13.511              8.988             61.767
 Electronic               0.000              0.000              2.755
 Translational            0.889              2.981             37.061
 Rotational               0.889              2.981             20.670
 Vibrational             11.733              3.026              1.282
 Vibration     1          0.850              1.264              0.674
 Vibration     2          0.961              1.027              0.446

 Optimization completed.
    -- Stationary point found.
 Normal termination of Gaussian 09 at Sun Mar  4 20:56:27 2018.
