 Gaussian 09, Revision D.01,
 Gaussian 09:  ES64L-G09RevD.01 24-Apr-2013

 ---------------------------
 #p b3lyp/6-311++g(d,p) freq
 ---------------------------

 ---
 min
 ---
 Symbolic Z-matrix:
 Charge =  0 Multiplicity = 4

                         Standard orientation:
 ---------------------------------------------------------------------
 Center     Atomic      Atomic             Coordinates (Angstroms)
 Number     Number       Type             X           Y           Z
 ---------------------------------------------------------------------
      1          6           0       -0.412426    0.789537    0.044015
      2          6           0        0.804628    0.019893   -0.149467
      3          1           0        1.596536   -0.258375    0.546772
      4          8           0       -0.493719   -0.574775    0.010743
 ---------------------------------------------------------------------

 SCF Done:  E(UB3LYP) =  -151.778285594     A.U. after   13 cycles

 The electronic state is 4-A.
 Alpha  occ. eigenvalues --  -19.23268 -10.29572 -10.28072  -1.16841  -0.71174
 Alpha  occ. eigenvalues --   -0.63654  -0.53312  -0.48769  -0.41524  -0.35356
 Alpha  occ. eigenvalues --   -0.28105  -0.19980
 Alpha virt. eigenvalues --   -0.00024   0.01554   0.03725   0.05188   0.05904
 Alpha virt. eigenvalues --    0.08939   0.09612   0.10569   0.12222   0.15715
 Alpha virt. eigenvalues --    0.16159   0.17575   0.19524   0.20368   0.25511

  Beta  occ. eigenvalues --  -19.22005 -10.27788 -10.25157  -1.14085  -0.66607
  Beta  occ. eigenvalues --   -0.59034  -0.48638  -0.41825  -0.37395
  Beta virt. eigenvalues --   -0.17831  -0.11662  -0.02135   0.00318   0.02432
  Beta virt. eigenvalues --    0.04721   0.06322   0.07920   0.09216   0.11451
  Beta virt. eigenvalues --    0.12380   0.13365   0.16491   0.17286   0.19567

 Mulliken charges and spin densities:
               1          2
     1  C   -0.108361   1.643596
     2  C   -0.072603   1.014456
     3  H    0.162734   0.029518
     4  O    0.018230   0.312431
 Sum of Mulliken charges =  -0.00000   3.00000

 Dipole moment (field-independent basis, Debye):
    X=              1.1261    Y=              0.0183    Z=              0.6031  Tot=              1.2775
 Quadrupole moment (field-independent basis, Debye-Ang):
   XX=            -15.5376   YY=            -18.2613   ZZ=            -18.0268
   XY=             -0.8311   XZ=              1.0401   YZ=             -0.1369

  Exact polarizability:  27.863  -3.788  24.596  -0.053   0.243  19.045
 Approx polarizability:  38.438  -3.030  36.091  -0.823   0.253  22.452

                      1                      2                      3
                      A                      A                      A
 Frequencies --    735.1206               919.2829              1005.8562
 Red. masses --     12.0094                 1.3834                 1.9245
 Frc consts  --      3.8238                 0.6888                 1.1472
 IR Inten    --     20.5806                29.9561                32.6642

                      4                      5                      6
                      A                      A                      A
 Frequencies --   1050.7503              1363.6874              3089.2350
 Red. masses --      1.9309                10.2752                 1.0895
 Frc consts  --      1.2560                11.2582                 6.1260
 IR Inten    --     65.2753                27.8032                21.4032

 - Thermochemistry -
 -------------------
 Temperature   298.150 Kelvin.  Pressure   1.00000 Atm.
 Atom     1 has atomic number  6 and mass  12.00000

 Molecular mass:    41.00274 amu.
 Principal axes and moments of inertia in atomic units:
                           1         2         3
     Eigenvalues --    47.58090  60.17299 103.93391
           X            0.99164  -0.11584   0.05683
           Y            0.11679   0.99306  -0.01359
           Z           -0.05486   0.02011   0.99829
 This molecule is an asymmetric top.
 Rotational symmetry number  1.
 Rotational temperatures (Kelvin)      1.82035     1.43941     0.83335
 Rotational constants (GHZ):          37.92995    29.99255    17.36432
 Zero-point vibrational energy      48831.2 (Joules/Mol)
                                   11.67093 (Kcal/Mol)
 Vibrational temperatures:   1057.67  1322.64  1447.20  1511.79  1962.04
          (Kelvin)           4444.71

 Zero-point correction=                           0.018599 (Hartree/Particle)
 Thermal correction to Energy=                    0.021656
 Thermal correction to Enthalpy=                  0.022600
 Thermal correction to Gibbs Free Energy=        -0.006253
 Sum of electronic and zero-point Energies=           -151.759687
 Sum of electronic and thermal Energies=              -151.756630
 Sum of electronic and thermal Enthalpies=            -151.755686
 Sum of electronic and thermal Free Energies=         -151.784539

                     E (Thermal)             CV                S
                      KCal/Mol        Cal/Mol-Kelvin    Cal/Mol-Kelvin
 Total                   13.589              8.015             60.726
 Electronic               0.000              0.000              2.755
 Translational            0.889              2.981             37.061
 Rotational               0.889              2.981             20.326
 Vibrational             11.812              2.053              0.585

 Optimization completed.
    -- Stationary point found.
 Normal termination of Gaussian 09 at Sun Mar  4 20:56:38 2018.
