 Gaussian 09, Revision D.01,
 Gaussian 09:  ES64L-G09RevD.01 24-Apr-2013

 ---------------------------
 #p b3lyp/6-311++g(d,p) freq
 ---------------------------

 ---
 min
 ---
 Symbolic Z-matrix:
 Charge =  1 Multiplicity = 1

                         Standard orientation:
 ---------------------------------------------------------------------
 Center     Atomic      Atomic             Coordinates (Angstroms)
 Number     Number       Type             X           Y           Z
 ---------------------------------------------------------------------
      1          6           0       -0.000000    0.097319   -0.000000
      2          6           0        0.895482   -0.970478    0.000000
      3          1           0        1.981123   -0.810324    0.000000
      4          8           0       -0.919252    0.756159   -0.000000
 ---------------------------------------------------------------------

 SCF Done:  E(RB3LYP) =  -151.564996246     A.U. after   11 cycles

 The electronic state is 1-A'.
 Alpha  occ. eigenvalues --  -19.55513 -10.64210 -10.61347  -1.47957  -1.10722
 Alpha  occ. eigenvalues --   -0.86269  -0.82390  -0.78999  -0.77914  -0.59421
 Alpha virt. eigenvalues --   -0.51130  -0.32260  -0.27290  -0.21473  -0.14057
 Alpha virt. eigenvalues --   -0.11675  -0.11604  -0.10232  -0.07043  -0.06377
 Alpha virt. eigenvalues --   -0.05741  -0.02984  -0.01548   0.01527   0.07084

 Mulliken charges:
               1
     1  C    0.275468
     2  C    0.335827
     3  H    0.270132
     4  O    0.118573
 Sum of Mulliken charges =   1.00000

 Dipole moment (field-independent basis, Debye):
    X=              3.2221    Y=             -0.9193    Z=              0.0000  Tot=              3.3506
 Quadrupole moment (field-independent basis, Debye-Ang):
   XX=             -8.0954   YY=            -14.5222   ZZ=            -12.8260
   XY=             -3.1006   XZ=             -0.0000   YZ=             -0.0000

  Exact polarizability:  23.713 -10.469  23.891  -0.000  -0.000  12.704
 Approx polarizability:  41.627 -25.797  45.119   0.000  -0.000  17.057

                      1                      2                      3
                     A"                     A'                     A'
 Frequencies --    372.3526               484.4341               631.2653
 Red. masses --      3.4813                 3.7541                 1.9414
 Frc consts  --      0.2844                 0.5191                 0.4558
 IR Inten    --      1.3864                37.7060               111.2034

                      4                      5                      6
                     A'                     A'                     A'
 Frequencies --   1057.7840              2204.1554              3120.2418
 Red. masses --      3.3734                11.4002                 1.0912
 Frc consts  --      2.2239                32.6322                 6.2591
 IR Inten    --     58.7275                73.8104               108.4342

 - Thermochemistry -
 -------------------
 Temperature   298.150 Kelvin.  Pressure   1.00000 Atm.
 Atom     1 has atomic number  6 and mass  12.00000

 Molecular mass:    41.00274 amu.
 Principal axes and moments of inertia in atomic units:
                           1         2         3
     Eigenvalues --     2.84583 169.30723 172.15307
           X            0.74976   0.66171  -0.00000
           Y           -0.66171   0.74976   0.00000
           Z            0.00000  -0.00000   1.00000
 This molecule is an asymmetric top.
 Rotational symmetry number  1.
 Rotational temperatures (Kelvin)     30.43530     0.51158     0.50312
 Rotational constants (GHZ):         634.16950    10.65956    10.48335
 Zero-point vibrational energy      47074.4 (Joules/Mol)
                                   11.25106 (Kcal/Mol)
 Warning -- explicit consideration of   2 degrees of freedom as
           vibrations may cause significant error
 Vibrational temperatures:    535.73   696.99   908.25  1521.91  3171.28
          (Kelvin)           4489.33

 Zero-point correction=                           0.017930 (Hartree/Particle)
 Thermal correction to Energy=                    0.021509
 Thermal correction to Enthalpy=                  0.022453
 Thermal correction to Gibbs Free Energy=        -0.005275
 Sum of electronic and zero-point Energies=           -151.547067
 Sum of electronic and thermal Energies=              -151.543488
 Sum of electronic and thermal Enthalpies=            -151.542543
 Sum of electronic and thermal Free Energies=         -151.570272

                     E (Thermal)             CV                S
                      KCal/Mol        Cal/Mol-Kelvin    Cal/Mol-Kelvin
 Total                   13.497             10.065             58.359
 Electronic               0.000              0.000              0.000
 Translational            0.889              2.981             37.061
 Rotational               0.889              2.981             19.056
 Vibrational             11.719              4.103              2.242
 Vibration     1          0.744              1.529              1.070
 Vibration     2          0.841              1.285              0.698

 Optimization completed.
    -- Stationary point found.
 Normal termination of Gaussian 09 at Thu Jan 24 15:35:49 2019.
