 Gaussian 09, Revision D.01,
 Gaussian 09:  ES64L-G09RevD.01 24-Apr-2013

 ---------------------------
 #p b3lyp/6-311++g(d,p) freq
 ---------------------------

 ---
 min
 ---
 Symbolic Z-matrix:
 Charge =  0 Multiplicity = 4

                         Standard orientation:
 ---------------------------------------------------------------------
 Center     Atomic      Atomic             Coordinates (Angstroms)
 Number     Number       Type             X           Y           Z
 ---------------------------------------------------------------------
      1          6           0        0.000000    0.478600   -0.000000
      2          6           0        1.222982   -0.255472    0.000000
      3          1           0        1.447870   -1.323316    0.000000
      4          8           0       -1.098220   -0.001931   -0.000000
 ---------------------------------------------------------------------

 SCF Done:  E(UB3LYP) =  -151.883218749     A.U. after   13 cycles

 The electronic state is 4-A".
 Alpha  occ. eigenvalues --  -19.20299 -10.28731 -10.27518  -1.12476  -0.78610
 Alpha  occ. eigenvalues --   -0.58040  -0.51407  -0.47404  -0.46792  -0.31627
 Alpha  occ. eigenvalues --   -0.30726  -0.23779
 Alpha virt. eigenvalues --   -0.02146  -0.00005   0.03285   0.05294   0.05540
 Alpha virt. eigenvalues --    0.08136   0.08773   0.10076   0.11979   0.14638
 Alpha virt. eigenvalues --    0.16242   0.21601   0.22027   0.24415   0.27513

  Beta  occ. eigenvalues --  -19.18509 -10.27720 -10.24556  -1.09059  -0.71298
  Beta  occ. eigenvalues --   -0.54078  -0.48529  -0.42425  -0.39801
  Beta virt. eigenvalues --   -0.15404  -0.13493  -0.08447   0.00642   0.02624
  Beta virt. eigenvalues --    0.03919   0.06479   0.06568   0.08826   0.09229
  Beta virt. eigenvalues --    0.11357   0.12577   0.15844   0.17416   0.22214

 Mulliken charges and spin densities:
               1          2
     1  C   -0.032086   0.611798
     2  C    0.025588   1.777790
     3  H    0.136836   0.043764
     4  O   -0.130338   0.566647
 Sum of Mulliken charges =  -0.00000   3.00000

 Dipole moment (field-independent basis, Debye):
    X=              1.7053    Y=             -1.1061    Z=              0.0000  Tot=              2.0326
 Quadrupole moment (field-independent basis, Debye-Ang):
   XX=            -18.6353   YY=            -16.7581   ZZ=            -16.9343
   XY=             -1.6650   XZ=             -0.0000   YZ=              0.0000

  Exact polarizability:  35.797  -3.035  25.442   0.000   0.000  16.499
 Approx polarizability:  56.558  -1.447  31.637  -0.000  -0.000  20.864

                      1                      2                      3
                     A'                     A"                     A'
 Frequencies --    479.0885               703.7282               919.7920
 Red. masses --      3.0282                 1.5406                 1.5140
 Frc consts  --      0.4095                 0.4495                 0.7547
 IR Inten    --     13.8670                20.2984                 0.5913

                      4                      5                      6
                     A'                     A'                     A'
 Frequencies --   1132.0345              1738.5703              3102.5485
 Red. masses --      9.6164                13.1865                 1.0877
 Frc consts  --      7.2607                23.4836                 6.1689
 IR Inten    --      4.3700                75.1147                 8.2157

 - Thermochemistry -
 -------------------
 Temperature   298.150 Kelvin.  Pressure   1.00000 Atm.
 Atom     1 has atomic number  6 and mass  12.00000

 Molecular mass:    41.00274 amu.
 Principal axes and moments of inertia in atomic units:
                           1         2         3
     Eigenvalues --    15.55985 143.55630 159.11615
           X            0.98740   0.15825   0.00000
           Y           -0.15825   0.98740   0.00000
           Z            0.00000  -0.00000   1.00000
 This molecule is an asymmetric top.
 Rotational symmetry number  1.
 Rotational temperatures (Kelvin)      5.56650     0.60334     0.54434
 Rotational constants (GHZ):         115.98708    12.57166    11.34229
 Zero-point vibrational energy      48303.8 (Joules/Mol)
                                   11.54488 (Kcal/Mol)
 Warning -- explicit consideration of   1 degrees of freedom as
           vibrations may cause significant error
 Vibrational temperatures:    689.30  1012.51  1323.37  1628.74  2501.41
          (Kelvin)           4463.87

 Zero-point correction=                           0.018398 (Hartree/Particle)
 Thermal correction to Energy=                    0.021656
 Thermal correction to Enthalpy=                  0.022600
 Thermal correction to Gibbs Free Energy=        -0.006630
 Sum of electronic and zero-point Energies=           -151.864821
 Sum of electronic and thermal Energies=              -151.861563
 Sum of electronic and thermal Enthalpies=            -151.860619
 Sum of electronic and thermal Free Energies=         -151.889849

                     E (Thermal)             CV                S
                      KCal/Mol        Cal/Mol-Kelvin    Cal/Mol-Kelvin
 Total                   13.589              8.839             61.520
 Electronic               0.000              0.000              2.755
 Translational            0.889              2.981             37.061
 Rotational               0.889              2.981             20.502
 Vibrational             11.812              2.878              1.202
 Vibration     1          0.836              1.296              0.713

 Optimization completed.
    -- Stationary point found.
 Normal termination of Gaussian 09 at Sun Mar  4 20:56:26 2018.
