 Gaussian 09, Revision D.01,
 Gaussian 09:  ES64L-G09RevD.01 24-Apr-2013

 ---------------------------
 #p b3lyp/6-311++g(d,p) freq
 ---------------------------

 ---
 min
 ---
 Symbolic Z-matrix:
 Charge =  1 Multiplicity = 3

                         Standard orientation:
 ---------------------------------------------------------------------
 Center     Atomic      Atomic             Coordinates (Angstroms)
 Number     Number       Type             X           Y           Z
 ---------------------------------------------------------------------
      1          6           0        0.000000    0.223075    0.000000
      2          6           0        1.061004    1.050139    0.000000
      3          1           0       -0.427641   -1.684369    0.000000
      4          8           0       -0.742298   -0.744365    0.000000
 ---------------------------------------------------------------------

 SCF Done:  E(UB3LYP) =  -151.500684678     A.U. after   15 cycles

 The electronic state is 3-A".
 Alpha  occ. eigenvalues --  -19.56989 -10.64055 -10.58292  -1.49397  -1.11892
 Alpha  occ. eigenvalues --   -1.01415  -0.82574  -0.81032  -0.64393  -0.61188
 Alpha  occ. eigenvalues --   -0.60185
 Alpha virt. eigenvalues --   -0.33593  -0.29468  -0.23410  -0.16946  -0.11642
 Alpha virt. eigenvalues --   -0.11175  -0.08535  -0.07739  -0.06704  -0.04835
 Alpha virt. eigenvalues --   -0.03768  -0.00932   0.00417   0.04881   0.07213

  Beta  occ. eigenvalues --  -19.56133 -10.62967 -10.56561  -1.47699  -1.06019
  Beta  occ. eigenvalues --   -0.99308  -0.79244  -0.76948  -0.59362
  Beta virt. eigenvalues --   -0.47663  -0.46445  -0.29468  -0.22520  -0.21207
  Beta virt. eigenvalues --   -0.15956  -0.11172  -0.10906  -0.07260  -0.07004
  Beta virt. eigenvalues --   -0.05495  -0.04249  -0.03126  -0.00341   0.00674

 Mulliken charges and spin densities:
               1          2
     1  C    0.187056   0.715488
     2  C    0.381831   1.011449
     3  H    0.408379   0.019126
     4  O    0.022733   0.253936
 Sum of Mulliken charges =   1.00000   2.00000

 Dipole moment (field-independent basis, Debye):
    X=             -0.1374    Y=             -2.1152    Z=             -0.0000  Tot=              2.1197
 Quadrupole moment (field-independent basis, Debye-Ang):
   XX=            -15.2649   YY=             -6.4917   ZZ=            -14.5319
   XY=              1.5701   XZ=             -0.0000   YZ=              0.0000

  Exact polarizability:  27.973  14.992  30.894   0.000   0.000  13.661
 Approx polarizability:  51.996  27.851  43.335  -0.000  -0.000  17.040

                      1                      2                      3
                     A'                     A"                     A'
 Frequencies --    336.2638               366.9402               912.2874
 Red. masses --      4.4614                 3.8594                 1.3580
 Frc consts  --      0.2972                 0.3062                 0.6659
 IR Inten    --    112.4502               104.0608               302.9844

                      4                      5                      6
                     A'                     A'                     A'
 Frequencies --    959.6736              1828.9708              3463.8693
 Red. masses --      8.9969                 9.5808                 1.0683
 Frc consts  --      4.8819                18.8828                 7.5520
 IR Inten    --     28.5980               499.7632               661.2683

 - Thermochemistry -
 -------------------
 Temperature   298.150 Kelvin.  Pressure   1.00000 Atm.
 Atom     1 has atomic number  6 and mass  12.00000

 Molecular mass:    41.00274 amu.
 Principal axes and moments of inertia in atomic units:
                           1         2         3
     Eigenvalues --     3.67021 167.69044 171.36065
           X            0.68377   0.72970   0.00000
           Y            0.72970  -0.68377   0.00000
           Z            0.00000  -0.00000   1.00000
 This molecule is an asymmetric top.
 Rotational symmetry number  1.
 Rotational temperatures (Kelvin)     23.59913     0.51651     0.50545
 Rotational constants (GHZ):         491.72660    10.76234    10.53183
 Zero-point vibrational energy      47061.1 (Joules/Mol)
                                   11.24788 (Kcal/Mol)
 Warning -- explicit consideration of   2 degrees of freedom as
           vibrations may cause significant error
 Vibrational temperatures:    483.81   527.94  1312.58  1380.75  2631.48
          (Kelvin)           4983.73

 Zero-point correction=                           0.017925 (Hartree/Particle)
 Thermal correction to Energy=                    0.021573
 Thermal correction to Enthalpy=                  0.022517
 Thermal correction to Gibbs Free Energy=        -0.006517
 Sum of electronic and zero-point Energies=           -151.482760
 Sum of electronic and thermal Energies=              -151.479112
 Sum of electronic and thermal Enthalpies=            -151.478168
 Sum of electronic and thermal Free Energies=         -151.507202

                     E (Thermal)             CV                S
                      KCal/Mol        Cal/Mol-Kelvin    Cal/Mol-Kelvin
 Total                   13.537             10.035             61.107
 Electronic               0.000              0.000              2.183
 Translational            0.889              2.981             37.061
 Rotational               0.889              2.981             19.295
 Vibrational             11.760              4.073              2.568
 Vibration     1          0.717              1.603              1.230
 Vibration     2          0.740              1.540              1.093

 Normal termination of Gaussian 09 at Thu Jan 24 15:36:30 2019.
