 Gaussian 09, Revision D.01,
 Gaussian 09:  ES64L-G09RevD.01 24-Apr-2013

 ---------------------------
 #p b3lyp/6-311++g(d,p) freq
 ---------------------------

 ---
 min
 ---
 Symbolic Z-matrix:
 Charge =  1 Multiplicity = 1

                         Standard orientation:
 ---------------------------------------------------------------------
 Center     Atomic      Atomic             Coordinates (Angstroms)
 Number     Number       Type             X           Y           Z
 ---------------------------------------------------------------------
      1          6           0        0.791914   -0.544160    0.000000
      2          6           0       -0.791826   -0.543907   -0.000000
      3          1           0       -0.000532    1.618569   -0.000000
      4          8           0        0.000000    0.613729    0.000000
 ---------------------------------------------------------------------

 SCF Done:  E(RB3LYP) =  -151.415125121     A.U. after   11 cycles

 The electronic state is 1-A'.
 Alpha  occ. eigenvalues --  -19.62818 -10.62144 -10.62122  -1.54009  -1.13872
 Alpha  occ. eigenvalues --   -0.95483  -0.83575  -0.78269  -0.62672  -0.58217
 Alpha virt. eigenvalues --   -0.44374  -0.35467  -0.29345  -0.22195  -0.15338
 Alpha virt. eigenvalues --   -0.14675  -0.12701  -0.12042  -0.07752  -0.06129
 Alpha virt. eigenvalues --   -0.05946  -0.04355  -0.03791  -0.02885  -0.01996

 Mulliken charges:
               1
     1  C    0.141807
     2  C    0.141485
     3  H    0.465432
     4  O    0.251276
 Sum of Mulliken charges =   1.00000

 Dipole moment (field-independent basis, Debye):
    X=             -0.0001    Y=              2.8310    Z=              0.0000  Tot=              2.8310
 Quadrupole moment (field-independent basis, Debye-Ang):
   XX=            -17.2192   YY=             -7.9283   ZZ=            -13.7723
   XY=             -0.0037   XZ=             -0.0000   YZ=              0.0000

  Exact polarizability:  22.820  -0.003  22.441   0.000  -0.000  16.416
 Approx polarizability:  34.219  -0.007  37.794   0.000  -0.000  26.223

                      1                      2                      3
                     A'                     A"                     A'
 Frequencies --    515.4239               600.2506               783.6904
 Red. masses --      2.2290                 1.2408                10.8839
 Frc consts  --      0.3489                 0.2634                 3.9384
 IR Inten    --      0.0647               136.3701                 7.8408

                      4                      5                      6
                     A'                     A'                     A'
 Frequencies --   1037.2739              1139.5299              3290.7388
 Red. masses --      1.9430                10.7729                 1.0648
 Frc consts  --      1.2317                 8.2420                 6.7935
 IR Inten    --    217.3552               135.8895               672.1473

 - Thermochemistry -
 -------------------
 Temperature   298.150 Kelvin.  Pressure   1.00000 Atm.
 Atom     1 has atomic number  6 and mass  12.00000

 Molecular mass:    41.00274 amu.
 Principal axes and moments of inertia in atomic units:
                           1         2         3
     Eigenvalues --    53.74230  56.08419 109.82649
           X           -0.00584   0.99998   0.00000
           Y            0.99998   0.00584   0.00000
           Z           -0.00000   0.00000   1.00000
 This molecule is an asymmetric top.
 Rotational symmetry number  1.
 Rotational temperatures (Kelvin)      1.61165     1.54435     0.78864
 Rotational constants (GHZ):          33.58139    32.17914    16.43266
 Zero-point vibrational energy      44063.9 (Joules/Mol)
                                   10.53152 (Kcal/Mol)
 Warning -- explicit consideration of   2 degrees of freedom as
           vibrations may cause significant error
 Vibrational temperatures:    741.58   863.63  1127.55  1492.40  1639.53
          (Kelvin)           4734.63

 Zero-point correction=                           0.016783 (Hartree/Particle)
 Thermal correction to Energy=                    0.020125
 Thermal correction to Enthalpy=                  0.021069
 Thermal correction to Gibbs Free Energy=        -0.006924
 Sum of electronic and zero-point Energies=           -151.398342
 Sum of electronic and thermal Energies=              -151.395000
 Sum of electronic and thermal Enthalpies=            -151.394056
 Sum of electronic and thermal Free Energies=         -151.422049

                     E (Thermal)             CV                S
                      KCal/Mol        Cal/Mol-Kelvin    Cal/Mol-Kelvin
 Total                   12.629              9.473             58.917
 Electronic               0.000              0.000              0.000
 Translational            0.889              2.981             37.061
 Rotational               0.889              2.981             20.432
 Vibrational             10.851              3.511              1.424
 Vibration     1          0.870              1.216              0.621
 Vibration     2          0.958              1.031              0.449

 Optimization completed.
    -- Stationary point found.
 Normal termination of Gaussian 09 at Thu Jan 24 15:35:19 2019.
