 Gaussian 09, Revision D.01,
 Gaussian 09:  ES64L-G09RevD.01 24-Apr-2013

 ---------------------------
 #p b3lyp/6-311++g(d,p) freq
 ---------------------------

 ---
 min
 ---
 Symbolic Z-matrix:
 Charge =  1 Multiplicity = 1

                         Standard orientation:
 ---------------------------------------------------------------------
 Center     Atomic      Atomic             Coordinates (Angstroms)
 Number     Number       Type             X           Y           Z
 ---------------------------------------------------------------------
      1          6           0       -0.867349   -0.439191   -0.000000
      2          6           0        0.591953   -0.401190    0.000000
      3          1           0        1.652377   -0.664745    0.000000
      4          8           0        0.000000    0.713379   -0.000000
 ---------------------------------------------------------------------

 SCF Done:  E(RB3LYP) =  -151.525984009     A.U. after   10 cycles

 The electronic state is 1-A'.
 Alpha  occ. eigenvalues --  -19.60540 -10.65323 -10.62955  -1.55768  -1.01466
 Alpha  occ. eigenvalues --   -0.98334  -0.84914  -0.83210  -0.70915  -0.61484
 Alpha virt. eigenvalues --   -0.45185  -0.36997  -0.23744  -0.20454  -0.17760
 Alpha virt. eigenvalues --   -0.15771  -0.12353  -0.08637  -0.06387  -0.05640
 Alpha virt. eigenvalues --   -0.05064  -0.04065  -0.02069  -0.00088   0.00149

 Mulliken charges:
               1
     1  C    0.169429
     2  C    0.197627
     3  H    0.325110
     4  O    0.307833
 Sum of Mulliken charges =   1.00000

 Dipole moment (field-independent basis, Debye):
    X=              2.7756    Y=             -1.4501    Z=              0.0000  Tot=              3.1316
 Quadrupole moment (field-independent basis, Debye-Ang):
   XX=            -10.7038   YY=            -13.9182   ZZ=            -13.2090
   XY=             -2.0167   XZ=             -0.0000   YZ=             -0.0000

  Exact polarizability:  22.126  -0.558  17.575  -0.000  -0.000  13.020
 Approx polarizability:  32.867  -1.287  32.389   0.000  -0.000  20.413

                      1                      2                      3
                     A'                     A"                     A'
 Frequencies --    674.7171               924.9680               978.4081
 Red. masses --      4.8780                 1.3074                 1.8668
 Frc consts  --      1.3084                 0.6590                 1.0529
 IR Inten    --     88.1856                 4.7301                71.5634

                      4                      5                      6
                     A'                     A'                     A'
 Frequencies --   1237.0693              1578.7473              3162.4351
 Red. masses --      3.2182                 8.6183                 1.1154
 Frc consts  --      2.9017                12.6560                 6.5722
 IR Inten    --     23.4099                39.6324               145.2849

 - Thermochemistry -
 -------------------
 Temperature   298.150 Kelvin.  Pressure   1.00000 Atm.
 Atom     1 has atomic number  6 and mass  12.00000

 Molecular mass:    41.00274 amu.
 Principal axes and moments of inertia in atomic units:
                           1         2         3
     Eigenvalues --    45.32992  57.30077 102.63069
           X            0.98084  -0.19483  -0.00000
           Y            0.19483   0.98084   0.00000
           Z            0.00000  -0.00000   1.00000
 This molecule is an asymmetric top.
 Rotational symmetry number  1.
 Rotational temperatures (Kelvin)      1.91074     1.51156     0.84394
 Rotational constants (GHZ):          39.81346    31.49593    17.58481
 Zero-point vibrational energy      51178.3 (Joules/Mol)
                                   12.23191 (Kcal/Mol)
 Vibrational temperatures:    970.77  1330.82  1407.71  1779.86  2271.46
          (Kelvin)           4550.03

 Zero-point correction=                           0.019493 (Hartree/Particle)
 Thermal correction to Energy=                    0.022556
 Thermal correction to Enthalpy=                  0.023500
 Thermal correction to Gibbs Free Energy=        -0.004004
 Sum of electronic and zero-point Energies=           -151.506491
 Sum of electronic and thermal Energies=              -151.503428
 Sum of electronic and thermal Enthalpies=            -151.502484
 Sum of electronic and thermal Free Energies=         -151.529988

                     E (Thermal)             CV                S
                      KCal/Mol        Cal/Mol-Kelvin    Cal/Mol-Kelvin
 Total                   14.154              7.947             57.887
 Electronic               0.000              0.000              0.000
 Translational            0.889              2.981             37.061
 Rotational               0.889              2.981             20.216
 Vibrational             12.376              1.985              0.610

 Optimization completed.
    -- Stationary point found.
 Normal termination of Gaussian 09 at Thu Jan 24 15:35:50 2019.
