 Gaussian 09, Revision D.01,
 Gaussian 09:  ES64L-G09RevD.01 24-Apr-2013

 ---------------------------
 #p b3lyp/6-311++g(d,p) freq
 ---------------------------

 ---
 min
 ---
 Symbolic Z-matrix:
 Charge =  1 Multiplicity = 3

                         Standard orientation:
 ---------------------------------------------------------------------
 Center     Atomic      Atomic             Coordinates (Angstroms)
 Number     Number       Type             X           Y           Z
 ---------------------------------------------------------------------
      1          6           0        0.000000    0.347617    0.000000
      2          6           0        1.364728   -0.275938   -0.000000
      3          1           0        0.128063    1.463119    0.000000
      4          8           0       -1.039554   -0.236649   -0.000000
 ---------------------------------------------------------------------

 SCF Done:  E(UB3LYP) =  -151.476917407     A.U. after   18 cycles

 The electronic state is 3-A".
 Alpha  occ. eigenvalues --  -19.54793 -10.65984 -10.61636  -1.45889  -1.09103
 Alpha  occ. eigenvalues --   -0.89464  -0.83141  -0.78164  -0.73748  -0.63734
 Alpha  occ. eigenvalues --   -0.60534
 Alpha virt. eigenvalues --   -0.46712  -0.33361  -0.18865  -0.15509  -0.12271
 Alpha virt. eigenvalues --   -0.11804  -0.09098  -0.07393  -0.05612  -0.04725
 Alpha virt. eigenvalues --   -0.04042  -0.03340   0.00564   0.02846   0.03949

  Beta  occ. eigenvalues --  -19.52549 -10.64061 -10.61775  -1.41862  -1.04327
  Beta  occ. eigenvalues --   -0.85855  -0.80026  -0.73935  -0.65058
  Beta virt. eigenvalues --   -0.49847  -0.45363  -0.44311  -0.28556  -0.18230
  Beta virt. eigenvalues --   -0.14896  -0.11585  -0.11419  -0.08293  -0.07072
  Beta virt. eigenvalues --   -0.04988  -0.04558  -0.03508  -0.00997   0.01125

 Mulliken charges and spin densities:
               1          2
     1  C    0.004909  -0.015726
     2  C    0.539400   1.103222
     3  H    0.307326   0.121649
     4  O    0.148365   0.790856
 Sum of Mulliken charges =   1.00000   2.00000

 Dipole moment (field-independent basis, Debye):
    X=              2.1361    Y=              1.8012    Z=              0.0000  Tot=              2.7942
 Quadrupole moment (field-independent basis, Debye-Ang):
   XX=            -12.0948   YY=            -10.5409   ZZ=            -14.8340
   XY=             -0.1337   XZ=             -0.0000   YZ=              0.0000

  Exact polarizability:  43.057  -2.662  19.331   0.000   0.000  13.157
 Approx polarizability:  93.229  -3.557  29.852  -0.000   0.000  16.534

                      1                      2                      3
                     A'                     A'                     A"
 Frequencies --    188.4865               699.4786               788.2809
 Red. masses --      7.2838                 7.8034                 1.7114
 Frc consts  --      0.1525                 2.2495                 0.6266
 IR Inten    --      6.2335                38.9562                 9.5076

                      4                      5                      6
                     A'                     A'                     A'
 Frequencies --   1056.4987              1617.3813              2783.5722
 Red. masses --      1.1991                10.1144                 1.0772
 Frc consts  --      0.7885                15.5889                 4.9177
 IR Inten    --    132.4971                20.1499               198.1324

 - Thermochemistry -
 -------------------
 Temperature   298.150 Kelvin.  Pressure   1.00000 Atm.
 Atom     1 has atomic number  6 and mass  12.00000

 Molecular mass:    41.00274 amu.
 Principal axes and moments of inertia in atomic units:
                           1         2         3
     Eigenvalues --    19.14454 141.61375 160.75829
           X            0.99993   0.01165   0.00000
           Y           -0.01165   0.99993   0.00000
           Z           -0.00000  -0.00000   1.00000
 This molecule is an asymmetric top.
 Rotational symmetry number  1.
 Rotational temperatures (Kelvin)      4.52421     0.61162     0.53878
 Rotational constants (GHZ):          94.26926    12.74411    11.22643
 Zero-point vibrational energy      42669.0 (Joules/Mol)
                                   10.19813 (Kcal/Mol)
 Warning -- explicit consideration of   1 degrees of freedom as
           vibrations may cause significant error
 Vibrational temperatures:    271.19  1006.39  1134.16  1520.06  2327.05
          (Kelvin)           4004.93

 Zero-point correction=                           0.016252 (Hartree/Particle)
 Thermal correction to Energy=                    0.019891
 Thermal correction to Enthalpy=                  0.020835
 Thermal correction to Gibbs Free Energy=        -0.009002
 Sum of electronic and zero-point Energies=           -151.460666
 Sum of electronic and thermal Energies=              -151.457027
 Sum of electronic and thermal Enthalpies=            -151.456083
 Sum of electronic and thermal Free Energies=         -151.485919

                     E (Thermal)             CV                S
                      KCal/Mol        Cal/Mol-Kelvin    Cal/Mol-Kelvin
 Total                   12.482              9.687             62.797
 Electronic               0.000              0.000              2.183
 Translational            0.889              2.981             37.061
 Rotational               0.889              2.981             20.705
 Vibrational             10.704              3.725              2.848
 Vibration     1          0.633              1.856              2.243

 Optimization completed.
    -- Stationary point found.
 Normal termination of Gaussian 09 at Thu Jan 24 15:36:00 2019.
