 Gaussian 09, Revision D.01,
 Gaussian 09:  ES64L-G09RevD.01 24-Apr-2013

 ---------------------------
 #p b3lyp/6-311++g(d,p) freq
 ---------------------------

 ---
 min
 ---
 Symbolic Z-matrix:
 Charge =  0 Multiplicity = 4

                         Standard orientation:
 ---------------------------------------------------------------------
 Center     Atomic      Atomic             Coordinates (Angstroms)
 Number     Number       Type             X           Y           Z
 ---------------------------------------------------------------------
      1          6           0        1.414186    0.191921   -0.000000
      2          6           0       -0.000000    0.507239   -0.000000
      3          1           0       -1.757192   -0.178798    0.000000
      4          8           0       -0.840991   -0.502020    0.000000
 ---------------------------------------------------------------------

 SCF Done:  E(UB3LYP) =  -151.792260058     A.U. after   14 cycles

 The electronic state is 4-A".
 Alpha  occ. eigenvalues --  -19.24625 -10.31142 -10.23972  -1.16127  -0.79028
 Alpha  occ. eigenvalues --   -0.63296  -0.53964  -0.48581  -0.37723  -0.31730
 Alpha  occ. eigenvalues --   -0.28727  -0.21004
 Alpha virt. eigenvalues --   -0.04506  -0.03260   0.04516   0.05367   0.05660
 Alpha virt. eigenvalues --    0.08339   0.08593   0.09918   0.10740   0.14036
 Alpha virt. eigenvalues --    0.16479   0.18554   0.18768   0.24015   0.28691

  Beta  occ. eigenvalues --  -19.23748 -10.29587 -10.21406  -1.13999  -0.73572
  Beta  occ. eigenvalues --   -0.58885  -0.50301  -0.44761  -0.29550
  Beta virt. eigenvalues --   -0.16389  -0.15570  -0.06220  -0.01491   0.02286
  Beta virt. eigenvalues --    0.04913   0.06142   0.06536   0.08937   0.09141
  Beta virt. eigenvalues --    0.11183   0.12068   0.14397   0.17015   0.19012

 Mulliken charges and spin densities:
               1          2
     1  C   -0.142506   1.724069
     2  C   -0.138390   1.115798
     3  H    0.298658   0.030745
     4  O   -0.017762   0.129388
 Sum of Mulliken charges =  -0.00000   3.00000

 Dipole moment (field-independent basis, Debye):
    X=             -3.6828    Y=              0.4812    Z=              0.0000  Tot=              3.7141
 Quadrupole moment (field-independent basis, Debye-Ang):
   XX=            -16.4316   YY=            -20.0676   ZZ=            -17.6102
   XY=              0.5711   XZ=             -0.0000   YZ=              0.0000

  Exact polarizability:  56.710  -3.651  27.725  -0.000  -0.000  20.380
 Approx polarizability:  91.257  -6.718  35.259  -0.000  -0.000  26.086

                      1                      2                      3
                     A"                     A'                     A'
 Frequencies --    490.1728               499.9546               997.2017
 Red. masses --      1.1437                 7.4160                 2.1614
 Frc consts  --      0.1619                 1.0921                 1.2663
 IR Inten    --    142.8371                16.5064                82.3016

                      4                      5                      6
                     A'                     A'                     A'
 Frequencies --   1169.1505              1301.7536              3715.9741
 Red. masses --      2.7140                 4.9525                 1.0652
 Frc consts  --      2.1857                 4.9446                 8.6664
 IR Inten    --    338.0686               125.7366               194.0800

 - Thermochemistry -
 -------------------
 Temperature   298.150 Kelvin.  Pressure   1.00000 Atm.
 Atom     1 has atomic number  6 and mass  12.00000

 Molecular mass:    41.00274 amu.
 Principal axes and moments of inertia in atomic units:
                           1         2         3
     Eigenvalues --    15.89442 148.16437 164.05878
           X            0.95666  -0.29121   0.00000
           Y            0.29121   0.95666   0.00000
           Z            0.00000  -0.00000   1.00000
 This molecule is an asymmetric top.
 Rotational symmetry number  1.
 Rotational temperatures (Kelvin)      5.44932     0.58458     0.52794
 Rotational constants (GHZ):         113.54561    12.18067    11.00058
 Zero-point vibrational energy      48892.6 (Joules/Mol)
                                   11.68562 (Kcal/Mol)
 Warning -- explicit consideration of   2 degrees of freedom as
           vibrations may cause significant error
 Vibrational temperatures:    705.25   719.32  1434.75  1682.14  1872.93
          (Kelvin)           5346.45

 Zero-point correction=                           0.018622 (Hartree/Particle)
 Thermal correction to Energy=                    0.021978
 Thermal correction to Enthalpy=                  0.022922
 Thermal correction to Gibbs Free Energy=        -0.006494
 Sum of electronic and zero-point Energies=           -151.773638
 Sum of electronic and thermal Energies=              -151.770282
 Sum of electronic and thermal Enthalpies=            -151.769338
 Sum of electronic and thermal Free Energies=         -151.798754

                     E (Thermal)             CV                S
                      KCal/Mol        Cal/Mol-Kelvin    Cal/Mol-Kelvin
 Total                   13.791              9.237             61.911
 Electronic               0.000              0.000              2.755
 Translational            0.889              2.981             37.061
 Rotational               0.889              2.981             20.585
 Vibrational             12.014              3.275              1.510
 Vibration     1          0.846              1.272              0.683
 Vibration     2          0.855              1.250              0.658

 Optimization completed.
    -- Stationary point found.
 Normal termination of Gaussian 09 at Sun Mar  4 20:56:27 2018.
