 Gaussian 09, Revision D.01,
 Gaussian 09:  ES64L-G09RevD.01 24-Apr-2013

 ---------------------------
 #p b3lyp/6-311++g(d,p) freq
 ---------------------------

 ---
 min
 ---
 Symbolic Z-matrix:
 Charge =  1 Multiplicity = 1

                         Standard orientation:
 ---------------------------------------------------------------------
 Center     Atomic      Atomic             Coordinates (Angstroms)
 Number     Number       Type             X           Y           Z
 ---------------------------------------------------------------------
      1          6           0       -0.000000   -1.210129   -0.286175
      2          6           0        0.000000    1.210129   -0.286175
      3          6           0        0.000000    0.000000    0.331154
      4          1           0        0.000000    0.000000    1.447180
 ---------------------------------------------------------------------

 SCF Done:  E(RB3LYP) =  -114.280668565     A.U. after   10 cycles

 The electronic state is 1-A1.
 Alpha  occ. eigenvalues --  -10.63274 -10.63272 -10.51356  -1.16434  -0.98708
 Alpha  occ. eigenvalues --   -0.82631  -0.65848  -0.64597  -0.61695
 Alpha virt. eigenvalues --   -0.44477  -0.44334  -0.42046  -0.25572  -0.17532
 Alpha virt. eigenvalues --   -0.13497  -0.11531  -0.10799  -0.07559  -0.07137
 Alpha virt. eigenvalues --   -0.06553  -0.05284  -0.03854  -0.03341  -0.02056

 Mulliken charges:
               1
     1  C    0.432352
     2  C    0.432352
     3  C   -0.215056
     4  H    0.350352
 Sum of Mulliken charges =   1.00000

 Dipole moment (field-independent basis, Debye):
    X=              0.0000    Y=             -0.0000    Z=              1.5895  Tot=              1.5895
 Quadrupole moment (field-independent basis, Debye-Ang):
   XX=            -15.3726   YY=            -13.7061   ZZ=            -11.1153
   XY=              0.0000   XZ=             -0.0000   YZ=              0.0000

  Exact polarizability:  18.497  -0.000  39.846  -0.000  -0.000  22.961
 Approx polarizability:  26.676   0.000  97.987   0.000   0.000  37.660

                      1                      2                      3
                     A1                     B1                     B2
 Frequencies --    351.0742               471.1564               721.6374
 Red. masses --      9.3772                 1.6994                 1.0916
 Frc consts  --      0.6810                 0.2223                 0.3349
 IR Inten    --     10.7810                20.6925                20.2582

                      4                      5                      6
                     A1                     B2                     A1
 Frequencies --   1222.7409              1626.6298              2893.2989
 Red. masses --      9.5406                11.7928                 1.0838
 Frc consts  --      8.4042                18.3842                 5.3454
 IR Inten    --     17.0499               672.3282               343.5370

 - Thermochemistry -
 -------------------
 Temperature   298.150 Kelvin.  Pressure   1.00000 Atm.
 Atom     1 has atomic number  6 and mass  12.00000

 Molecular mass:    37.00783 amu.
 Principal axes and moments of inertia in atomic units:
                           1         2         3
     Eigenvalues --    19.05692 125.50819 144.56512
           X            0.00000  -0.00000   1.00000
           Y            1.00000   0.00000  -0.00000
           Z           -0.00000   1.00000   0.00000
 This molecule is an asymmetric top.
 Rotational symmetry number  2.
 Rotational temperatures (Kelvin)      4.54501     0.69010     0.59913
 Rotational constants (GHZ):          94.70266    14.37947    12.48393
 Zero-point vibrational energy      43583.2 (Joules/Mol)
                                   10.41663 (Kcal/Mol)
 Warning -- explicit consideration of   2 degrees of freedom as
           vibrations may cause significant error
 Vibrational temperatures:    505.12   677.89  1038.27  1759.25  2340.35
          (Kelvin)           4162.81

 Zero-point correction=                           0.016600 (Hartree/Particle)
 Thermal correction to Energy=                    0.020161
 Thermal correction to Enthalpy=                  0.021106
 Thermal correction to Gibbs Free Energy=        -0.006487
 Sum of electronic and zero-point Energies=           -114.264069
 Sum of electronic and thermal Energies=              -114.260507
 Sum of electronic and thermal Enthalpies=            -114.259563
 Sum of electronic and thermal Free Energies=         -114.287156

                     E (Thermal)             CV                S
                      KCal/Mol        Cal/Mol-Kelvin    Cal/Mol-Kelvin
 Total                   12.651              9.876             58.074
 Electronic               0.000              0.000              0.000
 Translational            0.889              2.981             36.755
 Rotational               0.889              2.981             19.097
 Vibrational             10.874              3.914              2.222
 Vibration     1          0.728              1.573              1.161
 Vibration     2          0.828              1.314              0.734

 Optimization completed.
    -- Stationary point found.
 Normal termination of Gaussian 09 at Thu Jan 24 15:36:17 2019.
