 Gaussian 09, Revision D.01,
 Gaussian 09:  ES64L-G09RevD.01 24-Apr-2013

 ---------------------------
 #p b3lyp/6-311++g(d,p) freq
 ---------------------------

 ---
 min
 ---
 Symbolic Z-matrix:
 Charge =  0 Multiplicity = 4

                         Standard orientation:
 ---------------------------------------------------------------------
 Center     Atomic      Atomic             Coordinates (Angstroms)
 Number     Number       Type             X           Y           Z
 ---------------------------------------------------------------------
      1          6           0        0.042921    0.816782    0.000000
      2          6           0        0.042921   -0.537241    0.656702
      3          6           0        0.042921   -0.537241   -0.656702
      4          1           0       -0.772584    1.546196    0.000000
 ---------------------------------------------------------------------

 SCF Done:  E(UB3LYP) =  -114.609504286     A.U. after   14 cycles

 The electronic state is 4-A".
 Alpha  occ. eigenvalues --  -10.27427 -10.27323 -10.24710  -0.93975  -0.62151
 Alpha  occ. eigenvalues --   -0.51764  -0.46613  -0.40190  -0.36086  -0.28249
 Alpha  occ. eigenvalues --   -0.21626
 Alpha virt. eigenvalues --   -0.04640   0.00255   0.03493   0.03548   0.05175
 Alpha virt. eigenvalues --    0.08457   0.08995   0.09441   0.09973   0.10141
 Alpha virt. eigenvalues --    0.11513   0.13209   0.16745   0.16912   0.18406

  Beta  occ. eigenvalues --  -10.25657 -10.25568 -10.22845  -0.90367  -0.57300
  Beta  occ. eigenvalues --   -0.43118  -0.42025  -0.34900
  Beta virt. eigenvalues --   -0.20085  -0.13412  -0.07125  -0.00729   0.00649
  Beta virt. eigenvalues --    0.03999   0.04243   0.05759   0.08895   0.09772
  Beta virt. eigenvalues --    0.09847   0.10811   0.12243   0.12554   0.13975

 Mulliken charges and spin densities:
               1          2
     1  C   -0.186621   1.172925
     2  C    0.025719   0.895321
     3  C    0.025719   0.895321
     4  H    0.135184   0.036434
 Sum of Mulliken charges =  -0.00000   3.00000

 Dipole moment (field-independent basis, Debye):
    X=             -1.0202    Y=              0.3998    Z=              0.0000  Tot=              1.0958
 Quadrupole moment (field-independent basis, Debye-Ang):
   XX=            -17.9603   YY=            -17.8683   ZZ=            -17.7834
   XY=             -1.3307   XZ=              0.0000   YZ=             -0.0000

  Exact polarizability:  24.502  -1.917  37.441   0.000  -0.000  32.330
 Approx polarizability:  31.107  -1.890  54.134   0.000   0.000  63.851

                      1                      2                      3
                     A"                     A"                     A'
 Frequencies --    531.7317               885.1956               924.7619
 Red. masses --      9.1292                 1.2277                 1.2549
 Frc consts  --      1.5208                 0.5668                 0.6323
 IR Inten    --     16.2158                63.2182                27.7944

                      4                      5                      6
                     A'                     A'                     A'
 Frequencies --   1028.8287              1637.9788              3033.2112
 Red. masses --      7.3256                11.7656                 1.0842
 Frc consts  --      4.5686                18.5986                 5.8772
 IR Inten    --      0.9381                11.9995                 9.1993

 - Thermochemistry -
 -------------------
 Temperature   298.150 Kelvin.  Pressure   1.00000 Atm.
 Atom     1 has atomic number  6 and mass  12.00000

 Molecular mass:    37.00783 amu.
 Principal axes and moments of inertia in atomic units:
                           1         2         3
     Eigenvalues --    38.92607  64.03100  99.02736
           X           -0.07777   0.00000   0.99697
           Y            0.99697   0.00000   0.07777
           Z           -0.00000   1.00000  -0.00000
 This molecule is an asymmetric top.
 Rotational symmetry number  1.
 Rotational temperatures (Kelvin)      2.22508     1.35269     0.87465
 Rotational constants (GHZ):          46.36330    28.18543    18.22467
 Zero-point vibrational energy      48100.1 (Joules/Mol)
                                   11.49620 (Kcal/Mol)
 Warning -- explicit consideration of   1 degrees of freedom as
           vibrations may cause significant error
 Vibrational temperatures:    765.04  1273.60  1330.52  1480.25  2356.68
          (Kelvin)           4364.11

 Zero-point correction=                           0.018320 (Hartree/Particle)
 Thermal correction to Energy=                    0.021497
 Thermal correction to Enthalpy=                  0.022441
 Thermal correction to Gibbs Free Energy=        -0.006351
 Sum of electronic and zero-point Energies=           -114.591184
 Sum of electronic and thermal Energies=              -114.588008
 Sum of electronic and thermal Enthalpies=            -114.587064
 Sum of electronic and thermal Free Energies=         -114.615855

                     E (Thermal)             CV                S
                      KCal/Mol        Cal/Mol-Kelvin    Cal/Mol-Kelvin
 Total                   13.489              8.522             60.598
 Electronic               0.000              0.000              2.755
 Translational            0.889              2.981             36.755
 Rotational               0.889              2.981             20.140
 Vibrational             11.712              2.560              0.948
 Vibration     1          0.887              1.180              0.583

 Optimization completed.
    -- Stationary point found.
 Normal termination of Gaussian 09 at Sun Mar  4 20:56:34 2018.
