 Gaussian 09, Revision D.01,
 Gaussian 09:  ES64L-G09RevD.01 24-Apr-2013

 ---------------------------
 #p b3lyp/6-311++g(d,p) freq
 ---------------------------

 ---
 min
 ---
 Symbolic Z-matrix:
 Charge =  1 Multiplicity = 3

                         Standard orientation:
 ---------------------------------------------------------------------
 Center     Atomic      Atomic             Coordinates (Angstroms)
 Number     Number       Type             X           Y           Z
 ---------------------------------------------------------------------
      1          6           0        0.000000   -0.682828   -0.499274
      2          6           0       -0.000000    0.682828   -0.499274
      3          6           0        0.000000    0.000000    0.700535
      4          1           0        0.000000    0.000000    1.788077
 ---------------------------------------------------------------------

 SCF Done:  E(UB3LYP) =  -114.337576548     A.U. after   12 cycles

 The electronic state is 3-B2.
 Alpha  occ. eigenvalues --  -10.60241 -10.60171 -10.57343  -1.28578  -0.90455
 Alpha  occ. eigenvalues --   -0.84740  -0.75874  -0.71215  -0.65496  -0.59720
 Alpha virt. eigenvalues --   -0.34463  -0.34069  -0.17369  -0.14691  -0.14499
 Alpha virt. eigenvalues --   -0.12428  -0.11798  -0.09833  -0.07101  -0.06259
 Alpha virt. eigenvalues --   -0.04932  -0.04242  -0.03837  -0.00132   0.01505

  Beta  occ. eigenvalues --  -10.58296 -10.58236 -10.57027  -1.26358  -0.88717
  Beta  occ. eigenvalues --   -0.77607  -0.71227  -0.69802
  Beta virt. eigenvalues --   -0.47675  -0.43202  -0.33265  -0.30007  -0.16874
  Beta virt. eigenvalues --   -0.13571  -0.13304  -0.11715  -0.09532  -0.08542
  Beta virt. eigenvalues --   -0.06490  -0.05342  -0.04787  -0.03775  -0.03271

 Mulliken charges and spin densities:
               1          2
     1  C    0.308346   0.895458
     2  C    0.308346   0.895458
     3  C    0.088037   0.202547
     4  H    0.295271   0.006537
 Sum of Mulliken charges =   1.00000   2.00000

 Dipole moment (field-independent basis, Debye):
    X=              0.0000    Y=              0.0000    Z=              1.4287  Tot=              1.4287
 Quadrupole moment (field-independent basis, Debye-Ang):
   XX=            -14.1894   YY=            -12.6656   ZZ=             -9.3405
   XY=              0.0000   XZ=             -0.0000   YZ=             -0.0000

  Exact polarizability:  14.353  -0.000  23.222  -0.000  -0.000  25.475
 Approx polarizability:  20.616  -0.000  43.504   0.000  -0.000  41.434

                      1                      2                      3
                     B1                     B2                     B2
 Frequencies --    889.2030               896.0406              1182.9032
 Red. masses --      1.3128                 1.1952                10.3866
 Frc consts  --      0.6116                 0.5654                 8.5630
 IR Inten    --     36.6221                51.0722                97.1934

                      4                      5                      6
                     A1                     A1                     A1
 Frequencies --   1240.0971              1618.3738              3200.4799
 Red. masses --      8.2848                 8.5106                 1.1161
 Frc consts  --      7.5066                13.1331                 6.7359
 IR Inten    --      4.8750                 2.3252               146.2626

 - Thermochemistry -
 -------------------
 Temperature   298.150 Kelvin.  Pressure   1.00000 Atm.
 Atom     1 has atomic number  6 and mass  12.00000

 Molecular mass:    37.00783 amu.
 Principal axes and moments of inertia in atomic units:
                           1         2         3
     Eigenvalues --    39.96062  53.59729  93.55790
           X            0.00000   0.00000   1.00000
           Y            0.00000   1.00000   0.00000
           Z            1.00000   0.00000   0.00000
 This molecule is an asymmetric top.
 Rotational symmetry number  2.
 Rotational temperatures (Kelvin)      2.16748     1.61601     0.92578
 Rotational constants (GHZ):          45.16300    33.67225    19.29010
 Zero-point vibrational energy      53994.0 (Joules/Mol)
                                   12.90488 (Kcal/Mol)
 Vibrational temperatures:   1279.36  1289.20  1701.93  1784.22  2328.48
          (Kelvin)           4604.77

 Zero-point correction=                           0.020565 (Hartree/Particle)
 Thermal correction to Energy=                    0.023544
 Thermal correction to Enthalpy=                  0.024488
 Thermal correction to Gibbs Free Energy=        -0.003007
 Sum of electronic and zero-point Energies=           -114.317011
 Sum of electronic and thermal Energies=              -114.314032
 Sum of electronic and thermal Enthalpies=            -114.313088
 Sum of electronic and thermal Free Energies=         -114.340583

                     E (Thermal)             CV                S
                      KCal/Mol        Cal/Mol-Kelvin    Cal/Mol-Kelvin
 Total                   14.774              7.428             57.868
 Electronic               0.000              0.000              2.183
 Translational            0.889              2.981             36.755
 Rotational               0.889              2.981             18.555
 Vibrational             12.997              1.466              0.374

 Optimization completed.
    -- Stationary point found.
 Normal termination of Gaussian 09 at Thu Jan 24 15:36:57 2019.
