 Gaussian 09, Revision D.01,
 Gaussian 09:  ES64L-G09RevD.01 24-Apr-2013

 ---------------------------
 #p b3lyp/6-311++g(d,p) freq
 ---------------------------

 ---
 min
 ---
 Symbolic Z-matrix:
 Charge =  0 Multiplicity = 2

                         Standard orientation:
 ---------------------------------------------------------------------
 Center     Atomic      Atomic             Coordinates (Angstroms)
 Number     Number       Type             X           Y           Z
 ---------------------------------------------------------------------
      1          6           0       -0.219294    1.405667   -0.000000
      2          6           0        0.000000    0.094964   -0.000000
      3          6           0        0.123609   -1.147856    0.000000
      4          1           0        0.574109   -2.116655    0.000000
 ---------------------------------------------------------------------

 SCF Done:  E(UB3LYP) =  -114.711626869     A.U. after   15 cycles

 The electronic state is 2-A'.
 Alpha  occ. eigenvalues --  -10.26379 -10.25282 -10.21239  -0.83385  -0.72411
 Alpha  occ. eigenvalues --   -0.57903  -0.38518  -0.36859  -0.32446  -0.24365
 Alpha virt. eigenvalues --   -0.15980  -0.01126   0.01806   0.03397   0.03735
 Alpha virt. eigenvalues --    0.06379   0.07638   0.08730   0.08962   0.09850
 Alpha virt. eigenvalues --    0.10562   0.12148   0.15607   0.15727   0.18903

  Beta  occ. eigenvalues --  -10.25533 -10.24339 -10.21504  -0.82334  -0.69965
  Beta  occ. eigenvalues --   -0.57076  -0.36540  -0.35021  -0.30755
  Beta virt. eigenvalues --   -0.14715  -0.12415  -0.00983   0.02755   0.03365
  Beta virt. eigenvalues --    0.03876   0.06816   0.09122   0.09290   0.09952
  Beta virt. eigenvalues --    0.09955   0.10973   0.12414   0.15706   0.15991

 Mulliken charges and spin densities:
               1          2
     1  C   -0.104265   0.617888
     2  C    1.077233  -0.127633
     3  C   -1.155018   0.521784
     4  H    0.182050  -0.012039
 Sum of Mulliken charges =  -0.00000   1.00000

 Dipole moment (field-independent basis, Debye):
    X=              0.9374    Y=             -3.5025    Z=              0.0000  Tot=              3.6258
 Quadrupole moment (field-independent basis, Debye-Ang):
   XX=            -18.6965   YY=            -18.2274   ZZ=            -17.1847
   XY=             -1.0183   XZ=              0.0000   YZ=              0.0000

  Exact polarizability:  21.862  -4.175  56.825  -0.000  -0.000  20.485
 Approx polarizability:  26.479  -9.535 115.415   0.000  -0.000  26.606

                      1                      2                      3
                     A'                     A"                     A'
 Frequencies --    257.0070               258.2880               377.2187
 Red. masses --      1.2709                 4.8606                 6.3689
 Frc consts  --      0.0495                 0.1911                 0.5340
 IR Inten    --     88.4625                 0.3416                 0.0927

                      4                      5                      6
                     A'                     A'                     A'
 Frequencies --   1188.3413              1891.2855              3401.2982
 Red. masses --      8.8604                 7.2407                 1.1272
 Frc consts  --      7.3720                15.2598                 7.6831
 IR Inten    --     40.8308               168.9971                41.1191

 - Thermochemistry -
 -------------------
 Temperature   298.150 Kelvin.  Pressure   1.00000 Atm.
 Atom     1 has atomic number  6 and mass  12.00000

 Molecular mass:    37.00783 amu.
 Principal axes and moments of inertia in atomic units:
                           1         2         3
     Eigenvalues --     0.33601 160.75423 161.09025
           X           -0.14843   0.98892   0.00000
           Y            0.98892   0.14843   0.00000
           Z           -0.00000  -0.00000   1.00000
 This molecule is an asymmetric top.
 Rotational symmetry number  1.
 Rotational temperatures (Kelvin)    257.76911     0.53880     0.53767
 Rotational constants (GHZ):        5371.04315    11.22671    11.20329
 Zero-point vibrational energy      44103.0 (Joules/Mol)
                                   10.54086 (Kcal/Mol)
 Warning -- explicit consideration of   3 degrees of freedom as
           vibrations may cause significant error
 Vibrational temperatures:    369.78   371.62   542.73  1709.76  2721.13
          (Kelvin)           4893.70

 Zero-point correction=                           0.016798 (Hartree/Particle)
 Thermal correction to Energy=                    0.020933
 Thermal correction to Enthalpy=                  0.021877
 Thermal correction to Gibbs Free Energy=        -0.006346
 Sum of electronic and zero-point Energies=           -114.694829
 Sum of electronic and thermal Energies=              -114.690694
 Sum of electronic and thermal Enthalpies=            -114.689750
 Sum of electronic and thermal Free Energies=         -114.717973

                     E (Thermal)             CV                S
                      KCal/Mol        Cal/Mol-Kelvin    Cal/Mol-Kelvin
 Total                   13.136             11.211             59.400
 Electronic               0.000              0.000              1.377
 Translational            0.889              2.981             36.755
 Rotational               0.889              2.981             16.816
 Vibrational             11.358              5.249              4.451
 Vibration     1          0.667              1.751              1.682
 Vibration     2          0.667              1.749              1.673
 Vibration     3          0.748              1.519              1.050

 Optimization completed.
    -- Stationary point found.
 Normal termination of Gaussian 09 at Sun Mar  4 20:56:28 2018.
