 Gaussian 09, Revision D.01,
 Gaussian 09:  ES64L-G09RevD.01 24-Apr-2013

 ---------------------------
 #p b3lyp/6-311++g(d,p) freq
 ---------------------------

 ---
 min
 ---
 Symbolic Z-matrix:
 Charge =  1 Multiplicity = 3

                         Standard orientation:
 ---------------------------------------------------------------------
 Center     Atomic      Atomic             Coordinates (Angstroms)
 Number     Number       Type             X           Y           Z
 ---------------------------------------------------------------------
      1          6           0        0.000000    0.000000    1.391072
      2          6           0        0.000000    0.000000    0.117590
      3          6           0        0.000000    0.000000   -1.139144
      4          1           0        0.000000    0.000000   -2.217110
 ---------------------------------------------------------------------

 SCF Done:  E(UB3LYP) =  -114.313202337     A.U. after   16 cycles

 Unable to determine electronic state:  an orbital has unidentified symmetry.
 Alpha  occ. eigenvalues --  -10.61593 -10.55934 -10.50909  -1.12505  -1.02348
 Alpha  occ. eigenvalues --   -0.83555  -0.72207  -0.67127  -0.65147  -0.53755
 Alpha virt. eigenvalues --   -0.45246  -0.21269  -0.20166  -0.16667  -0.15272
 Alpha virt. eigenvalues --   -0.10480  -0.10300  -0.10125  -0.06365  -0.05838
 Alpha virt. eigenvalues --   -0.05623  -0.02076   0.00519   0.00658   0.01962

  Beta  occ. eigenvalues --  -10.58129 -10.55139 -10.51027  -1.10496  -0.98329
  Beta  occ. eigenvalues --   -0.82569  -0.64137  -0.62472
  Beta virt. eigenvalues --   -0.47830  -0.41719  -0.38744  -0.18272  -0.16910
  Beta virt. eigenvalues --   -0.16295  -0.14812  -0.09728  -0.09418  -0.08956
  Beta virt. eigenvalues --   -0.05734  -0.05418  -0.05072  -0.01548   0.00538

 Mulliken charges and spin densities:
               1          2
     1  C    0.738048   1.456464
     2  C    1.693440   0.045163
     3  C   -1.690235   0.517197
     4  H    0.258747  -0.018824
 Sum of Mulliken charges =   1.00000   2.00000

 Dipole moment (field-independent basis, Debye):
    X=              0.0000    Y=              0.0000    Z=             -0.6936  Tot=              0.6936
 Quadrupole moment (field-independent basis, Debye-Ang):
   XX=            -15.8323   YY=            -14.2172   ZZ=             -0.3140
   XY=              0.0000   XZ=              0.0000   YZ=              0.0000

  Exact polarizability:  12.678  -0.000  12.270   0.005   0.000  43.809
 Approx polarizability:  15.128  -0.000  15.938  -0.000  -0.000 104.846

                      1                      2                      3
                     ?A                     ?A                     ?A
 Frequencies --    306.4166               357.0737               421.0656
 Red. masses --      4.7237                 2.8826                 1.6793
 Frc consts  --      0.2613                 0.2165                 0.1754
 IR Inten    --     20.1476                15.8708                59.6109

                      4                      5                      6
                     ?A                     SG                     SG
 Frequencies --    900.8262              1310.0689              1923.5196
 Red. masses --      1.3686                 7.6088                 8.3170
 Frc consts  --      0.6543                 7.6941                18.1305
 IR Inten    --      4.9308                 0.3247               333.2994

                      7
                     SG
 Frequencies --   3325.0719
 Red. masses --      1.1332
 Frc consts  --      7.3815
 IR Inten    --    165.7636

 - Thermochemistry -
 -------------------
 Temperature   298.150 Kelvin.  Pressure   1.00000 Atm.
 Atom     1 has atomic number  6 and mass  12.00000

 Molecular mass:    37.00783 amu.
 Principal axes and moments of inertia in atomic units:
                           1         2         3
     Eigenvalues --     0.00000 156.34829 156.34829
           X            0.00000  -0.00000   1.00000
           Y            0.00000   1.00000   0.00000
           Z            1.00000   0.00000   0.00000
 This molecule is a prolate symmetric top.
 Rotational symmetry number  1.
 Rotational temperature (Kelvin)      0.55398
 Rotational constant (GHZ):          11.543082
 Zero-point vibrational energy      51104.7 (Joules/Mol)
                                   12.21432 (Kcal/Mol)
 Warning -- explicit consideration of   3 degrees of freedom as
           vibrations may cause significant error
 Vibrational temperatures:    440.86   513.75   605.82  1296.09  1884.89
          (Kelvin)           2767.51  4784.03

 Zero-point correction=                           0.019465 (Hartree/Particle)
 Thermal correction to Energy=                    0.022946
 Thermal correction to Enthalpy=                  0.023890
 Thermal correction to Gibbs Free Energy=        -0.003189
 Sum of electronic and zero-point Energies=           -114.293738
 Sum of electronic and thermal Energies=              -114.290257
 Sum of electronic and thermal Enthalpies=            -114.289312
 Sum of electronic and thermal Free Energies=         -114.316392

                     E (Thermal)             CV                S
                      KCal/Mol        Cal/Mol-Kelvin    Cal/Mol-Kelvin
 Total                   14.399             10.273             56.993
 Electronic               0.000              0.000              2.183
 Translational            0.889              2.981             36.755
 Rotational               0.592              1.987             14.483
 Vibrational             12.917              5.305              3.572
 Vibration     1          0.697              1.662              1.382
 Vibration     2          0.732              1.561              1.135
 Vibration     3          0.784              1.424              0.888

 Optimization completed.
    -- Stationary point found.
 Normal termination of Gaussian 09 at Thu Jan 24 15:36:25 2019.
