 Gaussian 09, Revision D.01,
 Gaussian 09:  ES64L-G09RevD.01 24-Apr-2013

 ---------------------------
 #p b3lyp/6-311++g(d,p) freq
 ---------------------------

 ---
 min
 ---
 Symbolic Z-matrix:
 Charge =  0 Multiplicity = 2

                         Standard orientation:
 ---------------------------------------------------------------------
 Center     Atomic      Atomic             Coordinates (Angstroms)
 Number     Number       Type             X           Y           Z
 ---------------------------------------------------------------------
      1          6           0       -0.000000    0.683478   -0.495884
      2          6           0        0.000000    0.000000    0.695608
      3          6           0       -0.000000   -0.683478   -0.495884
      4          1           0        0.000000    0.000000    1.776953
 ---------------------------------------------------------------------

 SCF Done:  E(UB3LYP) =  -114.712293145     A.U. after   12 cycles

 The electronic state is 2-B2.
 Alpha  occ. eigenvalues --  -10.28098 -10.23948 -10.23881  -0.96625  -0.63197
 Alpha  occ. eigenvalues --   -0.51917  -0.45012  -0.41178  -0.30173  -0.27747
 Alpha virt. eigenvalues --   -0.06751  -0.03065  -0.00644   0.03636   0.04075
 Alpha virt. eigenvalues --    0.05059   0.08135   0.08821   0.09066   0.10839
 Alpha virt. eigenvalues --    0.11482   0.11820   0.12141   0.17518   0.18148

  Beta  occ. eigenvalues --  -10.27564 -10.23168 -10.23096  -0.95788  -0.62076
  Beta  occ. eigenvalues --   -0.49006  -0.41563  -0.40531  -0.27254
  Beta virt. eigenvalues --   -0.15820  -0.05811  -0.01658  -0.00504   0.03764
  Beta virt. eigenvalues --    0.04423   0.05096   0.08253   0.08920   0.09604
  Beta virt. eigenvalues --    0.10995   0.11678   0.12111   0.12861   0.17765

 Mulliken charges and spin densities:
               1          2
     1  C   -0.196088   0.277878
     2  C    0.206718   0.450360
     3  C   -0.196088   0.277878
     4  H    0.185457  -0.006116
 Sum of Mulliken charges =  -0.00000   1.00000

 Dipole moment (field-independent basis, Debye):
    X=              0.0000    Y=             -0.0000    Z=              2.3431  Tot=              2.3431
 Quadrupole moment (field-independent basis, Debye-Ang):
   XX=            -17.0684   YY=            -21.5462   ZZ=            -15.1746
   XY=             -0.0000   XZ=             -0.0000   YZ=             -0.0000

  Exact polarizability:  19.930  -0.000  48.859  -0.000   0.000  32.105
 Approx polarizability:  27.968   0.000  73.746   0.000  -0.000  51.123

                      1                      2                      3
                     B2                     B1                     B2
 Frequencies --    559.3128               876.1699               918.8436
 Red. masses --      7.3771                 1.3132                 1.2531
 Frc consts  --      1.3597                 0.5939                 0.6233
 IR Inten    --    549.1015                 4.9536                32.0868

                      4                      5                      6
                     A1                     A1                     A1
 Frequencies --   1228.1495              1615.8848              3228.3366
 Red. masses --      8.7480                 8.3564                 1.1109
 Frc consts  --      7.7743                12.8555                 6.8216
 IR Inten    --     27.7569                 0.3037                 0.3371

 - Thermochemistry -
 -------------------
 Temperature   298.150 Kelvin.  Pressure   1.00000 Atm.
 Atom     1 has atomic number  6 and mass  12.00000

 Molecular mass:    37.00783 amu.
 Principal axes and moments of inertia in atomic units:
                           1         2         3
     Eigenvalues --    40.03665  52.87440  92.91105
           X            0.00000   0.00000   1.00000
           Y            0.00000   1.00000  -0.00000
           Z            1.00000  -0.00000  -0.00000
 This molecule is an asymmetric top.
 Rotational symmetry number  2.
 Rotational temperatures (Kelvin)      2.16336     1.63811     0.93222
 Rotational constants (GHZ):          45.07723    34.13261    19.42440
 Zero-point vibrational energy      50402.8 (Joules/Mol)
                                   12.04657 (Kcal/Mol)
 Warning -- explicit consideration of   1 degrees of freedom as
           vibrations may cause significant error
 Vibrational temperatures:    804.73  1260.61  1322.01  1767.03  2324.89
          (Kelvin)           4644.85

 Zero-point correction=                           0.019197 (Hartree/Particle)
 Thermal correction to Energy=                    0.022341
 Thermal correction to Enthalpy=                  0.023285
 Thermal correction to Gibbs Free Energy=        -0.004045
 Sum of electronic and zero-point Energies=           -114.693096
 Sum of electronic and thermal Energies=              -114.689952
 Sum of electronic and thermal Enthalpies=            -114.689008
 Sum of electronic and thermal Free Energies=         -114.716338

                     E (Thermal)             CV                S
                      KCal/Mol        Cal/Mol-Kelvin    Cal/Mol-Kelvin
 Total                   14.019              8.326             57.522
 Electronic               0.000              0.000              1.377
 Translational            0.889              2.981             36.755
 Rotational               0.889              2.981             18.537
 Vibrational             12.242              2.365              0.852
 Vibration     1          0.915              1.119              0.525

 Optimization completed.
    -- Stationary point found.
 Normal termination of Gaussian 09 at Sun Mar  4 20:56:25 2018.
