 Gaussian 09, Revision D.01,
 Gaussian 09:  ES64L-G09RevD.01 24-Apr-2013

 ---------------------------
 #p b3lyp/6-311++g(d,p) freq
 ---------------------------

 ---
 min
 ---
 Symbolic Z-matrix:
 Charge =  1 Multiplicity = 1

                         Standard orientation:
 ---------------------------------------------------------------------
 Center     Atomic      Atomic             Coordinates (Angstroms)
 Number     Number       Type             X           Y           Z
 ---------------------------------------------------------------------
      1          6           0       -0.000000    0.000000    1.143966
      2          6           0        0.000000   -0.000000   -1.427880
      3          6           0       -0.000000   -0.000000   -0.087005
      4          1           0        0.000000    0.000000    2.225515
 ---------------------------------------------------------------------

 SCF Done:  E(RB3LYP) =  -114.369799677     A.U. after   11 cycles

 The electronic state is 1-SG.
 Alpha  occ. eigenvalues --  -10.61103 -10.59288 -10.50398  -1.13198  -1.02000
 Alpha  occ. eigenvalues --   -0.86018  -0.65567  -0.65567  -0.61297
 Alpha virt. eigenvalues --   -0.44498  -0.44498  -0.20679  -0.20679  -0.17951
 Alpha virt. eigenvalues --   -0.16428  -0.10640  -0.10640  -0.10137  -0.05828
 Alpha virt. eigenvalues --   -0.05623  -0.05623  -0.02381   0.00451   0.00451

 Mulliken charges:
               1
     1  C   -1.608510
     2  C    0.678744
     3  C    1.660484
     4  H    0.269283
 Sum of Mulliken charges =   1.00000

 Dipole moment (field-independent basis, Debye):
    X=             -0.0000    Y=             -0.0000    Z=              3.0015  Tot=              3.0015
 Quadrupole moment (field-independent basis, Debye-Ang):
   XX=            -14.6681   YY=            -14.6681   ZZ=             -4.6424
   XY=             -0.0000   XZ=              0.0000   YZ=              0.0000

  Exact polarizability:  15.017  -0.000  15.017  -0.001  -0.001  44.631
 Approx polarizability:  20.906  -0.000  20.906  -0.000   0.000 120.016

                      1                      2                      3
                     PI                     PI                     PI
 Frequencies --    190.9587               190.9596               844.4086
 Red. masses --      5.0173                 5.0174                 1.3414
 Frc consts  --      0.1078                 0.1078                 0.5635
 IR Inten    --      3.1280                 3.1280                14.4972

                      4                      5                      6
                     PI                     SG                     SG
 Frequencies --    844.4087              1203.0121              2181.0331
 Red. masses --      1.3414                 8.4097                 6.1504
 Frc consts  --      0.5635                 7.1709                17.2377
 IR Inten    --     14.4974                70.3158               909.6044

                      7
                     SG
 Frequencies --   3313.0933
 Red. masses --      1.1728
 Frc consts  --      7.5848
 IR Inten    --    106.0932

 - Thermochemistry -
 -------------------
 Temperature   298.150 Kelvin.  Pressure   1.00000 Atm.
 Atom     1 has atomic number  6 and mass  12.00000

 Molecular mass:    37.00783 amu.
 Principal axes and moments of inertia in atomic units:
                           1         2         3
     Eigenvalues --     0.00000 161.12916 161.12916
           X           -0.00000   1.00000  -0.00003
           Y            0.00000   0.00003   1.00000
           Z            1.00000   0.00000  -0.00000
 This molecule is a prolate symmetric top.
 Rotational symmetry number  1.
 Rotational temperature (Kelvin)      0.53754
 Rotational constant (GHZ):          11.200587
 Zero-point vibrational energy      52443.5 (Joules/Mol)
                                   12.53431 (Kcal/Mol)
 Warning -- explicit consideration of   2 degrees of freedom as
           vibrations may cause significant error
 Vibrational temperatures:    274.75   274.75  1214.91  1214.91  1730.86
          (Kelvin)           3138.02  4766.80

 Zero-point correction=                           0.019975 (Hartree/Particle)
 Thermal correction to Energy=                    0.023635
 Thermal correction to Enthalpy=                  0.024579
 Thermal correction to Gibbs Free Energy=        -0.002087
 Sum of electronic and zero-point Energies=           -114.349825
 Sum of electronic and thermal Energies=              -114.346165
 Sum of electronic and thermal Enthalpies=            -114.345220
 Sum of electronic and thermal Free Energies=         -114.371887

                     E (Thermal)             CV                S
                      KCal/Mol        Cal/Mol-Kelvin    Cal/Mol-Kelvin
 Total                   14.831             10.042             56.125
 Electronic               0.000              0.000              0.000
 Translational            0.889              2.981             36.755
 Rotational               0.592              1.987             14.543
 Vibrational             13.350              5.074              4.827
 Vibration     1          0.634              1.852              2.219
 Vibration     2          0.634              1.852              2.218

 Optimization completed.
    -- Stationary point found.
 Normal termination of Gaussian 09 at Thu Jan 24 15:36:17 2019.
