 Gaussian 09, Revision D.01,
 Gaussian 09:  ES64L-G09RevD.01 24-Apr-2013

 ---------------------------
 #p b3lyp/6-311++g(d,p) freq
 ---------------------------

 ---
 min
 ---
 Symbolic Z-matrix:
 Charge =  1 Multiplicity = 1

                         Standard orientation:
 ---------------------------------------------------------------------
 Center     Atomic      Atomic             Coordinates (Angstroms)
 Number     Number       Type             X           Y           Z
 ---------------------------------------------------------------------
      1          1           0        0.000000   -0.000000    1.447635
      2          6           0        0.000000   -0.000000    0.331709
      3          6           0        0.000000    1.210003   -0.286490
      4          6           0       -0.000000   -1.210003   -0.286490
 ---------------------------------------------------------------------

 SCF Done:  E(RB3LYP) =  -114.280668362     A.U. after   10 cycles

 The electronic state is 1-A1.
 Alpha  occ. eigenvalues --  -10.63277 -10.63275 -10.51359  -1.16426  -0.98690
 Alpha  occ. eigenvalues --   -0.82634  -0.65840  -0.64597  -0.61694
 Alpha virt. eigenvalues --   -0.44487  -0.44332  -0.42038  -0.25584  -0.17529
 Alpha virt. eigenvalues --   -0.13497  -0.11530  -0.10801  -0.07560  -0.07137
 Alpha virt. eigenvalues --   -0.06554  -0.05284  -0.03858  -0.03340  -0.02058

 Mulliken charges:
               1
     1  H    0.350369
     2  C   -0.214949
     3  C    0.432290
     4  C    0.432290
 Sum of Mulliken charges =   1.00000

 Dipole moment (field-independent basis, Debye):
    X=             -0.0000    Y=              0.0000    Z=              1.5896  Tot=              1.5896
 Quadrupole moment (field-independent basis, Debye-Ang):
   XX=            -15.3737   YY=            -13.7031   ZZ=            -11.1162
   XY=              0.0000   XZ=              0.0000   YZ=             -0.0000

  Exact polarizability:  18.498   0.000  39.847   0.000  -0.000  22.966
 Approx polarizability:  26.677   0.000  97.998   0.000   0.000  37.668

                      1                      2                      3
                     A1                     B1                     B2
 Frequencies --    351.8073               471.1829               721.4547
 Red. masses --      9.3792                 1.6980                 1.0917
 Frc consts  --      0.6840                 0.2221                 0.3348
 IR Inten    --     10.8055                20.7480                20.3082

                      4                      5                      6
                     A1                     B2                     A1
 Frequencies --   1222.1616              1624.7818              2894.1649
 Red. masses --      9.5368                11.7945                 1.0838
 Frc consts  --      8.3929                18.3451                 5.3487
 IR Inten    --     17.0365               671.5730               343.4088

 - Thermochemistry -
 -------------------
 Temperature   298.150 Kelvin.  Pressure   1.00000 Atm.
 Atom     1 has atomic number  1 and mass   1.00783

 Molecular mass:    37.00783 amu.
 Principal axes and moments of inertia in atomic units:
                           1         2         3
     Eigenvalues --    19.09273 125.48213 144.57486
           X            0.00000   0.00000   1.00000
           Y            1.00000   0.00000  -0.00000
           Z            0.00000   1.00000   0.00000
 This molecule is an asymmetric top.
 Rotational symmetry number  2.
 Rotational temperatures (Kelvin)      4.53648     0.69025     0.59909
 Rotational constants (GHZ):          94.52504    14.38246    12.48309
 Zero-point vibrational energy      43577.3 (Joules/Mol)
                                   10.41522 (Kcal/Mol)
 Warning -- explicit consideration of   2 degrees of freedom as
           vibrations may cause significant error
 Vibrational temperatures:    506.17   677.93  1038.01  1758.42  2337.70
          (Kelvin)           4164.05

 Zero-point correction=                           0.016598 (Hartree/Particle)
 Thermal correction to Energy=                    0.020158
 Thermal correction to Enthalpy=                  0.021103
 Thermal correction to Gibbs Free Energy=        -0.006490
 Sum of electronic and zero-point Energies=           -114.264071
 Sum of electronic and thermal Energies=              -114.260510
 Sum of electronic and thermal Enthalpies=            -114.259566
 Sum of electronic and thermal Free Energies=         -114.287158

                     E (Thermal)             CV                S
                      KCal/Mol        Cal/Mol-Kelvin    Cal/Mol-Kelvin
 Total                   12.650              9.875             58.073
 Electronic               0.000              0.000              0.000
 Translational            0.889              2.981             36.755
 Rotational               0.889              2.981             19.099
 Vibrational             10.872              3.914              2.219
 Vibration     1          0.728              1.572              1.158
 Vibration     2          0.828              1.314              0.734

 Optimization completed.
    -- Stationary point found.
 Normal termination of Gaussian 09 at Thu Jan 24 15:36:17 2019.
