 Gaussian 09, Revision D.01,
 Gaussian 09:  ES64L-G09RevD.01 24-Apr-2013

 ---------------------------
 #p b3lyp/6-311++g(d,p) freq
 ---------------------------

 ---
 min
 ---
 Symbolic Z-matrix:
 Charge =  0 Multiplicity = 4

                         Standard orientation:
 ---------------------------------------------------------------------
 Center     Atomic      Atomic             Coordinates (Angstroms)
 Number     Number       Type             X           Y           Z
 ---------------------------------------------------------------------
      1          6           0        0.000000    0.000000    1.144416
      2          6           0       -0.000000   -0.000000   -0.111726
      3          6           0       -0.000000   -0.000000   -1.400564
      4          1           0        0.000000    0.000000    2.207242
 ---------------------------------------------------------------------

 SCF Done:  E(UB3LYP) =  -114.661198668     A.U. after   14 cycles

 The electronic state is 4-SG.
 Alpha  occ. eigenvalues --  -10.26746 -10.21702 -10.21431  -0.82112  -0.72420
 Alpha  occ. eigenvalues --   -0.55356  -0.42867  -0.37635  -0.37635  -0.24386
 Alpha  occ. eigenvalues --   -0.24386
 Alpha virt. eigenvalues --   -0.00052   0.03289   0.03754   0.03754   0.05693
 Alpha virt. eigenvalues --    0.08223   0.08223   0.09508   0.09508   0.10210
 Alpha virt. eigenvalues --    0.12299   0.15991   0.15991   0.19201   0.21115

  Beta  occ. eigenvalues --  -10.22886 -10.21816 -10.19983  -0.79151  -0.66200
  Beta  occ. eigenvalues --   -0.53488  -0.33306  -0.33306
  Beta virt. eigenvalues --   -0.19306  -0.09617  -0.09617   0.00186   0.04325
  Beta virt. eigenvalues --    0.04441   0.04441   0.06511   0.10496   0.10496
  Beta virt. eigenvalues --    0.10884   0.12161   0.12161   0.12926   0.16960

 Mulliken charges and spin densities:
               1          2
     1  C   -1.946340   1.220567
     2  C    1.648478  -0.167483
     3  C    0.167489   2.000536
     4  H    0.130373  -0.053621
 Sum of Mulliken charges =   0.00000   3.00000

 Dipole moment (field-independent basis, Debye):
    X=              0.0000    Y=              0.0000    Z=              0.7361  Tot=              0.7361
 Quadrupole moment (field-independent basis, Debye-Ang):
   XX=            -18.5889   YY=            -18.5889   ZZ=            -12.3826
   XY=             -0.0000   XZ=             -0.0000   YZ=             -0.0000

  Exact polarizability:  17.254   0.000  17.254  -0.002   0.001  54.849
 Approx polarizability:  20.044   0.000  20.044   0.000   0.000  98.229

                      1                      2                      3
                     PI                     PI                     PI
 Frequencies --    277.7052               277.7059               444.1582
 Red. masses --      1.5007                 1.5007                 3.5976
 Frc consts  --      0.0682                 0.0682                 0.4182
 IR Inten    --     54.2307                54.2307                13.9915

                      4                      5                      6
                     PI                     SG                     SG
 Frequencies --    444.1583              1283.2843              1725.2833
 Red. masses --      3.5976                 8.1709                 8.4983
 Frc consts  --      0.4182                 7.9280                14.9040
 IR Inten    --     13.9916                 0.6336                 0.8465

                      7
                     SG
 Frequencies --   3453.7824
 Red. masses --      1.1185
 Frc consts  --      7.8606
 IR Inten    --     70.3320

 - Thermochemistry -
 -------------------
 Temperature   298.150 Kelvin.  Pressure   1.00000 Atm.
 Atom     1 has atomic number  6 and mass  12.00000

 Molecular mass:    37.00783 amu.
 Principal axes and moments of inertia in atomic units:
                           1         2         3
     Eigenvalues --     0.00000 157.78913 157.78913
           X            0.00000   0.51448   0.85750
           Y            0.00000   0.85750  -0.51448
           Z            1.00000  -0.00000   0.00000
 This molecule is a prolate symmetric top.
 Rotational symmetry number  1.
 Rotational temperature (Kelvin)      0.54892
 Rotational constant (GHZ):          11.437677
 Zero-point vibrational energy      47288.8 (Joules/Mol)
                                   11.30231 (Kcal/Mol)
 Warning -- explicit consideration of   4 degrees of freedom as
           vibrations may cause significant error
 Vibrational temperatures:    399.56   399.56   639.04   639.04  1846.36
          (Kelvin)           2482.29  4969.22

 Zero-point correction=                           0.018011 (Hartree/Particle)
 Thermal correction to Energy=                    0.021821
 Thermal correction to Enthalpy=                  0.022765
 Thermal correction to Gibbs Free Energy=        -0.005157
 Sum of electronic and zero-point Energies=           -114.643187
 Sum of electronic and thermal Energies=              -114.639378
 Sum of electronic and thermal Enthalpies=            -114.638434
 Sum of electronic and thermal Free Energies=         -114.666356

                     E (Thermal)             CV                S
                      KCal/Mol        Cal/Mol-Kelvin    Cal/Mol-Kelvin
 Total                   13.693             11.335             58.768
 Electronic               0.000              0.000              2.755
 Translational            0.889              2.981             36.755
 Rotational               0.592              1.987             14.501
 Vibrational             12.212              6.367              4.757
 Vibration     1          0.679              1.715              1.548
 Vibration     2          0.679              1.715              1.548
 Vibration     3          0.804              1.374              0.814
 Vibration     4          0.804              1.374              0.814

 Optimization completed.
    -- Stationary point found.
 Normal termination of Gaussian 09 at Sun Mar  4 20:56:23 2018.
