 Gaussian 09, Revision D.01,
 Gaussian 09:  ES64L-G09RevD.01 24-Apr-2013

 ---------------------------
 #p b3lyp/6-311++g(d,p) freq
 ---------------------------

 ---
 min
 ---
 Symbolic Z-matrix:
 Charge =  1 Multiplicity = 1

                         Standard orientation:
 ---------------------------------------------------------------------
 Center     Atomic      Atomic             Coordinates (Angstroms)
 Number     Number       Type             X           Y           Z
 ---------------------------------------------------------------------
      1          6           0       -0.203945   -1.828966   -0.000000
      2          6           0        0.000000    0.561106   -0.000000
      3          6           0        0.531973   -0.706527    0.000000
      4          1           0        1.625350   -0.855129    0.000000
      5          8           0       -0.449190    1.587682   -0.000000
 ---------------------------------------------------------------------

 SCF Done:  E(RB3LYP) =  -189.694993771     A.U. after   12 cycles

 The electronic state is 1-A'.
 Alpha  occ. eigenvalues --  -19.53163 -10.64016 -10.57743 -10.50609  -1.46835
 Alpha  occ. eigenvalues --   -1.13839  -0.95192  -0.83194  -0.81212  -0.77982
 Alpha  occ. eigenvalues --   -0.75083  -0.60698  -0.59009
 Alpha virt. eigenvalues --   -0.40432  -0.36954  -0.33511  -0.20628  -0.19928
 Alpha virt. eigenvalues --   -0.14606  -0.11477  -0.11161  -0.09310  -0.06780
 Alpha virt. eigenvalues --   -0.06141  -0.05915  -0.05227  -0.03535  -0.02061

 Mulliken charges:
               1
     1  C    0.327638
     2  C    0.239090
     3  C    0.032316
     4  H    0.323075
     5  O    0.077881
 Sum of Mulliken charges =   1.00000

 Dipole moment (field-independent basis, Debye):
    X=              1.9364    Y=             -0.8267    Z=              0.0000  Tot=              2.1055
 Quadrupole moment (field-independent basis, Debye-Ang):
   XX=            -15.4801   YY=            -16.2198   ZZ=            -20.1572
   XY=             -2.5377   XZ=             -0.0000   YZ=             -0.0000

  Exact polarizability:  24.012  -2.313  47.156  -0.000   0.000  17.716
 Approx polarizability:  38.686  -3.735  92.362   0.000  -0.000  24.404

                      1                      2                      3
                     A'                     A"                     A'
 Frequencies --    216.2870               435.9296               533.0031
 Red. masses --     10.6965                 2.0814                 4.6661
 Frc consts  --      0.2948                 0.2330                 0.7810
 IR Inten    --     14.7321                 2.1802                 0.2569

                      4                      5                      6
                     A"                     A'                     A'
 Frequencies --    643.6587               970.3152              1024.3005
 Red. masses --      3.3911                 2.6827                 1.9013
 Frc consts  --      0.8278                 1.4882                 1.1753
 IR Inten    --     57.2514                 1.6254                 1.3202

                      7                      8                      9
                     A'                     A'                     A'
 Frequencies --   1617.3732              2367.1405              3005.0449
 Red. masses --      9.2197                13.0218                 1.0838
 Frc consts  --     14.2098                42.9900                 5.7666
 IR Inten    --    342.4801               512.6228               222.3431

 - Thermochemistry -
 -------------------
 Temperature   298.150 Kelvin.  Pressure   1.00000 Atm.
 Atom     1 has atomic number  6 and mass  12.00000

 Molecular mass:    53.00274 amu.
 Principal axes and moments of inertia in atomic units:
                           1         2         3
     Eigenvalues --    27.71639 331.84738 359.56377
           X           -0.15226   0.98834   0.00000
           Y            0.98834   0.15226   0.00000
           Z            0.00000   0.00000   1.00000
 This molecule is an asymmetric top.
 Rotational symmetry number  1.
 Rotational temperatures (Kelvin)      3.12500     0.26100     0.24089
 Rotational constants (GHZ):          65.11458     5.43847     5.01925
 Zero-point vibrational energy      64676.4 (Joules/Mol)
                                   15.45803 (Kcal/Mol)
 Warning -- explicit consideration of   3 degrees of freedom as
           vibrations may cause significant error
 Vibrational temperatures:    311.19   627.20   766.87   926.08  1396.07
          (Kelvin)           1473.74  2327.04  3405.78  4323.58

 Zero-point correction=                           0.024634 (Hartree/Particle)
 Thermal correction to Energy=                    0.028694
 Thermal correction to Enthalpy=                  0.029639
 Thermal correction to Gibbs Free Energy=        -0.001023
 Sum of electronic and zero-point Energies=           -189.670360
 Sum of electronic and thermal Energies=              -189.666299
 Sum of electronic and thermal Enthalpies=            -189.665355
 Sum of electronic and thermal Free Energies=         -189.696017

                     E (Thermal)             CV                S
                      KCal/Mol        Cal/Mol-Kelvin    Cal/Mol-Kelvin
 Total                   18.006             12.102             64.532
 Electronic               0.000              0.000              0.000
 Translational            0.889              2.981             37.826
 Rotational               0.889              2.981             22.718
 Vibrational             16.229              6.141              3.988
 Vibration     1          0.645              1.816              1.990
 Vibration     2          0.796              1.392              0.840
 Vibration     3          0.888              1.177              0.581

 Optimization completed.
    -- Stationary point found.
 Normal termination of Gaussian 09 at Thu Jan 24 15:39:14 2019.
