 Gaussian 09, Revision D.01,
 Gaussian 09:  ES64L-G09RevD.01 24-Apr-2013

 ---------------------------
 #p b3lyp/6-311++g(d,p) freq
 ---------------------------

 ---
 min
 ---
 Symbolic Z-matrix:
 Charge =  1 Multiplicity = 3

                         Standard orientation:
 ---------------------------------------------------------------------
 Center     Atomic      Atomic             Coordinates (Angstroms)
 Number     Number       Type             X           Y           Z
 ---------------------------------------------------------------------
      1          6           0       -0.000000    0.530599    0.000000
      2          6           0       -0.443852   -0.712482   -0.000000
      3          6           0       -1.138462   -1.737442   -0.000000
      4          1           0        0.976228    2.150278    0.000000
      5          8           0        1.064707    1.170709    0.000000
 ---------------------------------------------------------------------

 SCF Done:  E(UB3LYP) =  -189.602403293     A.U. after   16 cycles

 The electronic state is 3-A'.
 Alpha  occ. eigenvalues --  -19.50856 -10.59025 -10.55655 -10.47641  -1.42869
 Alpha  occ. eigenvalues --   -1.09023  -1.00061  -0.89969  -0.78332  -0.73542
 Alpha  occ. eigenvalues --   -0.67825  -0.62033  -0.59758  -0.51498
 Alpha virt. eigenvalues --   -0.38558  -0.24714  -0.19648  -0.15787  -0.13250
 Alpha virt. eigenvalues --   -0.10394  -0.10273  -0.07932  -0.06799  -0.05457
 Alpha virt. eigenvalues --   -0.05059  -0.03689  -0.01262   0.00162   0.00674

  Beta  occ. eigenvalues --  -19.50723 -10.57828 -10.52549 -10.47737  -1.42312
  Beta  occ. eigenvalues --   -1.07377  -0.97230  -0.88600  -0.75331  -0.73655
  Beta  occ. eigenvalues --   -0.58424  -0.58349
  Beta virt. eigenvalues --   -0.44113  -0.37181  -0.35249  -0.22055  -0.17744
  Beta virt. eigenvalues --   -0.13697  -0.12109  -0.10121  -0.09962  -0.06733
  Beta virt. eigenvalues --   -0.06357  -0.05094  -0.04540  -0.03087  -0.00808

 Mulliken charges and spin densities:
               1          2
     1  C   -0.014924   0.584820
     2  C    0.673040   0.000086
     3  C   -0.089663   1.381261
     4  H    0.383936   0.016057
     5  O    0.047611   0.017776
 Sum of Mulliken charges =   1.00000   2.00000

 Dipole moment (field-independent basis, Debye):
    X=             -0.6295    Y=              1.2484    Z=             -0.0000  Tot=              1.3981
 Quadrupole moment (field-independent basis, Debye-Ang):
   XX=            -16.7769   YY=             -2.9201   ZZ=            -19.7031
   XY=              8.5387   XZ=             -0.0000   YZ=              0.0000

  Exact polarizability:  29.572  18.347  47.966  -0.005  -0.010  16.401
 Approx polarizability:  52.306  45.678  99.335   0.000   0.000  20.735

                      1                      2                      3
                     ?A                     ?A                     A'
 Frequencies --    230.3233               240.9223               435.0495
 Red. masses --      5.3631                 7.3290                 9.1878
 Frc consts  --      0.1676                 0.2506                 1.0246
 IR Inten    --     31.4066                12.2545                 4.7869

                      4                      5                      6
                     A"                     A'                     A'
 Frequencies --    650.4310               958.6309              1185.3474
 Red. masses --      1.3682                 6.2095                 1.2964
 Frc consts  --      0.3410                 3.3621                 1.0732
 IR Inten    --     81.7644                 4.9458               261.1643

                      7                      8                      9
                     A'                     A'                     A'
 Frequencies --   1747.0410              1999.9633              3566.0076
 Red. masses --     10.1825                11.9011                 1.0672
 Frc consts  --     18.3109                28.0467                 7.9954
 IR Inten    --    186.4515               476.7256               533.1993

 - Thermochemistry -
 -------------------
 Temperature   298.150 Kelvin.  Pressure   1.00000 Atm.
 Atom     1 has atomic number  6 and mass  12.00000

 Molecular mass:    53.00274 amu.
 Principal axes and moments of inertia in atomic units:
                           1         2         3
     Eigenvalues --     7.19045 382.70406 389.89450
           X            0.57675   0.81692   0.00000
           Y            0.81692  -0.57675   0.00000
           Z           -0.00000  -0.00000   1.00000
 This molecule is an asymmetric top.
 Rotational symmetry number  1.
 Rotational temperatures (Kelvin)     12.04568     0.22632     0.22215
 Rotational constants (GHZ):         250.99158     4.71576     4.62879
 Zero-point vibrational energy      65876.7 (Joules/Mol)
                                   15.74490 (Kcal/Mol)
 Warning -- explicit consideration of   3 degrees of freedom as
           vibrations may cause significant error
 Vibrational temperatures:    331.38   346.63   625.94   935.82  1379.25
          (Kelvin)           1705.45  2513.60  2877.50  5130.68

 Zero-point correction=                           0.025091 (Hartree/Particle)
 Thermal correction to Energy=                    0.029412
 Thermal correction to Enthalpy=                  0.030356
 Thermal correction to Gibbs Free Energy=        -0.001313
 Sum of electronic and zero-point Energies=           -189.577312
 Sum of electronic and thermal Energies=              -189.572991
 Sum of electronic and thermal Enthalpies=            -189.572047
 Sum of electronic and thermal Free Energies=         -189.603717

                     E (Thermal)             CV                S
                      KCal/Mol        Cal/Mol-Kelvin    Cal/Mol-Kelvin
 Total                   18.456             12.537             66.654
 Electronic               0.000              0.000              2.183
 Translational            0.889              2.981             37.826
 Rotational               0.889              2.981             21.600
 Vibrational             16.679              6.575              5.045
 Vibration     1          0.652              1.795              1.876
 Vibration     2          0.658              1.778              1.796
 Vibration     3          0.796              1.394              0.842

 Optimization completed.
    -- Stationary point found.
 Normal termination of Gaussian 09 at Thu Jan 24 15:40:04 2019.
