 Gaussian 09, Revision D.01,
 Gaussian 09:  ES64L-G09RevD.01 24-Apr-2013

 ---------------------------
 #p b3lyp/6-311++g(d,p) freq
 ---------------------------

 ---
 min
 ---
 Symbolic Z-matrix:
 Charge =  0 Multiplicity = 2

                         Standard orientation:
 ---------------------------------------------------------------------
 Center     Atomic      Atomic             Coordinates (Angstroms)
 Number     Number       Type             X           Y           Z
 ---------------------------------------------------------------------
      1          6           0        0.000000    0.733321   -0.000000
      2          6           0       -1.041745   -1.713295   -0.000000
      3          6           0       -0.380110   -0.660907   -0.000000
      4          1           0       -0.816763    1.472442   -0.000000
      5          8           0        1.168487    1.046605    0.000000
 ---------------------------------------------------------------------

 SCF Done:  E(UB3LYP) =  -189.985331127     A.U. after   22 cycles

 The electronic state is 2-A'.
 Alpha  occ. eigenvalues --  -19.18065 -10.32368 -10.26841 -10.23974  -1.10878
 Alpha  occ. eigenvalues --   -0.83011  -0.70498  -0.57296  -0.50010  -0.45473
 Alpha  occ. eigenvalues --   -0.39886  -0.34273  -0.33879  -0.32424
 Alpha virt. eigenvalues --   -0.11132  -0.04289   0.00552   0.03247   0.03422
 Alpha virt. eigenvalues --    0.04067   0.06181   0.06320   0.07768   0.09115
 Alpha virt. eigenvalues --    0.10662   0.13075   0.14211   0.14476   0.15770

  Beta  occ. eigenvalues --  -19.17806 -10.32368 -10.25467 -10.23598  -1.10377
  Beta  occ. eigenvalues --   -0.80882  -0.69264  -0.56661  -0.49497  -0.45445
  Beta  occ. eigenvalues --   -0.32906  -0.32889  -0.31452
  Beta virt. eigenvalues --   -0.22825  -0.10363  -0.02388   0.01324   0.03558
  Beta virt. eigenvalues --    0.03841   0.04227   0.06440   0.06823   0.08094
  Beta virt. eigenvalues --    0.09377   0.10723   0.13238   0.14551   0.14702

 Mulliken charges and spin densities:
               1          2
     1  C    0.055837   0.011218
     2  C   -0.577302   0.637722
     3  C    0.552692   0.270494
     4  H    0.139634  -0.004760
     5  O   -0.170861   0.085327
 Sum of Mulliken charges =  -0.00000   1.00000

 Dipole moment (field-independent basis, Debye):
    X=             -1.3562    Y=              0.5434    Z=             -0.0000  Tot=              1.4611
 Quadrupole moment (field-independent basis, Debye-Ang):
   XX=            -26.3822   YY=            -22.5139   ZZ=            -22.5673
   XY=             -3.9778   XZ=             -0.0000   YZ=             -0.0000

  Exact polarizability:  50.791  33.160  76.556   0.000   0.000  24.259
 Approx polarizability:  95.312  73.944 131.310   0.000   0.000  28.117

                      1                      2                      3
                     A"                     A'                     A'
 Frequencies --    218.0592               220.5803               523.3485
 Red. masses --      9.1172                 8.4388                11.6317
 Frc consts  --      0.2554                 0.2419                 1.8770
 IR Inten    --      0.2572                32.6910               172.5143

                      4                      5                      6
                     A'                     A"                     A'
 Frequencies --    886.4646               970.5370              1378.2833
 Red. masses --      6.2747                 1.6320                 1.1860
 Frc consts  --      2.9051                 0.9057                 1.3274
 IR Inten    --    505.1594                 5.7584                 5.3340

                      7                      8                      9
                     A'                     A'                     A'
 Frequencies --   1490.1071              1750.5668              2991.2958
 Red. masses --     10.5688                10.2134                 1.0870
 Frc consts  --     13.8265                18.4408                 5.7306
 IR Inten    --    447.9966               301.4314                59.3734

 - Thermochemistry -
 -------------------
 Temperature   298.150 Kelvin.  Pressure   1.00000 Atm.
 Atom     1 has atomic number  6 and mass  12.00000

 Molecular mass:    53.00274 amu.
 Principal axes and moments of inertia in atomic units:
                           1         2         3
     Eigenvalues --    23.83366 346.98512 370.81878
           X            0.58133   0.81367  -0.00000
           Y            0.81367  -0.58133   0.00000
           Z            0.00000   0.00000   1.00000
 This molecule is an asymmetric top.
 Rotational symmetry number  1.
 Rotational temperatures (Kelvin)      3.63410     0.24962     0.23357
 Rotational constants (GHZ):          75.72238     5.20121     4.86691
 Zero-point vibrational energy      62380.7 (Joules/Mol)
                                   14.90935 (Kcal/Mol)
 Warning -- explicit consideration of   3 degrees of freedom as
           vibrations may cause significant error
 Vibrational temperatures:    313.74   317.37   752.98  1275.42  1396.38
          (Kelvin)           1983.04  2143.93  2518.67  4303.80

 Zero-point correction=                           0.023760 (Hartree/Particle)
 Thermal correction to Energy=                    0.027975
 Thermal correction to Enthalpy=                  0.028919
 Thermal correction to Gibbs Free Energy=        -0.002757
 Sum of electronic and zero-point Energies=           -189.961572
 Sum of electronic and thermal Energies=              -189.957356
 Sum of electronic and thermal Enthalpies=            -189.956412
 Sum of electronic and thermal Free Energies=         -189.988088

                     E (Thermal)             CV                S
                      KCal/Mol        Cal/Mol-Kelvin    Cal/Mol-Kelvin
 Total                   17.554             11.935             66.667
 Electronic               0.000              0.000              1.377
 Translational            0.889              2.981             37.826
 Rotational               0.889              2.981             22.643
 Vibrational             15.777              5.973              4.820
 Vibration     1          0.646              1.814              1.975
 Vibration     2          0.647              1.810              1.954
 Vibration     3          0.878              1.198              0.602

 Optimization completed.
    -- Stationary point found.
 Normal termination of Gaussian 09 at Sun Mar  4 21:14:00 2018.
