 Gaussian 09, Revision D.01,
 Gaussian 09:  ES64L-G09RevD.01 24-Apr-2013

 ---------------------------
 #p b3lyp/6-311++g(d,p) freq
 ---------------------------

 ---
 min
 ---
 Symbolic Z-matrix:
 Charge =  1 Multiplicity = 1

                         Standard orientation:
 ---------------------------------------------------------------------
 Center     Atomic      Atomic             Coordinates (Angstroms)
 Number     Number       Type             X           Y           Z
 ---------------------------------------------------------------------
      1          6           0        0.000000   -0.000000    0.670842
      2          6           0       -0.000000    0.000000   -0.662865
      3          6           0        0.000000   -0.000000    1.881822
      4          1           0        0.000000   -0.000000    2.957703
      5          8           0       -0.000000    0.000000   -1.787062
 ---------------------------------------------------------------------

 SCF Done:  E(RB3LYP) =  -189.784610748     A.U. after   11 cycles

 The electronic state is 1-SG.
 Alpha  occ. eigenvalues --  -19.51722 -10.62583 -10.52673 -10.49182  -1.45147
 Alpha  occ. eigenvalues --   -1.10285  -0.98983  -0.81993  -0.80719  -0.76545
 Alpha  occ. eigenvalues --   -0.76545  -0.60565  -0.60565
 Alpha virt. eigenvalues --   -0.36800  -0.36800  -0.17976  -0.15461  -0.15112
 Alpha virt. eigenvalues --   -0.15112  -0.12106  -0.10490  -0.10490  -0.07615
 Alpha virt. eigenvalues --   -0.05303  -0.05303  -0.05299  -0.00952  -0.00060

 Mulliken charges:
               1
     1  C    2.501890
     2  C   -0.464446
     3  C   -1.390161
     4  H    0.248189
     5  O    0.104529
 Sum of Mulliken charges =   1.00000

 Dipole moment (field-independent basis, Debye):
    X=              0.0000    Y=             -0.0000    Z=              3.5364  Tot=              3.5364
 Quadrupole moment (field-independent basis, Debye-Ang):
   XX=            -19.3656   YY=            -19.3656   ZZ=             -2.7196
   XY=              0.0000   XZ=              0.0000   YZ=              0.0000

  Exact polarizability:  13.461   0.000  13.461   0.000   0.000  57.993
 Approx polarizability:  17.338  -0.000  17.338   0.000  -0.000 136.837

                      1                      2                      3
                     PI                     PI                     PI
 Frequencies --    207.8832               207.8833               607.1274
 Red. masses --      4.9335                 4.9335                11.2732
 Frc consts  --      0.1256                 0.1256                 2.4483
 IR Inten    --      2.6481                 2.6481                33.8542

                      4                      5                      6
                     PI                     PI                     PI
 Frequencies --    607.1274               821.8566               821.8567
 Red. masses --     11.2732                 1.2972                 1.2972
 Frc consts  --      2.4483                 0.5162                 0.5162
 IR Inten    --     33.8542                21.2832                21.2832

                      7                      8                      9
                     SG                     SG                     SG
 Frequencies --    944.4324              2158.9836              2415.1761
 Red. masses --      9.1169                 6.3319                10.6961
 Frc consts  --      4.7911                17.3895                36.7598
 IR Inten    --      2.6506                86.6351               981.6646

                     10
                     SG
 Frequencies --   3366.7499
 Red. masses --      1.1774
 Frc consts  --      7.8633
 IR Inten    --    106.9032

 - Thermochemistry -
 -------------------
 Temperature   298.150 Kelvin.  Pressure   1.00000 Atm.
 Atom     1 has atomic number  6 and mass  12.00000

 Molecular mass:    53.00274 amu.
 Principal axes and moments of inertia in atomic units:
                           1         2         3
     Eigenvalues --     0.00000 403.18850 403.18850
           X            0.00000   0.98109  -0.19356
           Y           -0.00000   0.19356   0.98109
           Z            1.00000  -0.00000   0.00000
 This molecule is a prolate symmetric top.
 Rotational symmetry number  1.
 Rotational temperature (Kelvin)      0.21482
 Rotational constant (GHZ):           4.476172
 Zero-point vibrational energy      72727.4 (Joules/Mol)
                                   17.38227 (Kcal/Mol)
 Warning -- explicit consideration of   4 degrees of freedom as
           vibrations may cause significant error
 Vibrational temperatures:    299.10   299.10   873.52   873.52  1182.47
          (Kelvin)           1182.47  1358.83  3106.29  3474.90  4844.00

 Zero-point correction=                           0.027700 (Hartree/Particle)
 Thermal correction to Energy=                    0.031661
 Thermal correction to Enthalpy=                  0.032605
 Thermal correction to Gibbs Free Energy=         0.004245
 Sum of electronic and zero-point Energies=           -189.756910
 Sum of electronic and thermal Energies=              -189.752950
 Sum of electronic and thermal Enthalpies=            -189.752006
 Sum of electronic and thermal Free Energies=         -189.780366

                     E (Thermal)             CV                S
                      KCal/Mol        Cal/Mol-Kelvin    Cal/Mol-Kelvin
 Total                   19.867             12.340             59.689
 Electronic               0.000              0.000              0.000
 Translational            0.889              2.981             37.826
 Rotational               0.592              1.987             16.366
 Vibrational             18.386              7.372              5.498
 Vibration     1          0.641              1.829              2.062
 Vibration     2          0.641              1.829              2.062
 Vibration     3          0.966              1.017              0.438
 Vibration     4          0.966              1.017              0.438

 Optimization completed.
    -- Stationary point found.
 Normal termination of Gaussian 09 at Thu Jan 24 15:39:36 2019.
