 Gaussian 09, Revision D.01,
 Gaussian 09:  ES64L-G09RevD.01 24-Apr-2013

 ---------------------------
 #p b3lyp/6-311++g(d,p) freq
 ---------------------------

 ---
 min
 ---
 Symbolic Z-matrix:
 Charge =  1 Multiplicity = 3

                         Standard orientation:
 ---------------------------------------------------------------------
 Center     Atomic      Atomic             Coordinates (Angstroms)
 Number     Number       Type             X           Y           Z
 ---------------------------------------------------------------------
      1          6           0       -0.427944   -0.270832    0.000347
      2          6           0        0.839343    0.050290    0.000390
      3          6           0        2.082335    0.065755   -0.000365
      4          1           0       -1.900255    0.948899    0.000614
      5          8           0       -1.632769   -0.002522   -0.000356
 ---------------------------------------------------------------------

 SCF Done:  E(UB3LYP) =  -189.596912518     A.U. after   17 cycles

 The electronic state is 3-A.
 Alpha  occ. eigenvalues --  -19.50888 -10.59147 -10.55964 -10.48033  -1.43012
 Alpha  occ. eigenvalues --   -1.09151  -0.99626  -0.93240  -0.76310  -0.73791
 Alpha  occ. eigenvalues --   -0.68105  -0.62332  -0.60072  -0.50821
 Alpha virt. eigenvalues --   -0.38800  -0.25468  -0.17124  -0.15447  -0.13621
 Alpha virt. eigenvalues --   -0.11436  -0.10308  -0.08564  -0.06840  -0.05630
 Alpha virt. eigenvalues --   -0.05156  -0.03646  -0.02062  -0.01442  -0.00014

  Beta  occ. eigenvalues --  -19.50867 -10.57943 -10.52781 -10.48163  -1.42698
  Beta  occ. eigenvalues --   -1.07430  -0.96674  -0.91545  -0.74501  -0.73945
  Beta  occ. eigenvalues --   -0.58794  -0.58624
  Beta virt. eigenvalues --   -0.44287  -0.36260  -0.35394  -0.22879  -0.15088
  Beta virt. eigenvalues --   -0.13416  -0.12544  -0.10653  -0.10054  -0.08031
  Beta virt. eigenvalues --   -0.05696  -0.04999  -0.04736  -0.03060  -0.01642

 Mulliken charges and spin densities:
               1          2
     1  C   -0.323117   0.505386
     2  C    0.864934   0.035930
     3  C    0.049972   1.433187
     4  H    0.361647   0.053949
     5  O    0.046565  -0.028452
 Sum of Mulliken charges =   1.00000   2.00000

 Dipole moment (field-independent basis, Debye):
    X=              0.3111    Y=              1.9174    Z=              0.0018  Tot=              1.9425
 Quadrupole moment (field-independent basis, Debye-Ang):
   XX=             -4.1547   YY=            -18.1994   ZZ=            -19.6359
   XY=             -3.6067   XZ=             -0.0062   YZ=              0.0011

  Exact polarizability:  58.668   0.179  18.506  -0.006  -0.001  16.015
 Approx polarizability: 127.574   6.054  24.476  -0.017  -0.001  20.011

                      1                      2                      3
                      A                      A                      A
 Frequencies --    197.9568               224.7335               350.4637
 Red. masses --      5.5734                10.5655                11.0391
 Frc consts  --      0.1287                 0.3144                 0.7989
 IR Inten    --     14.8077                 1.5427                 4.1575

                      4                      5                      6
                      A                      A                      A
 Frequencies --    633.9338               935.4050              1116.7348
 Red. masses --      2.3539                12.3941                 1.1899
 Frc consts  --      0.5573                 6.3894                 0.8743
 IR Inten    --    147.6066                 7.2118               241.8892

                      7                      8                      9
                      A                      A                      A
 Frequencies --   1775.1176              2004.9731              3461.0331
 Red. masses --     11.3584                11.1631                 1.0656
 Frc consts  --     21.0873                26.4395                 7.5208
 IR Inten    --     87.5417               558.1339               279.5135

 - Thermochemistry -
 -------------------
 Temperature   298.150 Kelvin.  Pressure   1.00000 Atm.
 Atom     1 has atomic number  6 and mass  12.00000

 Molecular mass:    53.00274 amu.
 Principal axes and moments of inertia in atomic units:
                           1         2         3
     Eigenvalues --     6.50737 388.99262 395.49993
           X            0.99986  -0.01702  -0.00002
           Y            0.01702   0.99986   0.00033
           Z            0.00001  -0.00033   1.00000
 This molecule is an asymmetric top.
 Rotational symmetry number  1.
 Rotational temperatures (Kelvin)     13.31012     0.22266     0.21900
 Rotational constants (GHZ):         277.33815     4.63953     4.56319
 Zero-point vibrational energy      64002.3 (Joules/Mol)
                                   15.29692 (Kcal/Mol)
 Warning -- explicit consideration of   3 degrees of freedom as
           vibrations may cause significant error
 Vibrational temperatures:    284.82   323.34   504.24   912.09  1345.84
          (Kelvin)           1606.73  2554.00  2884.71  4979.65

 Zero-point correction=                           0.024377 (Hartree/Particle)
 Thermal correction to Energy=                    0.028872
 Thermal correction to Enthalpy=                  0.029817
 Thermal correction to Gibbs Free Energy=        -0.002187
 Sum of electronic and zero-point Energies=           -189.572535
 Sum of electronic and thermal Energies=              -189.568040
 Sum of electronic and thermal Enthalpies=            -189.567096
 Sum of electronic and thermal Free Energies=         -189.599099

                     E (Thermal)             CV                S
                      KCal/Mol        Cal/Mol-Kelvin    Cal/Mol-Kelvin
 Total                   18.118             12.902             67.356
 Electronic               0.000              0.000              2.183
 Translational            0.889              2.981             37.826
 Rotational               0.889              2.981             21.531
 Vibrational             16.340              6.940              5.816
 Vibration     1          0.637              1.843              2.152
 Vibration     2          0.649              1.803              1.921
 Vibration     3          0.727              1.574              1.164

 Optimization completed.
    -- Stationary point found.
 Normal termination of Gaussian 09 at Thu Jan 24 15:40:28 2019.
