 Gaussian 09, Revision D.01,
 Gaussian 09:  ES64L-G09RevD.01 24-Apr-2013

 ---------------------------
 #p b3lyp/6-311++g(d,p) freq
 ---------------------------

 ---
 min
 ---
 Symbolic Z-matrix:
 Charge =  1 Multiplicity = 1

                         Standard orientation:
 ---------------------------------------------------------------------
 Center     Atomic      Atomic             Coordinates (Angstroms)
 Number     Number       Type             X           Y           Z
 ---------------------------------------------------------------------
      1          6           0       -0.825956    0.008874   -0.000063
      2          6           0        0.419066    0.008459   -0.000241
      3          6           0       -2.143240    0.009309    0.000123
      4          1           0        2.224069    0.684840    0.000156
      5          8           0        1.634589   -0.105586    0.000116
 ---------------------------------------------------------------------

 SCF Done:  E(RB3LYP) =  -189.657106433     A.U. after   14 cycles

 The electronic state is 1-A.
 Alpha  occ. eigenvalues --  -19.53886 -10.62502 -10.54420 -10.46596  -1.46504
 Alpha  occ. eigenvalues --   -1.10093  -1.00354  -0.95097  -0.79507  -0.77254
 Alpha  occ. eigenvalues --   -0.60788  -0.59355  -0.56320
 Alpha virt. eigenvalues --   -0.39802  -0.38156  -0.24182  -0.17078  -0.14153
 Alpha virt. eigenvalues --   -0.14135  -0.11865  -0.11126  -0.09382  -0.06525
 Alpha virt. eigenvalues --   -0.05382  -0.05047  -0.03624  -0.02616  -0.00842

 Mulliken charges:
               1
     1  C    2.149349
     2  C   -2.054065
     3  C    0.546964
     4  H    0.397489
     5  O   -0.039737
 Sum of Mulliken charges =   1.00000

 Dipole moment (field-independent basis, Debye):
    X=              3.2747    Y=              1.6803    Z=             -0.0004  Tot=              3.6806
 Quadrupole moment (field-independent basis, Debye-Ang):
   XX=             -8.2269   YY=            -18.3652   ZZ=            -19.9245
   XY=              4.1062   XZ=              0.0006   YZ=              0.0003

  Exact polarizability:  62.979   0.593  17.916  -0.001  -0.000  17.006
 Approx polarizability: 159.487  -0.958  24.950  -0.009  -0.000  23.098

                      1                      2                      3
                      A                      A                      A
 Frequencies --    137.7461               142.4162               502.5980
 Red. masses --      8.9680                 8.3717                 4.5305
 Frc consts  --      0.1003                 0.1000                 0.6743
 IR Inten    --      2.1297                 0.7812                27.8749

                      4                      5                      6
                      A                      A                      A
 Frequencies --    565.6317               928.2304               990.0685
 Red. masses --      8.7123                12.2810                 1.2957
 Frc consts  --      1.6423                 6.2344                 0.7483
 IR Inten    --      3.1458               115.4175               333.2337

                      7                      8                      9
                      A                      A                      A
 Frequencies --   1720.0417              2328.0695              3541.7734
 Red. masses --     10.8718                11.5336                 1.0680
 Frc consts  --     18.9509                36.8306                 7.8934
 IR Inten    --     22.3586              1725.6944               748.1530

 - Thermochemistry -
 -------------------
 Temperature   298.150 Kelvin.  Pressure   1.00000 Atm.
 Atom     1 has atomic number  6 and mass  12.00000

 Molecular mass:    53.00274 amu.
 Principal axes and moments of inertia in atomic units:
                           1         2         3
     Eigenvalues --     2.22863 403.76497 405.99359
           X            0.99991   0.01369   0.00001
           Y           -0.01369   0.99991   0.00018
           Z           -0.00000  -0.00018   1.00000
 This molecule is an asymmetric top.
 Rotational symmetry number  1.
 Rotational temperatures (Kelvin)     38.86409     0.21452     0.21334
 Rotational constants (GHZ):         809.79716     4.46978     4.44525
 Zero-point vibrational energy      64936.7 (Joules/Mol)
                                   15.52025 (Kcal/Mol)
 Warning -- explicit consideration of   4 degrees of freedom as
           vibrations may cause significant error
 Vibrational temperatures:    198.19   204.90   723.13   813.82  1335.51
          (Kelvin)           1424.49  2474.75  3349.57  5095.82

 Zero-point correction=                           0.024733 (Hartree/Particle)
 Thermal correction to Energy=                    0.029378
 Thermal correction to Enthalpy=                  0.030322
 Thermal correction to Gibbs Free Energy=        -0.000729
 Sum of electronic and zero-point Energies=           -189.632373
 Sum of electronic and thermal Energies=              -189.627728
 Sum of electronic and thermal Enthalpies=            -189.626784
 Sum of electronic and thermal Free Energies=         -189.657835

                     E (Thermal)             CV                S
                      KCal/Mol        Cal/Mol-Kelvin    Cal/Mol-Kelvin
 Total                   18.435             13.026             65.353
 Electronic               0.000              0.000              0.000
 Translational            0.889              2.981             37.826
 Rotational               0.889              2.981             20.530
 Vibrational             16.658              7.065              6.998
 Vibration     1          0.614              1.916              2.835
 Vibration     2          0.616              1.911              2.771
 Vibration     3          0.858              1.244              0.652
 Vibration     4          0.921              1.106              0.513

 Normal termination of Gaussian 09 at Thu Jan 24 15:39:28 2019.
