 Gaussian 09, Revision D.01,
 Gaussian 09:  ES64L-G09RevD.01 24-Apr-2013

 ---------------------------
 #p b3lyp/6-311++g(d,p) freq
 ---------------------------

 ---
 min
 ---
 Symbolic Z-matrix:
 Charge =  0 Multiplicity = 4

                         Standard orientation:
 ---------------------------------------------------------------------
 Center     Atomic      Atomic             Coordinates (Angstroms)
 Number     Number       Type             X           Y           Z
 ---------------------------------------------------------------------
      1          6           0       -0.727372    0.365461    0.000197
      2          6           0       -1.883409   -0.288087   -0.000341
      3          6           0        0.537591   -0.382719    0.000567
      4          1           0       -0.704031    1.464034    0.000280
      5          8           0        1.642897    0.046004   -0.000352
 ---------------------------------------------------------------------

 SCF Done:  E(UB3LYP) =  -189.914137077     A.U. after   18 cycles

 The electronic state is 4-A.
 Alpha  occ. eigenvalues --  -19.18519 -10.29470 -10.28656 -10.25283  -1.11197
 Alpha  occ. eigenvalues --   -0.84729  -0.65573  -0.55694  -0.50653  -0.45824
 Alpha  occ. eigenvalues --   -0.44707  -0.41521  -0.34500  -0.27887  -0.22000
 Alpha virt. eigenvalues --   -0.10513   0.00247   0.01404   0.03203   0.03606
 Alpha virt. eigenvalues --    0.05385   0.07741   0.08471   0.09193   0.09248
 Alpha virt. eigenvalues --    0.11698   0.12028   0.12496   0.14405   0.16269

  Beta  occ. eigenvalues --  -19.17720 -10.27405 -10.26067 -10.24941  -1.09586
  Beta  occ. eigenvalues --   -0.81052  -0.60392  -0.52080  -0.48520  -0.44123
  Beta  occ. eigenvalues --   -0.38655  -0.32651
  Beta virt. eigenvalues --   -0.21786  -0.09103  -0.08399  -0.07054   0.00807
  Beta virt. eigenvalues --    0.02737   0.04050   0.04601   0.05731   0.08362
  Beta virt. eigenvalues --    0.09358   0.09423   0.09830   0.12299   0.12567

 Mulliken charges and spin densities:
               1          2
     1  C    0.043503  -0.164684
     2  C    0.037273   1.991130
     3  C   -0.110588   0.792688
     4  H    0.180289   0.130846
     5  O   -0.150476   0.250020
 Sum of Mulliken charges =  -0.00000   3.00000

 Dipole moment (field-independent basis, Debye):
    X=             -2.3298    Y=              0.7335    Z=             -0.0000  Tot=              2.4426
 Quadrupole moment (field-independent basis, Debye-Ang):
   XX=            -24.6622   YY=            -22.3172   ZZ=            -22.8220
   XY=              0.0561   XZ=              0.0025   YZ=              0.0023

  Exact polarizability:  55.274   4.920  33.229  -0.007  -0.004  26.279
 Approx polarizability:  93.180  16.202  45.061  -0.005  -0.003  31.098

                      1                      2                      3
                      A                      A                      A
 Frequencies --    128.9421               353.2847               565.5358
 Red. masses --      9.8657                 7.0308                 9.2319
 Frc consts  --      0.0966                 0.5170                 1.7397
 IR Inten    --      0.0107                 4.6678                 4.8732

                      4                      5                      6
                      A                      A                      A
 Frequencies --    596.5244              1016.2074              1208.9674
 Red. masses --      1.5872                 8.7121                 1.1578
 Frc consts  --      0.3328                 5.3008                 0.9970
 IR Inten    --      0.0336                32.9229                 3.5953

                      7                      8                      9
                      A                      A                      A
 Frequencies --   1537.4098              1890.2676              2981.9631
 Red. masses --     10.8469                13.1126                 1.0820
 Frc consts  --     15.1055                27.6048                 5.6686
 IR Inten    --      2.3820               190.6547                 7.2259

 - Thermochemistry -
 -------------------
 Temperature   298.150 Kelvin.  Pressure   1.00000 Atm.
 Atom     1 has atomic number  6 and mass  12.00000

 Molecular mass:    53.00274 amu.
 Principal axes and moments of inertia in atomic units:
                           1         2         3
     Eigenvalues --    23.20640 343.03070 366.23704
           X            0.99993  -0.01163  -0.00000
           Y            0.01163   0.99993   0.00006
           Z            0.00000  -0.00006   1.00000
 This molecule is an asymmetric top.
 Rotational symmetry number  1.
 Rotational temperatures (Kelvin)      3.73232     0.25250     0.23650
 Rotational constants (GHZ):          77.76913     5.26117     4.92780
 Zero-point vibrational energy      61482.7 (Joules/Mol)
                                   14.69471 (Kcal/Mol)
 Warning -- explicit consideration of   4 degrees of freedom as
           vibrations may cause significant error
 Vibrational temperatures:    185.52   508.30   813.68   858.26  1462.09
          (Kelvin)           1739.43  2211.99  2719.67  4290.37

 Zero-point correction=                           0.023418 (Hartree/Particle)
 Thermal correction to Energy=                    0.027686
 Thermal correction to Enthalpy=                  0.028630
 Thermal correction to Gibbs Free Energy=        -0.003866
 Sum of electronic and zero-point Energies=           -189.890720
 Sum of electronic and thermal Energies=              -189.886451
 Sum of electronic and thermal Enthalpies=            -189.885507
 Sum of electronic and thermal Free Energies=         -189.918004

                     E (Thermal)             CV                S
                      KCal/Mol        Cal/Mol-Kelvin    Cal/Mol-Kelvin
 Total                   17.373             12.242             68.395
 Electronic               0.000              0.000              2.755
 Translational            0.889              2.981             37.826
 Rotational               0.889              2.981             22.593
 Vibrational             15.596              6.281              5.222
 Vibration     1          0.611              1.924              2.962
 Vibration     2          0.729              1.569              1.152
 Vibration     3          0.921              1.106              0.513
 Vibration     4          0.954              1.039              0.456

 Optimization completed.
    -- Stationary point found.
 Normal termination of Gaussian 09 at Sun Mar  4 21:14:21 2018.
