 Gaussian 09, Revision D.01,
 Gaussian 09:  ES64L-G09RevD.01 24-Apr-2013

 ---------------------------
 #p b3lyp/6-311++g(d,p) freq
 ---------------------------

 ---
 min
 ---
 Symbolic Z-matrix:
 Charge =  1 Multiplicity = 1

                         Standard orientation:
 ---------------------------------------------------------------------
 Center     Atomic      Atomic             Coordinates (Angstroms)
 Number     Number       Type             X           Y           Z
 ---------------------------------------------------------------------
      1          6           0        0.000000    0.000000    1.320485
      2          6           0        0.000000    0.791377    0.054724
      3          6           0        0.000000   -0.000000   -1.070274
      4          6           0       -0.000000   -0.791377    0.054724
      5          1           0       -0.000000   -0.000000   -2.157957
 ---------------------------------------------------------------------

 SCF Done:  E(RB3LYP) =  -152.413447604     A.U. after   10 cycles

 The electronic state is 1-A1.
 Alpha  occ. eigenvalues --  -10.59929 -10.57496 -10.57462 -10.57453  -1.31070
 Alpha  occ. eigenvalues --   -1.03049  -0.86046  -0.85001  -0.72788  -0.71225
 Alpha  occ. eigenvalues --   -0.60925  -0.55643
 Alpha virt. eigenvalues --   -0.44584  -0.37288  -0.32268  -0.23733  -0.18000
 Alpha virt. eigenvalues --   -0.14687  -0.14397  -0.12192  -0.10966  -0.08479
 Alpha virt. eigenvalues --   -0.07671  -0.05872  -0.04948  -0.04454  -0.03082

 Mulliken charges:
               1
     1  C    0.066430
     2  C    0.344614
     3  C   -0.060992
     4  C    0.344614
     5  H    0.305335
 Sum of Mulliken charges =   1.00000

 Dipole moment (field-independent basis, Debye):
    X=             -0.0000    Y=              0.0000    Z=             -3.5460  Tot=              3.5460
 Quadrupole moment (field-independent basis, Debye-Ang):
   XX=            -18.6564   YY=            -20.8669   ZZ=            -13.9062
   XY=             -0.0000   XZ=             -0.0000   YZ=              0.0000

  Exact polarizability:  20.372   0.000  34.396  -0.000   0.000  38.456
 Approx polarizability:  33.156   0.000  83.989   0.000  -0.000  67.056

                      1                      2                      3
                     B1                     B2                     A1
 Frequencies --    246.1012               524.8550               825.3977
 Red. masses --      4.5148                 6.5754                10.3244
 Frc consts  --      0.1611                 1.0672                 4.1442
 IR Inten    --      3.9634                77.1826                 2.6669

                      4                      5                      6
                     B1                     B2                     A1
 Frequencies --    882.1269              1039.5197              1177.0499
 Red. masses --      1.3840                 1.2321                11.5356
 Frc consts  --      0.6345                 0.7844                 9.4163
 IR Inten    --      3.0037                 8.4198               153.2615

                      7                      8                      9
                     B2                     A1                     A1
 Frequencies --   1207.4710              1515.2555              3212.1244
 Red. masses --     10.5470                 6.6880                 1.1230
 Frc consts  --      9.0600                 9.0472                 6.8267
 IR Inten    --      0.9204               184.7058                86.3643

 - Thermochemistry -
 -------------------
 Temperature   298.150 Kelvin.  Pressure   1.00000 Atm.
 Atom     1 has atomic number  6 and mass  12.00000

 Molecular mass:    49.00783 amu.
 Principal axes and moments of inertia in atomic units:
                           1         2         3
     Eigenvalues --    53.67544 140.49118 194.16661
           X            0.00000   0.00000   1.00000
           Y            0.00000   1.00000  -0.00000
           Z            1.00000   0.00000   0.00000
 This molecule is an asymmetric top.
 Rotational symmetry number  2.
 Rotational temperatures (Kelvin)      1.61366     0.61651     0.44608
 Rotational constants (GHZ):          33.62322    12.84594     9.29481
 Zero-point vibrational energy      63580.9 (Joules/Mol)
                                   15.19621 (Kcal/Mol)
 Warning -- explicit consideration of   2 degrees of freedom as
           vibrations may cause significant error
 Vibrational temperatures:    354.08   755.15  1187.56  1269.18  1495.64
          (Kelvin)           1693.51  1737.28  2180.11  4621.52

 Zero-point correction=                           0.024217 (Hartree/Particle)
 Thermal correction to Energy=                    0.027948
 Thermal correction to Enthalpy=                  0.028892
 Thermal correction to Gibbs Free Energy=        -0.000089
 Sum of electronic and zero-point Energies=           -152.389231
 Sum of electronic and thermal Energies=              -152.385500
 Sum of electronic and thermal Enthalpies=            -152.384556
 Sum of electronic and thermal Free Energies=         -152.413536

                     E (Thermal)             CV                S
                      KCal/Mol        Cal/Mol-Kelvin    Cal/Mol-Kelvin
 Total                   17.537             10.888             60.995
 Electronic               0.000              0.000              0.000
 Translational            0.889              2.981             37.592
 Rotational               0.889              2.981             20.531
 Vibrational             15.760              4.926              2.871
 Vibration     1          0.661              1.769              1.758
 Vibration     2          0.880              1.195              0.599

 Optimization completed.
    -- Stationary point found.
 Normal termination of Gaussian 09 at Thu Jan 24 15:39:39 2019.
