 Gaussian 09, Revision D.01,
 Gaussian 09:  ES64L-G09RevD.01 24-Apr-2013

 ---------------------------
 #p b3lyp/6-311++g(d,p) freq
 ---------------------------

 ---
 min
 ---
 Symbolic Z-matrix:
 Charge =  0 Multiplicity = 2

                         Standard orientation:
 ---------------------------------------------------------------------
 Center     Atomic      Atomic             Coordinates (Angstroms)
 Number     Number       Type             X           Y           Z
 ---------------------------------------------------------------------
      1          6           0       -0.000022   -2.047639   -0.000000
      2          6           0        0.095835   -0.768761    0.000000
      3          6           0       -0.000000    0.559893    0.000000
      4          6           0       -0.072804    1.782414    0.000000
      5          1           0       -0.138054    2.844555    0.000000
 ---------------------------------------------------------------------

 SCF Done:  E(UB3LYP) =  -152.815483050     A.U. after   20 cycles

 The electronic state is 2-A'.
 Alpha  occ. eigenvalues --  -10.25378 -10.25144 -10.23471 -10.23067  -0.85531
 Alpha  occ. eigenvalues --   -0.78984  -0.67255  -0.57985  -0.41131  -0.39709
 Alpha  occ. eigenvalues --   -0.31900  -0.30795  -0.28980
 Alpha virt. eigenvalues --   -0.08061  -0.06687  -0.01284   0.01990   0.04485
 Alpha virt. eigenvalues --    0.04787   0.06025   0.06499   0.06951   0.08574
 Alpha virt. eigenvalues --    0.10278   0.12801   0.13199   0.13524   0.14479

  Beta  occ. eigenvalues --  -10.25371 -10.24707 -10.22936 -10.22544  -0.84442
  Beta  occ. eigenvalues --   -0.76602  -0.66195  -0.57459  -0.39419  -0.37993
  Beta  occ. eigenvalues --   -0.30161  -0.28123
  Beta virt. eigenvalues --   -0.20953  -0.06251  -0.04809  -0.01199   0.02168
  Beta virt. eigenvalues --    0.04858   0.05064   0.06285   0.07036   0.07268
  Beta virt. eigenvalues --    0.08760   0.10503   0.13122   0.13535   0.14829

 Mulliken charges and spin densities:
               1          2
     1  C   -0.717401   0.378692
     2  C    0.141110   0.343747
     3  C    1.977217  -0.123274
     4  C   -1.561646   0.417510
     5  H    0.160719  -0.016674
 Sum of Mulliken charges =   0.00000   1.00000

 Dipole moment (field-independent basis, Debye):
    X=              0.1616    Y=              4.4802    Z=              0.0000  Tot=              4.4831
 Quadrupole moment (field-independent basis, Debye-Ang):
   XX=            -22.6909   YY=            -23.4663   ZZ=            -24.5689
   XY=             -1.1178   XZ=             -0.0000   YZ=             -0.0000

  Exact polarizability:  25.144  -6.910 105.481   0.000   0.001  34.983
 Approx polarizability:  31.122  -5.487 203.722  -0.000   0.000  30.908

                      1                      2                      3
                     A'                     ?A                     ?A
 Frequencies --    157.5714               412.8668               415.2559
 Red. masses --      7.1615                 5.5161                 8.9736
 Frc consts  --      0.1048                 0.5540                 0.9117
 IR Inten    --     34.9088                54.4568                12.5706

                      4                      5                      6
                     A"                     A'                     A'
 Frequencies --    530.9238               707.0996               927.6803
 Red. masses --      1.1885                 1.3376                 8.9707
 Frc consts  --      0.1974                 0.3940                 4.5485
 IR Inten    --     94.4079                28.9401                 2.0816

                      7                      8                      9
                     A'                     A'                     A'
 Frequencies --   1828.8650              2067.7510              3455.1859
 Red. masses --      9.1581                 8.0373                 1.1387
 Frc consts  --     18.0477                20.2468                 8.0095
 IR Inten    --     31.7363                78.5652                88.5972

 - Thermochemistry -
 -------------------
 Temperature   298.150 Kelvin.  Pressure   1.00000 Atm.
 Atom     1 has atomic number  6 and mass  12.00000

 Molecular mass:    49.00783 amu.
 Principal axes and moments of inertia in atomic units:
                           1         2         3
     Eigenvalues --     0.42131 383.38431 383.80562
           X           -0.02639   0.99965   0.00000
           Y            0.99965   0.02639   0.00000
           Z           -0.00000  -0.00000   1.00000
 This molecule is an asymmetric top.
 Rotational symmetry number  1.
 Rotational temperatures (Kelvin)    205.58158     0.22592     0.22567
 Rotational constants (GHZ):        4283.63029     4.70739     4.70223
 Zero-point vibrational energy      62823.1 (Joules/Mol)
                                   15.01508 (Kcal/Mol)
 Warning -- explicit consideration of   4 degrees of freedom as
           vibrations may cause significant error
 Vibrational temperatures:    226.71   594.02   597.46   763.88  1017.36
          (Kelvin)           1334.72  2631.33  2975.03  4971.24

 Zero-point correction=                           0.023928 (Hartree/Particle)
 Thermal correction to Energy=                    0.028345
 Thermal correction to Enthalpy=                  0.029289
 Thermal correction to Gibbs Free Energy=        -0.000716
 Sum of electronic and zero-point Energies=           -152.791555
 Sum of electronic and thermal Energies=              -152.787138
 Sum of electronic and thermal Enthalpies=            -152.786194
 Sum of electronic and thermal Free Energies=         -152.816199

                     E (Thermal)             CV                S
                      KCal/Mol        Cal/Mol-Kelvin    Cal/Mol-Kelvin
 Total                   17.787             13.228             63.152
 Electronic               0.000              0.000              1.377
 Translational            0.889              2.981             37.592
 Rotational               0.889              2.981             18.767
 Vibrational             16.009              7.266              5.415
 Vibration     1          0.621              1.894              2.579
 Vibration     2          0.777              1.442              0.917
 Vibration     3          0.779              1.437              0.908
 Vibration     4          0.886              1.182              0.585

 Normal termination of Gaussian 09 at Sun Mar  4 21:13:56 2018.
