 Gaussian 09, Revision D.01,
 Gaussian 09:  ES64L-G09RevD.01 24-Apr-2013

 ---------------------------
 #p b3lyp/6-311++g(d,p) freq
 ---------------------------

 ---
 min
 ---
 Symbolic Z-matrix:
 Charge =  0 Multiplicity = 2

                         Standard orientation:
 ---------------------------------------------------------------------
 Center     Atomic      Atomic             Coordinates (Angstroms)
 Number     Number       Type             X           Y           Z
 ---------------------------------------------------------------------
      1          6           0        0.192124    0.761439   -0.000000
      2          1           0        0.052598    1.837212   -0.000000
      3          6           0       -0.585139   -0.643480    0.000000
      4          6           0        0.192124   -0.212081    1.090409
      5          6           0        0.192124   -0.212081   -1.090409
 ---------------------------------------------------------------------

 SCF Done:  E(UB3LYP) =  -152.730204413     A.U. after   15 cycles

 The electronic state is 2-A'.
 Alpha  occ. eigenvalues --  -10.29150 -10.28358 -10.25944 -10.25942  -1.01851
 Alpha  occ. eigenvalues --   -0.69799  -0.66128  -0.52381  -0.44875  -0.41775
 Alpha  occ. eigenvalues --   -0.34791  -0.29575  -0.27902
 Alpha virt. eigenvalues --   -0.11273  -0.05340  -0.02874  -0.00088   0.03498
 Alpha virt. eigenvalues --    0.04327   0.04444   0.08159   0.08199   0.08771
 Alpha virt. eigenvalues --    0.09535   0.09849   0.10589   0.12266   0.13735

  Beta  occ. eigenvalues --  -10.28644 -10.27092 -10.25811 -10.25808  -1.01022
  Beta  occ. eigenvalues --   -0.69340  -0.64535  -0.48476  -0.43832  -0.40927
  Beta  occ. eigenvalues --   -0.33501  -0.27321
  Beta virt. eigenvalues --   -0.16669  -0.11232  -0.04124  -0.01510   0.00526
  Beta virt. eigenvalues --    0.04326   0.04494   0.04528   0.08209   0.08279
  Beta virt. eigenvalues --    0.09351   0.09497   0.10172   0.10845   0.12287

 Mulliken charges and spin densities:
               1          2
     1  C    0.004190   0.291152
     2  H    0.197014   0.009917
     3  C    0.235224   0.639546
     4  C   -0.218214   0.029693
     5  C   -0.218214   0.029693
 Sum of Mulliken charges =  -0.00000   1.00000

 Dipole moment (field-independent basis, Debye):
    X=             -1.1645    Y=              1.9997    Z=              0.0000  Tot=              2.3141
 Quadrupole moment (field-independent basis, Debye-Ang):
   XX=            -23.5184   YY=            -20.2533   ZZ=            -30.0666
   XY=              0.1646   XZ=             -0.0000   YZ=              0.0000

  Exact polarizability:  30.374   3.568  37.327  -0.000  -0.000  53.134
 Approx polarizability:  48.891   9.423  61.547  -0.000   0.000 103.081

                      1                      2                      3
                     A'                     A"                     A'
 Frequencies --    510.7397               600.1481               746.1674
 Red. masses --     11.2955                11.3708                 2.5984
 Frc consts  --      1.7360                 2.4130                 0.8524
 IR Inten    --     10.3261                 0.6511                 0.5228

                      4                      5                      6
                     A'                     A"                     A'
 Frequencies --    895.5980               974.5461              1051.0432
 Red. masses --      2.8408                 1.4191                 3.5151
 Frc consts  --      1.3425                 0.7941                 2.2879
 IR Inten    --     13.5961                29.7160                 4.5127

                      7                      8                      9
                     A"                     A'                     A'
 Frequencies --   1228.1140              1344.3457              3177.1691
 Red. masses --      3.6355                 9.1315                 1.0951
 Frc consts  --      3.2307                 9.7234                 6.5131
 IR Inten    --      6.5753                 1.6649                 1.6511

 - Thermochemistry -
 -------------------
 Temperature   298.150 Kelvin.  Pressure   1.00000 Atm.
 Atom     1 has atomic number  6 and mass  12.00000

 Molecular mass:    49.00783 amu.
 Principal axes and moments of inertia in atomic units:
                           1         2         3
     Eigenvalues --    77.77752 113.41653 168.16758
           X            0.00000   0.38019   0.92491
           Y            0.00000   0.92491  -0.38019
           Z            1.00000  -0.00000  -0.00000
 This molecule is an asymmetric top.
 Rotational symmetry number  1.
 Rotational temperatures (Kelvin)      1.11361     0.76368     0.51504
 Rotational constants (GHZ):          23.20389    15.91251    10.73180
 Zero-point vibrational energy      62970.7 (Joules/Mol)
                                   15.05035 (Kcal/Mol)
 Warning -- explicit consideration of   2 degrees of freedom as
           vibrations may cause significant error
 Vibrational temperatures:    734.84   863.48  1073.57  1288.56  1402.15
          (Kelvin)           1512.21  1766.98  1934.21  4571.23

 Zero-point correction=                           0.023984 (Hartree/Particle)
 Thermal correction to Energy=                    0.027438
 Thermal correction to Enthalpy=                  0.028383
 Thermal correction to Gibbs Free Energy=        -0.001365
 Sum of electronic and zero-point Energies=           -152.706220
 Sum of electronic and thermal Energies=              -152.702766
 Sum of electronic and thermal Enthalpies=            -152.701822
 Sum of electronic and thermal Free Energies=         -152.731570

                     E (Thermal)             CV                S
                      KCal/Mol        Cal/Mol-Kelvin    Cal/Mol-Kelvin
 Total                   17.218             10.514             62.610
 Electronic               0.000              0.000              1.377
 Translational            0.889              2.981             37.592
 Rotational               0.889              2.981             21.922
 Vibrational             15.440              4.553              1.718
 Vibration     1          0.866              1.226              0.632
 Vibration     2          0.958              1.031              0.449

 Optimization completed.
    -- Stationary point found.
 Normal termination of Gaussian 09 at Sun Mar  4 21:14:06 2018.
