 Gaussian 09, Revision D.01,
 Gaussian 09:  ES64L-G09RevD.01 24-Apr-2013

 ---------------------------
 #p b3lyp/6-311++g(d,p) freq
 ---------------------------

 ---
 min
 ---
 Symbolic Z-matrix:
 Charge =  0 Multiplicity = 4

                         Standard orientation:
 ---------------------------------------------------------------------
 Center     Atomic      Atomic             Coordinates (Angstroms)
 Number     Number       Type             X           Y           Z
 ---------------------------------------------------------------------
      1          6           0       -1.903043   -0.216254    0.000425
      2          6           0       -0.638178    0.061869   -0.000713
      3          6           0        1.722915   -0.513942    0.000121
      4          6           0        0.659066    0.422193    0.000046
      5          1           0        0.955445    1.476810    0.000726
 ---------------------------------------------------------------------

 SCF Done:  E(UB3LYP) =  -152.678207280     A.U. after   20 cycles

 The electronic state is 4-A.
 Alpha  occ. eigenvalues --  -10.28584 -10.27992 -10.25547 -10.24765  -0.88123
 Alpha  occ. eigenvalues --   -0.79279  -0.65541  -0.55828  -0.41280  -0.40446
 Alpha  occ. eigenvalues --   -0.33564  -0.32884  -0.30513  -0.26535
 Alpha virt. eigenvalues --   -0.11202  -0.03307  -0.00059   0.03491   0.03522
 Alpha virt. eigenvalues --    0.03889   0.05182   0.07097   0.07318   0.08716
 Alpha virt. eigenvalues --    0.09329   0.10376   0.10713   0.11834   0.12404

  Beta  occ. eigenvalues --  -10.27793 -10.25694 -10.24576 -10.24227  -0.85560
  Beta  occ. eigenvalues --   -0.74597  -0.60969  -0.53402  -0.37812  -0.31365
  Beta  occ. eigenvalues --   -0.30870
  Beta virt. eigenvalues --   -0.22856  -0.19764  -0.08802  -0.05486  -0.01569
  Beta virt. eigenvalues --    0.01264   0.04319   0.04679   0.04756   0.06448
  Beta virt. eigenvalues --    0.07362   0.07703   0.09550   0.10005   0.10978

 Mulliken charges and spin densities:
               1          2
     1  C   -0.384842   0.600770
     2  C    0.625992   0.408275
     3  C   -0.075898   1.823944
     4  C   -0.371003   0.080303
     5  H    0.205750   0.086708
 Sum of Mulliken charges =  -0.00000   3.00000

 Dipole moment (field-independent basis, Debye):
    X=              1.9334    Y=              1.5782    Z=             -0.0015  Tot=              2.4957
 Quadrupole moment (field-independent basis, Debye-Ang):
   XX=            -31.9662   YY=            -22.4444   ZZ=            -23.3659
   XY=              1.1352   XZ=              0.0046   YZ=              0.0013

  Exact polarizability: 137.721 -11.751  41.273   0.009   0.007  30.226
 Approx polarizability: 320.767 -35.656  59.549   0.022  -0.003  38.519

                      1                      2                      3
                      A                      A                      A
 Frequencies --    187.5676               259.2631               529.3070
 Red. masses --      9.0962                 4.7800                10.0634
 Frc consts  --      0.1886                 0.1893                 1.6612
 IR Inten    --     14.6431                 6.2947                 1.1221

                      4                      5                      6
                      A                      A                      A
 Frequencies --    770.9637              1014.9034              1132.4258
 Red. masses --      1.7413                 7.7707                 1.7720
 Frc consts  --      0.6098                 4.7158                 1.3389
 IR Inten    --     10.9664                91.5390               133.6505

                      7                      8                      9
                      A                      A                      A
 Frequencies --   1248.7740              1861.7061              3031.7674
 Red. masses --      2.3663                11.5414                 1.0844
 Frc consts  --      2.1742                23.5684                 5.8728
 IR Inten    --     20.3219               802.6193                20.4054

 - Thermochemistry -
 -------------------
 Temperature   298.150 Kelvin.  Pressure   1.00000 Atm.
 Atom     1 has atomic number  6 and mass  12.00000

 Molecular mass:    49.00783 amu.
 Principal axes and moments of inertia in atomic units:
                           1         2         3
     Eigenvalues --    28.72956 321.77556 350.50506
           X            0.99985   0.01741   0.00001
           Y           -0.01741   0.99985   0.00014
           Z           -0.00001  -0.00014   1.00000
 This molecule is an asymmetric top.
 Rotational symmetry number  1.
 Rotational temperatures (Kelvin)      3.01480     0.26917     0.24711
 Rotational constants (GHZ):          62.81828     5.60870     5.14897
 Zero-point vibrational energy      60032.7 (Joules/Mol)
                                   14.34815 (Kcal/Mol)
 Warning -- explicit consideration of   3 degrees of freedom as
           vibrations may cause significant error
 Vibrational temperatures:    269.87   373.02   761.55  1109.24  1460.22
          (Kelvin)           1629.31  1796.70  2678.58  4362.03

 Zero-point correction=                           0.022865 (Hartree/Particle)
 Thermal correction to Energy=                    0.027114
 Thermal correction to Enthalpy=                  0.028058
 Thermal correction to Gibbs Free Energy=        -0.004234
 Sum of electronic and zero-point Energies=           -152.655342
 Sum of electronic and thermal Energies=              -152.651093
 Sum of electronic and thermal Enthalpies=            -152.650149
 Sum of electronic and thermal Free Energies=         -152.682441

                     E (Thermal)             CV                S
                      KCal/Mol        Cal/Mol-Kelvin    Cal/Mol-Kelvin
 Total                   17.014             12.261             67.964
 Electronic               0.000              0.000              2.755
 Translational            0.889              2.981             37.592
 Rotational               0.889              2.981             22.698
 Vibrational             15.237              6.299              4.918
 Vibration     1          0.632              1.857              2.252
 Vibration     2          0.668              1.747              1.667
 Vibration     3          0.884              1.185              0.589

 Optimization completed.
    -- Stationary point found.
 Normal termination of Gaussian 09 at Sun Mar  4 21:14:26 2018.
