 Gaussian 09, Revision D.01,
 Gaussian 09:  ES64L-G09RevD.01 24-Apr-2013

 ---------------------------
 #p b3lyp/6-311++g(d,p) freq
 ---------------------------

 ---
 min
 ---
 Symbolic Z-matrix:
 Charge =  1 Multiplicity = 1

                         Standard orientation:
 ---------------------------------------------------------------------
 Center     Atomic      Atomic             Coordinates (Angstroms)
 Number     Number       Type             X           Y           Z
 ---------------------------------------------------------------------
      1          1           0       -0.000000    0.000000    1.822463
      2          6           0       -0.000000    0.000000    0.728715
      3          6           0        0.000000   -0.000000   -0.697881
      4          6           0        0.000000    1.287148   -0.167288
      5          6           0       -0.000000   -1.287148   -0.167288
 ---------------------------------------------------------------------

 SCF Done:  E(RB3LYP) =  -152.376703597     A.U. after   10 cycles

 The electronic state is 1-A1.
 Alpha  occ. eigenvalues --  -10.61096 -10.59237 -10.57816 -10.57812  -1.31879
 Alpha  occ. eigenvalues --   -1.04991  -0.92239  -0.75701  -0.73790  -0.68590
 Alpha  occ. eigenvalues --   -0.63691  -0.56355
 Alpha virt. eigenvalues --   -0.43280  -0.38798  -0.33064  -0.24898  -0.18913
 Alpha virt. eigenvalues --   -0.16903  -0.12993  -0.11988  -0.11098  -0.09587
 Alpha virt. eigenvalues --   -0.07787  -0.06185  -0.05884  -0.05716  -0.05213

 Mulliken charges:
               1
     1  H    0.354726
     2  C    0.012397
     3  C    0.056566
     4  C    0.288155
     5  C    0.288155
 Sum of Mulliken charges =   1.00000

 Dipole moment (field-independent basis, Debye):
    X=             -0.0000    Y=              0.0000    Z=              1.4938  Tot=              1.4938
 Quadrupole moment (field-independent basis, Debye-Ang):
   XX=            -18.7409   YY=            -23.2104   ZZ=            -14.1098
   XY=             -0.0000   XZ=              0.0000   YZ=              0.0000

  Exact polarizability:  23.202  -0.000  39.684   0.000  -0.000  31.182
 Approx polarizability:  37.907   0.000  73.621   0.000  -0.000  60.277

                      1                      2                      3
                     B1                     B2                     A1
 Frequencies --    249.0575               428.9282               612.5862
 Red. masses --     10.2493                 5.6759                11.0201
 Frc consts  --      0.3746                 0.6153                 2.4365
 IR Inten    --     48.3813               116.1007                 5.7837

                      4                      5                      6
                     B1                     B2                     A1
 Frequencies --    815.4302               874.7610               976.3592
 Red. masses --      1.3098                 1.2548                 9.9913
 Frc consts  --      0.5131                 0.5657                 5.6117
 IR Inten    --     23.9248                 3.1565                 1.9024

                      7                      8                      9
                     A1                     B2                     A1
 Frequencies --   1364.8249              1413.5447              3131.1165
 Red. masses --      7.5470                 9.0533                 1.1109
 Frc consts  --      8.2828                10.6581                 6.4166
 IR Inten    --      1.4246               190.2058               204.2536

 - Thermochemistry -
 -------------------
 Temperature   298.150 Kelvin.  Pressure   1.00000 Atm.
 Atom     1 has atomic number  1 and mass   1.00783

 Molecular mass:    49.00783 amu.
 Principal axes and moments of inertia in atomic units:
                           1         2         3
     Eigenvalues --    57.74074 141.99268 199.73342
           X            0.00000   0.00000   1.00000
           Y            1.00000   0.00000   0.00000
           Z            0.00000   1.00000   0.00000
 This molecule is an asymmetric top.
 Rotational symmetry number  2.
 Rotational temperatures (Kelvin)      1.50005     0.60999     0.43365
 Rotational constants (GHZ):          31.25594    12.71010     9.03575
 Zero-point vibrational energy      59015.4 (Joules/Mol)
                                   14.10502 (Kcal/Mol)
 Warning -- explicit consideration of   3 degrees of freedom as
           vibrations may cause significant error
 Vibrational temperatures:    358.34   617.13   881.37  1173.22  1258.58
          (Kelvin)           1404.76  1963.68  2033.77  4504.97

 Zero-point correction=                           0.022478 (Hartree/Particle)
 Thermal correction to Energy=                    0.026423
 Thermal correction to Enthalpy=                  0.027367
 Thermal correction to Gibbs Free Energy=        -0.001974
 Sum of electronic and zero-point Energies=           -152.354226
 Sum of electronic and thermal Energies=              -152.350281
 Sum of electronic and thermal Enthalpies=            -152.349336
 Sum of electronic and thermal Free Energies=         -152.378677

                     E (Thermal)             CV                S
                      KCal/Mol        Cal/Mol-Kelvin    Cal/Mol-Kelvin
 Total                   16.581             11.924             61.753
 Electronic               0.000              0.000              0.000
 Translational            0.889              2.981             37.592
 Rotational               0.889              2.981             20.643
 Vibrational             14.803              5.962              3.518
 Vibration     1          0.662              1.764              1.737
 Vibration     2          0.790              1.407              0.862
 Vibration     3          0.972              1.005              0.429

 Optimization completed.
    -- Stationary point found.
 Normal termination of Gaussian 09 at Thu Jan 24 15:40:11 2019.
