 Gaussian 09, Revision D.01,
 Gaussian 09:  ES64L-G09RevD.01 24-Apr-2013

 ---------------------------
 #p b3lyp/6-311++g(d,p) freq
 ---------------------------

 ---
 min
 ---
 Symbolic Z-matrix:
 Charge =  1 Multiplicity = 3

                         Standard orientation:
 ---------------------------------------------------------------------
 Center     Atomic      Atomic             Coordinates (Angstroms)
 Number     Number       Type             X           Y           Z
 ---------------------------------------------------------------------
      1          6           0       -0.556898   -0.859008   -0.000000
      2          6           0        0.183259   -0.174933    0.952744
      3          6           0        0.183259   -0.174933   -0.952744
      4          6           0        0.183259    0.882090    0.000000
      5          1           0        0.042719    1.960706    0.000000
 ---------------------------------------------------------------------

 SCF Done:  E(UB3LYP) =  -152.382407098     A.U. after   15 cycles

 The electronic state is 3-A".
 Alpha  occ. eigenvalues --  -10.57907 -10.57704 -10.56273 -10.56272  -1.29497
 Alpha  occ. eigenvalues --   -0.96165  -0.93492  -0.80734  -0.73051  -0.72653
 Alpha  occ. eigenvalues --   -0.63909  -0.58751  -0.55957
 Alpha virt. eigenvalues --   -0.37399  -0.35043  -0.29468  -0.15915  -0.13191
 Alpha virt. eigenvalues --   -0.12855  -0.12077  -0.09873  -0.07687  -0.06751
 Alpha virt. eigenvalues --   -0.06020  -0.05746  -0.04962  -0.04552  -0.02917

  Beta  occ. eigenvalues --  -10.57311 -10.56402 -10.54977 -10.54974  -1.28072
  Beta  occ. eigenvalues --   -0.94418  -0.90515  -0.78403  -0.70848  -0.69229
  Beta  occ. eigenvalues --   -0.57835
  Beta virt. eigenvalues --   -0.44330  -0.41323  -0.34955  -0.32694  -0.25658
  Beta virt. eigenvalues --   -0.15526  -0.12609  -0.11934  -0.11358  -0.09575
  Beta virt. eigenvalues --   -0.07459  -0.06383  -0.05313  -0.05193  -0.04182

 Mulliken charges and spin densities:
               1          2
     1  C    0.371770   0.662488
     2  C    0.121550   0.578095
     3  C    0.121550   0.578095
     4  C    0.075258   0.187642
     5  H    0.309873  -0.006320
 Sum of Mulliken charges =   1.00000   2.00000

 Dipole moment (field-independent basis, Debye):
    X=             -0.2230    Y=              1.4767    Z=              0.0000  Tot=              1.4935
 Quadrupole moment (field-independent basis, Debye-Ang):
   XX=            -19.3468   YY=            -13.0283   ZZ=            -19.5621
   XY=              0.6306   XZ=             -0.0000   YZ=             -0.0000

  Exact polarizability:  23.951   5.169  33.912  -0.000   0.000  42.342
 Approx polarizability:  38.715  13.222  61.340  -0.000   0.000  94.956

                      1                      2                      3
                     A'                     A'                     A"
 Frequencies --    483.6177               531.1753               850.2885
 Red. masses --      8.0608                 4.3464                11.9092
 Frc consts  --      1.1108                 0.7225                 5.0730
 IR Inten    --     20.7733                 0.9589                 7.3199

                      4                      5                      6
                     A'                     A"                     A"
 Frequencies --    900.7938              1041.1140              1221.1458
 Red. masses --      1.5403                 1.2534                 5.7656
 Frc consts  --      0.7364                 0.8005                 5.0656
 IR Inten    --      5.7137                15.3420                 0.1920

                      7                      8                      9
                     A'                     A'                     A'
 Frequencies --   1296.8991              1433.2498              3195.1427
 Red. masses --      7.1097                 9.9922                 1.1065
 Frc consts  --      7.0456                12.0936                 6.6557
 IR Inten    --     31.4780                 5.8250                82.8233

 - Thermochemistry -
 -------------------
 Temperature   298.150 Kelvin.  Pressure   1.00000 Atm.
 Atom     1 has atomic number  6 and mass  12.00000

 Molecular mass:    49.00783 amu.
 Principal axes and moments of inertia in atomic units:
                           1         2         3
     Eigenvalues --    86.76861  98.76083 167.58566
           X            0.32701   0.00000   0.94502
           Y            0.94502   0.00000  -0.32701
           Z           -0.00000   1.00000   0.00000
 This molecule is an asymmetric top.
 Rotational symmetry number  1.
 Rotational temperatures (Kelvin)      0.99822     0.87701     0.51683
 Rotational constants (GHZ):          20.79947    18.27386    10.76907
 Zero-point vibrational energy      65516.0 (Joules/Mol)
                                   15.65871 (Kcal/Mol)
 Warning -- explicit consideration of   2 degrees of freedom as
           vibrations may cause significant error
 Vibrational temperatures:    695.82   764.24  1223.37  1296.04  1497.93
          (Kelvin)           1756.95  1865.95  2062.12  4597.09

 Zero-point correction=                           0.024954 (Hartree/Particle)
 Thermal correction to Energy=                    0.028408
 Thermal correction to Enthalpy=                  0.029353
 Thermal correction to Gibbs Free Energy=        -0.000780
 Sum of electronic and zero-point Energies=           -152.357453
 Sum of electronic and thermal Energies=              -152.353999
 Sum of electronic and thermal Enthalpies=            -152.353055
 Sum of electronic and thermal Free Energies=         -152.383187

                     E (Thermal)             CV                S
                      KCal/Mol        Cal/Mol-Kelvin    Cal/Mol-Kelvin
 Total                   17.827             10.269             63.420
 Electronic               0.000              0.000              2.183
 Translational            0.889              2.981             37.592
 Rotational               0.889              2.981             21.890
 Vibrational             16.049              4.308              1.755
 Vibration     1          0.840              1.286              0.700
 Vibration     2          0.886              1.181              0.585

 Optimization completed.
    -- Stationary point found.
 Normal termination of Gaussian 09 at Thu Jan 24 15:40:47 2019.
