 Gaussian 09, Revision D.01,
 Gaussian 09:  ES64L-G09RevD.01 24-Apr-2013

 ---------------------------
 #p b3lyp/6-311++g(d,p) freq
 ---------------------------

 ---
 min
 ---
 Symbolic Z-matrix:
 Charge =  1 Multiplicity = 1

                         Standard orientation:
 ---------------------------------------------------------------------
 Center     Atomic      Atomic             Coordinates (Angstroms)
 Number     Number       Type             X           Y           Z
 ---------------------------------------------------------------------
      1          1           0       -1.037623   -1.717532    0.000000
      2          6           0       -0.209715   -1.012334    0.000000
      3          6           0       -0.000000    0.359201   -0.000000
      4          6           0        1.113689   -0.583430    0.000000
      5          6           0       -0.731037    1.522818   -0.000000
 ---------------------------------------------------------------------

 SCF Done:  E(RB3LYP) =  -152.378904706     A.U. after   13 cycles

 The electronic state is 1-A'.
 Alpha  occ. eigenvalues --  -10.60342 -10.56735 -10.54401 -10.54115  -1.24508
 Alpha  occ. eigenvalues --   -1.04528  -0.88418  -0.76262  -0.69480  -0.68601
 Alpha  occ. eigenvalues --   -0.60317  -0.55002
 Alpha virt. eigenvalues --   -0.46970  -0.39810  -0.30921  -0.24696  -0.16870
 Alpha virt. eigenvalues --   -0.16563  -0.12966  -0.11356  -0.10226  -0.08399
 Alpha virt. eigenvalues --   -0.07128  -0.05952  -0.05950  -0.04197  -0.03275

 Mulliken charges:
               1
     1  H    0.320171
     2  C    0.156604
     3  C    0.046034
     4  C    0.055663
     5  C    0.421528
 Sum of Mulliken charges =   1.00000

 Dipole moment (field-independent basis, Debye):
    X=             -2.0005    Y=             -1.4649    Z=              0.0000  Tot=              2.4795
 Quadrupole moment (field-independent basis, Debye-Ang):
   XX=            -20.2863   YY=            -13.6882   ZZ=            -18.8152
   XY=              2.1141   XZ=             -0.0000   YZ=              0.0000

  Exact polarizability:  38.939 -12.130  50.683  -0.000   0.000  22.652
 Approx polarizability:  86.410 -54.053 132.546   0.000  -0.000  35.239

                      1                      2                      3
                     A'                     A"                     A'
 Frequencies --    194.5775               239.6418               785.6896
 Red. masses --      6.8643                10.6800                 8.7628
 Frc consts  --      0.1531                 0.3614                 3.1871
 IR Inten    --      5.3614                10.1597                 5.2338

                      4                      5                      6
                     A"                     A'                     A'
 Frequencies --    875.5270               911.5402               992.4252
 Red. masses --      1.3218                 2.1801                 2.1715
 Frc consts  --      0.5970                 1.0673                 1.2601
 IR Inten    --     30.3754                10.1468                 9.6286

                      7                      8                      9
                     A'                     A'                     A'
 Frequencies --   1295.4734              1640.3300              3204.2994
 Red. masses --      7.8084                 9.4201                 1.1150
 Frc consts  --      7.7209                14.9338                 6.7450
 IR Inten    --     53.1720               411.0791               113.9172

 - Thermochemistry -
 -------------------
 Temperature   298.150 Kelvin.  Pressure   1.00000 Atm.
 Atom     1 has atomic number  1 and mass   1.00783

 Molecular mass:    49.00783 amu.
 Principal axes and moments of inertia in atomic units:
                           1         2         3
     Eigenvalues --    52.01363 203.53217 255.54580
           X           -0.44289   0.89658   0.00000
           Y            0.89658   0.44289   0.00000
           Z            0.00000   0.00000   1.00000
 This molecule is an asymmetric top.
 Rotational symmetry number  1.
 Rotational temperatures (Kelvin)      1.66521     0.42555     0.33894
 Rotational constants (GHZ):          34.69747     8.86711     7.06230
 Zero-point vibrational energy      60647.7 (Joules/Mol)
                                   14.49515 (Kcal/Mol)
 Warning -- explicit consideration of   2 degrees of freedom as
           vibrations may cause significant error
 Vibrational temperatures:    279.95   344.79  1130.43  1259.69  1311.50
          (Kelvin)           1427.88  1863.90  2360.07  4610.27

 Zero-point correction=                           0.023099 (Hartree/Particle)
 Thermal correction to Energy=                    0.027248
 Thermal correction to Enthalpy=                  0.028192
 Thermal correction to Gibbs Free Energy=        -0.002567
 Sum of electronic and zero-point Energies=           -152.355805
 Sum of electronic and thermal Energies=              -152.351657
 Sum of electronic and thermal Enthalpies=            -152.350712
 Sum of electronic and thermal Free Energies=         -152.381471

                     E (Thermal)             CV                S
                      KCal/Mol        Cal/Mol-Kelvin    Cal/Mol-Kelvin
 Total                   17.098             11.864             64.738
 Electronic               0.000              0.000              0.000
 Translational            0.889              2.981             37.592
 Rotational               0.889              2.981             22.519
 Vibrational             15.321              5.902              4.627
 Vibration     1          0.635              1.847              2.184
 Vibration     2          0.657              1.780              1.806

 Optimization completed.
    -- Stationary point found.
 Normal termination of Gaussian 09 at Thu Jan 24 15:39:47 2019.
