 Gaussian 09, Revision D.01,
 Gaussian 09:  ES64L-G09RevD.01 24-Apr-2013

 ---------------------------
 #p b3lyp/6-311++g(d,p) freq
 ---------------------------

 ---
 min
 ---
 Symbolic Z-matrix:
 Charge =  1 Multiplicity = 3

                         Standard orientation:
 ---------------------------------------------------------------------
 Center     Atomic      Atomic             Coordinates (Angstroms)
 Number     Number       Type             X           Y           Z
 ---------------------------------------------------------------------
      1          6           0        0.183257    0.882808   -0.000000
      2          1           0        0.043457    1.961569   -0.000000
      3          6           0       -0.557015   -0.860105    0.000000
      4          6           0        0.183257   -0.174815    0.951694
      5          6           0        0.183257   -0.174815   -0.951694
 ---------------------------------------------------------------------

 SCF Done:  E(UB3LYP) =  -152.382406549     A.U. after   15 cycles

 The electronic state is 3-A".
 Alpha  occ. eigenvalues --  -10.57906 -10.57709 -10.56264 -10.56264  -1.29504
 Alpha  occ. eigenvalues --   -0.96194  -0.93455  -0.80749  -0.73056  -0.72657
 Alpha  occ. eigenvalues --   -0.63916  -0.58756  -0.55930
 Alpha virt. eigenvalues --   -0.37438  -0.34999  -0.29463  -0.15914  -0.13200
 Alpha virt. eigenvalues --   -0.12854  -0.12074  -0.09880  -0.07690  -0.06749
 Alpha virt. eigenvalues --   -0.06013  -0.05746  -0.04956  -0.04542  -0.02916

  Beta  occ. eigenvalues --  -10.57317 -10.56402 -10.54967 -10.54963  -1.28080
  Beta  occ. eigenvalues --   -0.94450  -0.90469  -0.78432  -0.70852  -0.69235
  Beta  occ. eigenvalues --   -0.57829
  Beta virt. eigenvalues --   -0.44345  -0.41289  -0.35001  -0.32638  -0.25655
  Beta virt. eigenvalues --   -0.15527  -0.12616  -0.11937  -0.11353  -0.09583
  Beta virt. eigenvalues --   -0.07460  -0.06382  -0.05313  -0.05189  -0.04174

 Mulliken charges and spin densities:
               1          2
     1  C    0.075513   0.186633
     2  H    0.310020  -0.006388
     3  C    0.371418   0.661403
     4  C    0.121524   0.579176
     5  C    0.121524   0.579176
 Sum of Mulliken charges =   1.00000   2.00000

 Dipole moment (field-independent basis, Debye):
    X=             -0.2210    Y=              1.4805    Z=             -0.0000  Tot=              1.4969
 Quadrupole moment (field-independent basis, Debye-Ang):
   XX=            -19.3488   YY=            -13.0175   ZZ=            -19.5647
   XY=              0.6318   XZ=              0.0000   YZ=              0.0000

  Exact polarizability:  23.971   5.193  33.947   0.000   0.000  42.237
 Approx polarizability:  38.745  13.270  61.430   0.000  -0.000  94.614

                      1                      2                      3
                     A'                     A'                     A"
 Frequencies --    482.9706               530.9483               850.2657
 Red. masses --      8.0247                 4.3570                11.9139
 Frc consts  --      1.1029                 0.7237                 5.0748
 IR Inten    --     21.1519                 1.0163                 7.1649

                      4                      5                      6
                     A'                     A"                     A"
 Frequencies --    901.0939              1040.7695              1221.2482
 Red. masses --      1.5395                 1.2545                 5.7442
 Frc consts  --      0.7365                 0.8006                 5.0477
 IR Inten    --      5.7059                15.3817                 0.2098

                      7                      8                      9
                     A'                     A'                     A'
 Frequencies --   1298.2489              1433.9339              3194.7968
 Red. masses --      7.1121                10.0059                 1.1066
 Frc consts  --      7.0626                12.1218                 6.6547
 IR Inten    --     31.7666                 5.8209                82.8187

 - Thermochemistry -
 -------------------
 Temperature   298.150 Kelvin.  Pressure   1.00000 Atm.
 Atom     1 has atomic number  6 and mass  12.00000

 Molecular mass:    49.00783 amu.
 Principal axes and moments of inertia in atomic units:
                           1         2         3
     Eigenvalues --    86.59101  98.91008 167.56979
           X            0.32691   0.00000   0.94506
           Y            0.94506   0.00000  -0.32691
           Z           -0.00000   1.00000   0.00000
 This molecule is an asymmetric top.
 Rotational symmetry number  1.
 Rotational temperatures (Kelvin)      1.00026     0.87568     0.51688
 Rotational constants (GHZ):          20.84213    18.24628    10.77009
 Zero-point vibrational energy      65521.1 (Joules/Mol)
                                   15.65992 (Kcal/Mol)
 Warning -- explicit consideration of   2 degrees of freedom as
           vibrations may cause significant error
 Vibrational temperatures:    694.89   763.92  1223.34  1296.47  1497.43
          (Kelvin)           1757.10  1867.89  2063.11  4596.59

 Zero-point correction=                           0.024956 (Hartree/Particle)
 Thermal correction to Energy=                    0.028411
 Thermal correction to Enthalpy=                  0.029355
 Thermal correction to Gibbs Free Energy=        -0.000778
 Sum of electronic and zero-point Energies=           -152.357451
 Sum of electronic and thermal Energies=              -152.353996
 Sum of electronic and thermal Enthalpies=            -152.353051
 Sum of electronic and thermal Free Energies=         -152.383185

                     E (Thermal)             CV                S
                      KCal/Mol        Cal/Mol-Kelvin    Cal/Mol-Kelvin
 Total                   17.828             10.270             63.421
 Electronic               0.000              0.000              2.183
 Translational            0.889              2.981             37.592
 Rotational               0.889              2.981             21.889
 Vibrational             16.051              4.309              1.757
 Vibration     1          0.839              1.288              0.702
 Vibration     2          0.886              1.182              0.585

 Normal termination of Gaussian 09 at Thu Jan 24 15:40:47 2019.
