 Gaussian 09, Revision D.01,
 Gaussian 09:  ES64L-G09RevD.01 24-Apr-2013

 ---------------------------
 #p b3lyp/6-311++g(d,p) freq
 ---------------------------

 ---
 min
 ---
 Symbolic Z-matrix:
 Charge =  1 Multiplicity = 1

                         Standard orientation:
 ---------------------------------------------------------------------
 Center     Atomic      Atomic             Coordinates (Angstroms)
 Number     Number       Type             X           Y           Z
 ---------------------------------------------------------------------
      1          6           0        0.000000   -0.000000   -0.744237
      2          6           0        0.000000   -0.000000   -2.089029
      3          6           0       -0.000000    0.000000    1.800631
      4          6           0       -0.000000    0.000000    0.552945
      5          1           0       -0.000000    0.000000    2.878136
 ---------------------------------------------------------------------

 SCF Done:  E(RB3LYP) =  -152.414630633     A.U. after   12 cycles

 Unable to determine electronic state:  partially filled degenerate orbitals.
 Alpha  occ. eigenvalues --  -10.55254 -10.54123 -10.52199 -10.52015  -1.11933
 Alpha  occ. eigenvalues --   -1.04542  -0.94159  -0.82738  -0.65404  -0.65087
 Alpha  occ. eigenvalues --   -0.56564  -0.53928
 Alpha virt. eigenvalues --   -0.48891  -0.32699  -0.32416  -0.16582  -0.15771
 Alpha virt. eigenvalues --   -0.14627  -0.14389  -0.10515  -0.10316  -0.10145
 Alpha virt. eigenvalues --   -0.06919  -0.05265  -0.05106  -0.03756  -0.00849

 Mulliken charges:
               1
     1  C    0.327837
     2  C   -0.082677
     3  C   -1.511371
     4  C    1.998777
     5  H    0.267434
 Sum of Mulliken charges =   1.00000

 Dipole moment (field-independent basis, Debye):
    X=             -0.0000    Y=             -0.0000    Z=              4.0114  Tot=              4.0114
 Quadrupole moment (field-independent basis, Debye-Ang):
   XX=            -18.4499   YY=            -21.8913   ZZ=             -4.1718
   XY=              0.0000   XZ=             -0.0000   YZ=              0.0000

  Exact polarizability:  19.159   0.000  19.306  -0.000  -0.000  81.749
 Approx polarizability:  27.703  -0.000  25.258  -0.000   0.000 212.201

                      1                      2                      3
                     ?A                     ?A                     ?A
 Frequencies --     60.0608               186.9405               297.7725
 Red. masses --      8.8067                 6.8577                 4.1506
 Frc consts  --      0.0187                 0.1412                 0.2168
 IR Inten    --     13.7346                 2.1652                31.6396

                      4                      5                      6
                     ?A                     ?A                     SG
 Frequencies --    430.9125               529.8732               919.9531
 Red. masses --      8.9160                 1.2341                 9.0253
 Frc consts  --      0.9754                 0.2042                 4.5003
 IR Inten    --     10.5485                61.6493                27.8737

                      7                      8                      9
                     ?A                     SG                     SG
 Frequencies --    926.7024              1651.5507              2133.4830
 Red. masses --      1.4010                 8.1690                 8.7126
 Frc consts  --      0.7089                13.1281                23.3656
 IR Inten    --      3.5488               470.2807                 2.0940

                     10
                     SG
 Frequencies --   3333.2755
 Red. masses --      1.1421
 Frc consts  --      7.4767
 IR Inten    --    240.0650

 - Thermochemistry -
 -------------------
 Temperature   298.150 Kelvin.  Pressure   1.00000 Atm.
 Atom     1 has atomic number  6 and mass  12.00000

 Molecular mass:    49.00783 amu.
 Principal axes and moments of inertia in atomic units:
                           1         2         3
     Eigenvalues --     0.00000 392.00846 392.00846
           X           -0.00000  -0.55205   0.83381
           Y            0.00000   0.83381   0.55205
           Z            1.00000  -0.00000   0.00000
 This molecule is a prolate symmetric top.
 Rotational symmetry number  1.
 Rotational temperature (Kelvin)      0.22095
 Rotational constant (GHZ):           4.603832
 Zero-point vibrational energy      62627.6 (Joules/Mol)
                                   14.96837 (Kcal/Mol)
 Warning -- explicit consideration of   5 degrees of freedom as
           vibrations may cause significant error
 Vibrational temperatures:     86.41   268.97   428.43   619.99   762.37
          (Kelvin)           1323.61  1333.32  2376.21  3069.60  4795.83

 Zero-point correction=                           0.023854 (Hartree/Particle)
 Thermal correction to Energy=                    0.028618
 Thermal correction to Enthalpy=                  0.029562
 Thermal correction to Gibbs Free Energy=        -0.000727
 Sum of electronic and zero-point Energies=           -152.390777
 Sum of electronic and thermal Energies=              -152.386013
 Sum of electronic and thermal Enthalpies=            -152.385069
 Sum of electronic and thermal Free Energies=         -152.415358

                     E (Thermal)             CV                S
                      KCal/Mol        Cal/Mol-Kelvin    Cal/Mol-Kelvin
 Total                   17.958             14.053             63.749
 Electronic               0.000              0.000              0.000
 Translational            0.889              2.981             37.592
 Rotational               0.592              1.987             16.310
 Vibrational             16.477              9.085              9.847
 Vibration     1          0.597              1.973              4.455
 Vibration     2          0.632              1.858              2.258
 Vibration     3          0.691              1.678              1.429
 Vibration     4          0.792              1.403              0.856
 Vibration     5          0.885              1.184              0.587

 Optimization completed.
    -- Stationary point found.
 Normal termination of Gaussian 09 at Thu Jan 24 15:40:08 2019.
