 Gaussian 09, Revision D.01,
 Gaussian 09:  ES64L-G09RevD.01 24-Apr-2013

 ---------------------------
 #p b3lyp/6-311++g(d,p) freq
 ---------------------------

 ---
 min
 ---
 Symbolic Z-matrix:
 Charge =  0 Multiplicity = 4

                         Standard orientation:
 ---------------------------------------------------------------------
 Center     Atomic      Atomic             Coordinates (Angstroms)
 Number     Number       Type             X           Y           Z
 ---------------------------------------------------------------------
      1          1           0        1.561176   -0.808899   -0.000000
      2          6           0        0.482762   -0.615675   -0.000000
      3          6           0       -0.000000    0.641261    0.000000
      4          6           0       -0.396866    1.874013    0.000000
      5          6           0       -0.346092   -1.764784   -0.000000
 ---------------------------------------------------------------------

 SCF Done:  E(UB3LYP) =  -152.678208945     A.U. after   20 cycles

 The electronic state is 4-A".
 Alpha  occ. eigenvalues --  -10.28583 -10.27991 -10.25548 -10.24766  -0.88121
 Alpha  occ. eigenvalues --   -0.79282  -0.65546  -0.55820  -0.41280  -0.40448
 Alpha  occ. eigenvalues --   -0.33565  -0.32885  -0.30517  -0.26536
 Alpha virt. eigenvalues --   -0.11199  -0.03309  -0.00056   0.03494   0.03520
 Alpha virt. eigenvalues --    0.03888   0.05182   0.07097   0.07315   0.08718
 Alpha virt. eigenvalues --    0.09330   0.10378   0.10715   0.11834   0.12408

  Beta  occ. eigenvalues --  -10.27793 -10.25692 -10.24578 -10.24228  -0.85558
  Beta  occ. eigenvalues --   -0.74601  -0.60975  -0.53393  -0.37811  -0.31367
  Beta  occ. eigenvalues --   -0.30867
  Beta virt. eigenvalues --   -0.22858  -0.19768  -0.08803  -0.05483  -0.01573
  Beta virt. eigenvalues --    0.01266   0.04317   0.04677   0.04757   0.06445
  Beta virt. eigenvalues --    0.07362   0.07699   0.09550   0.10007   0.10979

 Mulliken charges and spin densities:
               1          2
     1  H    0.205727   0.086838
     2  C   -0.370368   0.079665
     3  C    0.625590   0.408662
     4  C   -0.384899   0.600875
     5  C   -0.076050   1.823960
 Sum of Mulliken charges =   0.00000   3.00000

 Dipole moment (field-independent basis, Debye):
    X=              1.7539    Y=             -1.7730    Z=             -0.0000  Tot=              2.4940
 Quadrupole moment (field-independent basis, Debye-Ang):
   XX=            -22.3159   YY=            -32.0965   ZZ=            -23.3656
   XY=             -0.2085   XZ=              0.0000   YZ=             -0.0000

  Exact polarizability:  39.896   2.323 139.213   0.000   0.000  30.230
 Approx polarizability:  55.111  10.071 325.512  -0.000   0.000  38.518

                      1                      2                      3
                     A'                     A"                     A'
 Frequencies --    187.4800               259.3477               529.3583
 Red. masses --      9.1001                 4.7926                10.0663
 Frc consts  --      0.1885                 0.1899                 1.6619
 IR Inten    --     14.6487                 6.3205                 1.1275

                      4                      5                      6
                     A"                     A'                     A'
 Frequencies --    771.6478              1014.8484              1133.1209
 Red. masses --      1.7411                 7.7711                 1.7808
 Frc consts  --      0.6108                 4.7156                 1.3472
 IR Inten    --     10.9281                91.3302               134.4391

                      7                      8                      9
                     A'                     A'                     A'
 Frequencies --   1249.6936              1861.5423              3031.0012
 Red. masses --      2.3503                11.5442                 1.0844
 Frc consts  --      2.1626                23.5700                 5.8696
 IR Inten    --     20.4248               803.0062                20.4459

 - Thermochemistry -
 -------------------
 Temperature   298.150 Kelvin.  Pressure   1.00000 Atm.
 Atom     1 has atomic number  1 and mass   1.00783

 Molecular mass:    49.00783 amu.
 Principal axes and moments of inertia in atomic units:
                           1         2         3
     Eigenvalues --    28.66904 321.92989 350.59893
           X           -0.07829   0.99693   0.00000
           Y            0.99693   0.07829   0.00000
           Z            0.00000   0.00000   1.00000
 This molecule is an asymmetric top.
 Rotational symmetry number  1.
 Rotational temperatures (Kelvin)      3.02116     0.26905     0.24705
 Rotational constants (GHZ):          62.95088     5.60601     5.14759
 Zero-point vibrational energy      60040.8 (Joules/Mol)
                                   14.35010 (Kcal/Mol)
 Warning -- explicit consideration of   3 degrees of freedom as
           vibrations may cause significant error
 Vibrational temperatures:    269.74   373.14   761.63  1110.23  1460.14
          (Kelvin)           1630.31  1798.03  2678.34  4360.93

 Zero-point correction=                           0.022868 (Hartree/Particle)
 Thermal correction to Energy=                    0.027117
 Thermal correction to Enthalpy=                  0.028061
 Thermal correction to Gibbs Free Energy=        -0.004230
 Sum of electronic and zero-point Energies=           -152.655341
 Sum of electronic and thermal Energies=              -152.651092
 Sum of electronic and thermal Enthalpies=            -152.650148
 Sum of electronic and thermal Free Energies=         -152.682439

                     E (Thermal)             CV                S
                      KCal/Mol        Cal/Mol-Kelvin    Cal/Mol-Kelvin
 Total                   17.016             12.258             67.962
 Electronic               0.000              0.000              2.755
 Translational            0.889              2.981             37.592
 Rotational               0.889              2.981             22.697
 Vibrational             15.239              6.297              4.918
 Vibration     1          0.632              1.857              2.253
 Vibration     2          0.668              1.747              1.666
 Vibration     3          0.884              1.185              0.589

 Optimization completed.
    -- Stationary point found.
 Normal termination of Gaussian 09 at Sun Mar  4 21:14:03 2018.
