 Gaussian 09, Revision D.01,
 Gaussian 09:  ES64L-G09RevD.01 24-Apr-2013

 ---------------------------
 #p b3lyp/6-311++g(d,p) freq
 ---------------------------

 ---
 min
 ---
 Symbolic Z-matrix:
 Charge =  0 Multiplicity = 4

                         Standard orientation:
 ---------------------------------------------------------------------
 Center     Atomic      Atomic             Coordinates (Angstroms)
 Number     Number       Type             X           Y           Z
 ---------------------------------------------------------------------
      1          6           0       -0.000000    0.344186   -0.000000
      2          6           0       -0.429471   -1.043968    0.000000
      3          1           0       -1.225995   -1.775344    0.000000
      4          6           0        0.876833   -0.733344    0.000000
      5          6           0       -0.243030    1.729017   -0.000000
 ---------------------------------------------------------------------

 SCF Done:  E(UB3LYP) =  -152.680390985     A.U. after   19 cycles

 The electronic state is 4-A".
 Alpha  occ. eigenvalues --  -10.28863 -10.27893 -10.27815 -10.22004  -0.98410
 Alpha  occ. eigenvalues --   -0.74684  -0.64202  -0.52049  -0.45605  -0.45000
 Alpha  occ. eigenvalues --   -0.34222  -0.32419  -0.26558  -0.20619
 Alpha virt. eigenvalues --   -0.08201  -0.01316  -0.00816   0.02770   0.03292
 Alpha virt. eigenvalues --    0.05094   0.06733   0.06851   0.07550   0.09453
 Alpha virt. eigenvalues --    0.09510   0.10339   0.12388   0.14248   0.14755

  Beta  occ. eigenvalues --  -10.28091 -10.27454 -10.26524 -10.19598  -0.96555
  Beta  occ. eigenvalues --   -0.68681  -0.62299  -0.47242  -0.42656  -0.41917
  Beta  occ. eigenvalues --   -0.26510
  Beta virt. eigenvalues --   -0.20057  -0.14750  -0.05644  -0.05216  -0.00975
  Beta virt. eigenvalues --    0.02490   0.03204   0.04129   0.07032   0.07182
  Beta virt. eigenvalues --    0.07362   0.07982   0.09979   0.10759   0.10789

 Mulliken charges and spin densities:
               1          2
     1  C    0.292364   0.395132
     2  C   -0.119305   0.508456
     3  H    0.181888   0.001167
     4  C   -0.009963   0.572902
     5  C   -0.344985   1.522343
 Sum of Mulliken charges =  -0.00000   3.00000

 Dipole moment (field-independent basis, Debye):
    X=             -1.2085    Y=             -4.0180    Z=              0.0000  Tot=              4.1958
 Quadrupole moment (field-independent basis, Debye-Ang):
   XX=            -23.2382   YY=            -28.5853   ZZ=            -22.9201
   XY=              3.0974   XZ=             -0.0000   YZ=              0.0000

  Exact polarizability:  60.202 -35.730 124.516  -0.000   0.000  29.262
 Approx polarizability:  86.321 -51.761 206.232   0.000  -0.000  38.195

                      1                      2                      3
                     A'                     A"                     A'
 Frequencies --    332.9350               333.4917               403.8811
 Red. masses --      7.2228                 6.9572                 5.9744
 Frc consts  --      0.4717                 0.4559                 0.5742
 IR Inten    --   1202.5203                10.3187                 5.0142

                      4                      5                      6
                     A"                     A'                     A'
 Frequencies --    739.6268               871.3734               959.2340
 Red. masses --      1.3793                 2.1069                 2.4989
 Frc consts  --      0.4445                 0.9425                 1.3547
 IR Inten    --     32.4321                18.5437                38.7709

                      7                      8                      9
                     A'                     A'                     A'
 Frequencies --   1345.6965              1608.7274              3219.7258
 Red. masses --      9.2844                 8.8547                 1.1085
 Frc consts  --      9.9060                13.5017                 6.7703
 IR Inten    --    116.7657                91.2316                 3.1933

 - Thermochemistry -
 -------------------
 Temperature   298.150 Kelvin.  Pressure   1.00000 Atm.
 Atom     1 has atomic number  6 and mass  12.00000

 Molecular mass:    49.00783 amu.
 Principal axes and moments of inertia in atomic units:
                           1         2         3
     Eigenvalues --    46.60158 216.13414 262.73571
           X           -0.11082   0.99384   0.00000
           Y            0.99384   0.11082   0.00000
           Z            0.00000   0.00000   1.00000
 This molecule is an asymmetric top.
 Rotational symmetry number  1.
 Rotational temperatures (Kelvin)      1.85860     0.40074     0.32966
 Rotational constants (GHZ):          38.72704     8.35010     6.86904
 Zero-point vibrational energy      58704.9 (Joules/Mol)
                                   14.03081 (Kcal/Mol)
 Warning -- explicit consideration of   3 degrees of freedom as
           vibrations may cause significant error
 Vibrational temperatures:    479.02   479.82   581.09  1064.16  1253.71
          (Kelvin)           1380.12  1936.15  2314.60  4632.46

 Zero-point correction=                           0.022360 (Hartree/Particle)
 Thermal correction to Energy=                    0.026472
 Thermal correction to Enthalpy=                  0.027416
 Thermal correction to Gibbs Free Energy=        -0.004342
 Sum of electronic and zero-point Energies=           -152.658031
 Sum of electronic and thermal Energies=              -152.653919
 Sum of electronic and thermal Enthalpies=            -152.652975
 Sum of electronic and thermal Free Energies=         -152.684733

                     E (Thermal)             CV                S
                      KCal/Mol        Cal/Mol-Kelvin    Cal/Mol-Kelvin
 Total                   16.611             12.540             66.841
 Electronic               0.000              0.000              2.755
 Translational            0.889              2.981             37.592
 Rotational               0.889              2.981             22.497
 Vibrational             14.834              6.578              3.997
 Vibration     1          0.715              1.610              1.246
 Vibration     2          0.715              1.609              1.243
 Vibration     3          0.769              1.462              0.948

 Normal termination of Gaussian 09 at Sun Mar  4 21:14:03 2018.
