 Gaussian 09, Revision D.01,
 Gaussian 09:  ES64L-G09RevD.01 24-Apr-2013

 ---------------------------
 #p b3lyp/6-311++g(d,p) freq
 ---------------------------

 ---
 min
 ---
 Symbolic Z-matrix:
 Charge =  1 Multiplicity = 3

                         Standard orientation:
 ---------------------------------------------------------------------
 Center     Atomic      Atomic             Coordinates (Angstroms)
 Number     Number       Type             X           Y           Z
 ---------------------------------------------------------------------
      1          1           0       -0.000000   -0.000000    2.593487
      2          6           0       -0.000000   -0.000000    1.512388
      3          6           0       -0.000000   -0.000000    0.203908
      4          6           0        0.000000    0.649730   -1.074271
      5          6           0       -0.000000   -0.649730   -1.074271
 ---------------------------------------------------------------------

 SCF Done:  E(UB3LYP) =  -152.373359540     A.U. after   15 cycles

 The electronic state is 3-A2.
 Alpha  occ. eigenvalues --  -10.58087 -10.57839 -10.52705 -10.52586  -1.23921
 Alpha  occ. eigenvalues --   -1.09172  -0.86139  -0.77436  -0.74178  -0.70861
 Alpha  occ. eigenvalues --   -0.59121  -0.57499  -0.56802
 Alpha virt. eigenvalues --   -0.39910  -0.27179  -0.27149  -0.18259  -0.15404
 Alpha virt. eigenvalues --   -0.11416  -0.11375  -0.10961  -0.07578  -0.07037
 Alpha virt. eigenvalues --   -0.06455  -0.05411  -0.03598  -0.03416  -0.02845

  Beta  occ. eigenvalues --  -10.58220 -10.55772 -10.51818 -10.51701  -1.23033
  Beta  occ. eigenvalues --   -1.03935  -0.83990  -0.75049  -0.72691  -0.67461
  Beta  occ. eigenvalues --   -0.53275
  Beta virt. eigenvalues --   -0.47324  -0.44536  -0.34144  -0.23431  -0.23431
  Beta virt. eigenvalues --   -0.16583  -0.14860  -0.10981  -0.10729  -0.10093
  Beta virt. eigenvalues --   -0.07086  -0.06743  -0.05840  -0.05037  -0.02802

 Mulliken charges and spin densities:
               1          2
     1  H    0.325957  -0.045101
     2  C    0.460841   1.514561
     3  C    0.442423  -0.071612
     4  C   -0.114611   0.301076
     5  C   -0.114611   0.301076
 Sum of Mulliken charges =   1.00000   2.00000

 Dipole moment (field-independent basis, Debye):
    X=              0.0000    Y=             -0.0000    Z=              3.3439  Tot=              3.3439
 Quadrupole moment (field-independent basis, Debye-Ang):
   XX=            -19.9907   YY=            -21.1699   ZZ=             -4.9631
   XY=             -0.0000   XZ=              0.0000   YZ=              0.0000

  Exact polarizability:  21.440   0.000   8.349  -0.000   0.000  57.571
 Approx polarizability:  28.245   0.000 100.465   0.000   0.000 116.655

                      1                      2                      3
                     B2                     B1                     B1
 Frequencies --    110.4771               344.7387               398.4846
 Red. masses --      2.9163                 1.1515                11.6958
 Frc consts  --      0.0210                 0.0806                 1.0942
 IR Inten    --      7.4093                53.5674                 0.3392

                      4                      5                      6
                     B2                     B2                     A1
 Frequencies --    590.9167               889.8297               942.6136
 Red. masses --      1.9617                 5.0251                 8.2074
 Frc consts  --      0.4036                 2.3443                 4.2966
 IR Inten    --     25.3653               146.4042                11.6381

                      7                      8                      9
                     A1                     A1                     A1
 Frequencies --   1572.7330              1666.0764              3278.2114
 Red. masses --      8.5243                11.2686                 1.1165
 Frc consts  --     12.4227                18.4293                 7.0695
 IR Inten    --      0.5554                 0.0001               331.2833

 - Thermochemistry -
 -------------------
 Temperature   298.150 Kelvin.  Pressure   1.00000 Atm.
 Atom     1 has atomic number  1 and mass   1.00783

 Molecular mass:    49.00783 amu.
 Principal axes and moments of inertia in atomic units:
                           1         2         3
     Eigenvalues --    36.18052 222.43395 258.61447
           X            0.00000  -0.00000   1.00000
           Y            0.00000   1.00000   0.00000
           Z            1.00000  -0.00000   0.00000
 This molecule is an asymmetric top.
 Rotational symmetry number  2.
 Rotational temperatures (Kelvin)      2.39393     0.38939     0.33491
 Rotational constants (GHZ):          49.88157     8.11360     6.97850
 Zero-point vibrational energy      58581.6 (Joules/Mol)
                                   14.00134 (Kcal/Mol)
 Warning -- explicit consideration of   4 degrees of freedom as
           vibrations may cause significant error
 Vibrational temperatures:    158.95   496.00   573.33   850.20  1280.26
          (Kelvin)           1356.21  2262.81  2397.11  4716.61

 Zero-point correction=                           0.022313 (Hartree/Particle)
 Thermal correction to Energy=                    0.026811
 Thermal correction to Enthalpy=                  0.027755
 Thermal correction to Gibbs Free Energy=        -0.003992
 Sum of electronic and zero-point Energies=           -152.351047
 Sum of electronic and thermal Energies=              -152.346549
 Sum of electronic and thermal Enthalpies=            -152.345604
 Sum of electronic and thermal Free Energies=         -152.377352

                     E (Thermal)             CV                S
                      KCal/Mol        Cal/Mol-Kelvin    Cal/Mol-Kelvin
 Total                   16.824             13.071             66.818
 Electronic               0.000              0.000              2.183
 Translational            0.889              2.981             37.592
 Rotational               0.889              2.981             20.881
 Vibrational             15.047              7.109              6.162
 Vibration     1          0.606              1.941              3.261
 Vibration     2          0.723              1.586              1.190
 Vibration     3          0.765              1.473              0.968
 Vibration     4          0.948              1.051              0.466

 Normal termination of Gaussian 09 at Thu Jan 24 15:40:30 2019.
