 Gaussian 09, Revision D.01,
 Gaussian 09:  ES64L-G09RevD.01 24-Apr-2013

 ---------------------------
 #p b3lyp/6-311++g(d,p) freq
 ---------------------------

 ---
 min
 ---
 Symbolic Z-matrix:
 Charge =  0 Multiplicity = 4

                         Standard orientation:
 ---------------------------------------------------------------------
 Center     Atomic      Atomic             Coordinates (Angstroms)
 Number     Number       Type             X           Y           Z
 ---------------------------------------------------------------------
      1          6           0       -0.000000    0.693268    0.000000
      2          6           0       -0.471804   -0.513968    0.000000
      3          6           0       -0.006039   -1.790774   -0.000000
      4          6           0        0.309130    1.975992    0.000000
      5          1           0        1.012279   -2.187108   -0.000000
 ---------------------------------------------------------------------

 SCF Done:  E(UB3LYP) =  -152.718627300     A.U. after   18 cycles

 The electronic state is 4-A".
 Alpha  occ. eigenvalues --  -10.29089 -10.25545 -10.25068 -10.24083  -0.87041
 Alpha  occ. eigenvalues --   -0.79317  -0.67917  -0.55338  -0.42050  -0.41081
 Alpha  occ. eigenvalues --   -0.33521  -0.32141  -0.31109  -0.23382
 Alpha virt. eigenvalues --   -0.11117  -0.02220   0.01275   0.03053   0.04256
 Alpha virt. eigenvalues --    0.04711   0.05424   0.06711   0.08186   0.08996
 Alpha virt. eigenvalues --    0.10482   0.10900   0.11832   0.11895   0.12638

  Beta  occ. eigenvalues --  -10.26785 -10.24740 -10.23807 -10.23662  -0.84061
  Beta  occ. eigenvalues --   -0.74244  -0.64293  -0.52677  -0.37211  -0.35616
  Beta  occ. eigenvalues --   -0.30418
  Beta virt. eigenvalues --   -0.19809  -0.18214  -0.09098  -0.05793  -0.00923
  Beta virt. eigenvalues --    0.02395   0.04460   0.05526   0.05896   0.06547
  Beta virt. eigenvalues --    0.06964   0.09205   0.09648   0.11409   0.11559

 Mulliken charges and spin densities:
               1          2
     1  C    0.570554   0.331339
     2  C   -0.329003   0.390994
     3  C   -0.063413   1.411765
     4  C   -0.344274   0.818498
     5  H    0.166136   0.047404
 Sum of Mulliken charges =   0.00000   3.00000

 Dipole moment (field-independent basis, Debye):
    X=              0.7257    Y=             -3.3300    Z=             -0.0000  Tot=              3.4081
 Quadrupole moment (field-independent basis, Debye-Ang):
   XX=            -23.8548   YY=            -28.3214   ZZ=            -23.0758
   XY=             -3.4464   XZ=              0.0000   YZ=             -0.0000

  Exact polarizability:  35.516   6.248  93.685  -0.000   0.000  28.824
 Approx polarizability:  49.554  22.587 186.245   0.000   0.000  36.975

                      1                      2                      3
                     A'                     A"                     A'
 Frequencies --    154.8161               220.6937               419.4789
 Red. masses --      4.7415                 6.9682                 8.2099
 Frc consts  --      0.0670                 0.2000                 0.8512
 IR Inten    --      8.0520                40.4375                12.3826

                      4                      5                      6
                     A"                     A'                     A'
 Frequencies --    716.6308               958.4837               996.6195
 Red. masses --      1.8498                 1.2722                10.6466
 Frc consts  --      0.5597                 0.6886                 6.2304
 IR Inten    --      9.3771                11.3526                 7.8049

                      7                      8                      9
                     A'                     A'                     A'
 Frequencies --   1386.4459              1901.9866              3073.2994
 Red. masses --     10.5492                11.6391                 1.0905
 Frc consts  --     11.9475                24.8076                 6.0685
 IR Inten    --    165.3908                11.7523                20.7558

 - Thermochemistry -
 -------------------
 Temperature   298.150 Kelvin.  Pressure   1.00000 Atm.
 Atom     1 has atomic number  6 and mass  12.00000

 Molecular mass:    49.00783 amu.
 Principal axes and moments of inertia in atomic units:
                           1         2         3
     Eigenvalues --    14.72966 356.05289 370.78255
           X            0.08593   0.99630   0.00000
           Y            0.99630  -0.08593  -0.00000
           Z            0.00000  -0.00000   1.00000
 This molecule is an asymmetric top.
 Rotational symmetry number  1.
 Rotational temperatures (Kelvin)      5.88023     0.24326     0.23360
 Rotational constants (GHZ):         122.52432     5.06874     4.86738
 Zero-point vibrational energy      58787.2 (Joules/Mol)
                                   14.05048 (Kcal/Mol)
 Warning -- explicit consideration of   3 degrees of freedom as
           vibrations may cause significant error
 Vibrational temperatures:    222.75   317.53   603.54  1031.07  1379.04
          (Kelvin)           1433.91  1994.78  2736.53  4421.79

 Zero-point correction=                           0.022391 (Hartree/Particle)
 Thermal correction to Energy=                    0.026874
 Thermal correction to Enthalpy=                  0.027818
 Thermal correction to Gibbs Free Energy=        -0.004734
 Sum of electronic and zero-point Energies=           -152.696236
 Sum of electronic and thermal Energies=              -152.691754
 Sum of electronic and thermal Enthalpies=            -152.690809
 Sum of electronic and thermal Free Energies=         -152.723361

                     E (Thermal)             CV                S
                      KCal/Mol        Cal/Mol-Kelvin    Cal/Mol-Kelvin
 Total                   16.864             12.828             68.511
 Electronic               0.000              0.000              2.755
 Translational            0.889              2.981             37.592
 Rotational               0.889              2.981             22.191
 Vibrational             15.086              6.867              5.973
 Vibration     1          0.620              1.897              2.612
 Vibration     2          0.647              1.810              1.953
 Vibration     3          0.782              1.428              0.894

 Optimization completed.
    -- Stationary point found.
 Normal termination of Gaussian 09 at Sun Mar  4 21:14:00 2018.
