 Gaussian 09, Revision D.01,
 Gaussian 09:  ES64L-G09RevD.01 24-Apr-2013

 ---------------------------
 #p b3lyp/6-311++g(d,p) freq
 ---------------------------

 ---
 min
 ---
 Symbolic Z-matrix:
 Charge =  0 Multiplicity = 4

                         Standard orientation:
 ---------------------------------------------------------------------
 Center     Atomic      Atomic             Coordinates (Angstroms)
 Number     Number       Type             X           Y           Z
 ---------------------------------------------------------------------
      1          6           0        0.829868   -1.031154   -0.000000
      2          6           0        0.000000    0.169719    0.000000
      3          6           0       -0.114562    1.557928    0.000000
      4          6           0       -0.548524   -1.060637   -0.000000
      5          1           0       -1.000694    2.184861    0.000000
 ---------------------------------------------------------------------

 SCF Done:  E(UB3LYP) =  -152.699839549     A.U. after   16 cycles

 The electronic state is 4-A".
 Alpha  occ. eigenvalues --  -10.27921 -10.27818 -10.25533 -10.23733  -0.96425
 Alpha  occ. eigenvalues --   -0.79255  -0.56952  -0.53729  -0.45800  -0.43608
 Alpha  occ. eigenvalues --   -0.35462  -0.30939  -0.29933  -0.24735
 Alpha virt. eigenvalues --   -0.04155  -0.01575  -0.00787   0.03775   0.04469
 Alpha virt. eigenvalues --    0.05361   0.05385   0.06684   0.08580   0.08809
 Alpha virt. eigenvalues --    0.11008   0.11629   0.11984   0.13513   0.14122

  Beta  occ. eigenvalues --  -10.27510 -10.25321 -10.23964 -10.23057  -0.94508
  Beta  occ. eigenvalues --   -0.73544  -0.53880  -0.49514  -0.41037  -0.40565
  Beta  occ. eigenvalues --   -0.27356
  Beta virt. eigenvalues --   -0.18824  -0.16345  -0.10982  -0.01335  -0.00280
  Beta virt. eigenvalues --    0.01268   0.04537   0.05199   0.05861   0.07246
  Beta virt. eigenvalues --    0.07519   0.09061   0.09403   0.11682   0.12234

 Mulliken charges and spin densities:
               1          2
     1  C   -0.432436   0.251848
     2  C    0.398449   0.321434
     3  C   -0.049226   1.730953
     4  C   -0.080685   0.699965
     5  H    0.163897  -0.004199
 Sum of Mulliken charges =  -0.00000   3.00000

 Dipole moment (field-independent basis, Debye):
    X=             -2.0535    Y=              2.3997    Z=              0.0000  Tot=              3.1584
 Quadrupole moment (field-independent basis, Debye-Ang):
   XX=            -26.2012   YY=            -22.8551   ZZ=            -22.9508
   XY=             -0.3075   XZ=              0.0000   YZ=             -0.0000

  Exact polarizability:  47.837  -0.422  64.911  -0.000  -0.000  27.065
 Approx polarizability:  69.378   2.057 105.080   0.000   0.000  37.580

                      1                      2                      3
                     A'                     A"                     A"
 Frequencies --    343.3944               403.7428               620.3153
 Red. masses --      3.8902                 3.3780                 1.5531
 Frc consts  --      0.2703                 0.3244                 0.3521
 IR Inten    --      6.5388                 0.0010                20.1660

                      4                      5                      6
                     A'                     A'                     A'
 Frequencies --    679.8143               893.7375               941.7711
 Red. masses --      6.5006                 4.0047                 1.8679
 Frc consts  --      1.7700                 1.8847                 0.9761
 IR Inten    --     68.8952                74.2251                12.2243

                      7                      8                      9
                     A'                     A'                     A'
 Frequencies --   1305.7476              1649.4979              3175.2779
 Red. masses --     11.1805                11.6033                 1.0902
 Frc consts  --     11.2313                18.6010                 6.4764
 IR Inten    --     16.0337                12.7163                 4.0196

 - Thermochemistry -
 -------------------
 Temperature   298.150 Kelvin.  Pressure   1.00000 Atm.
 Atom     1 has atomic number  6 and mass  12.00000

 Molecular mass:    49.00783 amu.
 Principal axes and moments of inertia in atomic units:
                           1         2         3
     Eigenvalues --    42.26935 220.08424 262.35359
           X           -0.15425   0.98803   0.00000
           Y            0.98803   0.15425   0.00000
           Z            0.00000   0.00000   1.00000
 This molecule is an asymmetric top.
 Rotational symmetry number  1.
 Rotational temperatures (Kelvin)      2.04909     0.39355     0.33014
 Rotational constants (GHZ):          42.69621     8.20023     6.87904
 Zero-point vibrational energy      59892.8 (Joules/Mol)
                                   14.31473 (Kcal/Mol)
 Warning -- explicit consideration of   3 degrees of freedom as
           vibrations may cause significant error
 Vibrational temperatures:    494.07   580.90   892.49   978.10  1285.89
          (Kelvin)           1355.00  1878.68  2373.26  4568.51

 Zero-point correction=                           0.022812 (Hartree/Particle)
 Thermal correction to Energy=                    0.026704
 Thermal correction to Enthalpy=                  0.027648
 Thermal correction to Gibbs Free Energy=        -0.003687
 Sum of electronic and zero-point Energies=           -152.677028
 Sum of electronic and thermal Energies=              -152.673136
 Sum of electronic and thermal Enthalpies=            -152.672191
 Sum of electronic and thermal Free Energies=         -152.703526

                     E (Thermal)             CV                S
                      KCal/Mol        Cal/Mol-Kelvin    Cal/Mol-Kelvin
 Total                   16.757             12.013             65.950
 Electronic               0.000              0.000              2.755
 Translational            0.889              2.981             37.592
 Rotational               0.889              2.981             22.417
 Vibrational             14.980              6.052              3.187
 Vibration     1          0.722              1.589              1.196
 Vibration     2          0.769              1.462              0.949
 Vibration     3          0.980              0.989              0.416

 Optimization completed.
    -- Stationary point found.
 Normal termination of Gaussian 09 at Sun Mar  4 21:14:01 2018.
