 Gaussian 09, Revision D.01,
 Gaussian 09:  ES64L-G09RevD.01 24-Apr-2013

 ---------------------------
 #p b3lyp/6-311++g(d,p) freq
 ---------------------------

 ---
 min
 ---
 Symbolic Z-matrix:
 Charge =  0 Multiplicity = 2

                         Standard orientation:
 ---------------------------------------------------------------------
 Center     Atomic      Atomic             Coordinates (Angstroms)
 Number     Number       Type             X           Y           Z
 ---------------------------------------------------------------------
      1          6           0       -1.693913    0.046989   -0.000105
      2          6           0       -0.377000   -0.056192    0.000217
      3          6           0        0.895889    0.544383   -0.000089
      4          6           0        0.960303   -0.793214   -0.000043
      5          1           0        1.288318    1.548202    0.000121
 ---------------------------------------------------------------------

 SCF Done:  E(UB3LYP) =  -152.759113861     A.U. after   18 cycles

 The electronic state is 2-A.
 Alpha  occ. eigenvalues --  -10.27575 -10.26340 -10.26065 -10.26042  -0.96496
 Alpha  occ. eigenvalues --   -0.77900  -0.62954  -0.51238  -0.44326  -0.40971
 Alpha  occ. eigenvalues --   -0.33175  -0.29802  -0.28955
 Alpha virt. eigenvalues --   -0.12289  -0.05760  -0.00979  -0.00430   0.03172
 Alpha virt. eigenvalues --    0.03415   0.05270   0.06853   0.06914   0.07865
 Alpha virt. eigenvalues --    0.08957   0.09741   0.10835   0.12738   0.14307

  Beta  occ. eigenvalues --  -10.27275 -10.25952 -10.25917 -10.25385  -0.95842
  Beta  occ. eigenvalues --   -0.74882  -0.62575  -0.50687  -0.41450  -0.40515
  Beta  occ. eigenvalues --   -0.31591  -0.29442
  Beta virt. eigenvalues --   -0.18002  -0.11256  -0.04297  -0.00916   0.02029
  Beta virt. eigenvalues --    0.03286   0.03578   0.06873   0.06906   0.06978
  Beta virt. eigenvalues --    0.07902   0.09851   0.09857   0.11135   0.12767

 Mulliken charges and spin densities:
               1          2
     1  C   -0.180696   0.710730
     2  C    0.217651   0.060019
     3  C    0.064040   0.190516
     4  C   -0.312979   0.047458
     5  H    0.211984  -0.008722
 Sum of Mulliken charges =  -0.00000   1.00000

 Dipole moment (field-independent basis, Debye):
    X=              2.0721    Y=              2.5818    Z=              0.0007  Tot=              3.3105
 Quadrupole moment (field-independent basis, Debye-Ang):
   XX=            -28.6602   YY=            -23.2504   ZZ=            -23.0339
   XY=              4.2062   XZ=             -0.0010   YZ=              0.0001

  Exact polarizability:  67.127  -3.753  38.661  -0.002  -0.000  28.684
 Approx polarizability: 138.613 -12.099  60.717  -0.001  -0.001  38.989

                      1                      2                      3
                      A                      A                      A
 Frequencies --    184.9092               348.9299               663.5910
 Red. masses --      6.8639                 8.8923                10.9922
 Frc consts  --      0.1383                 0.6379                 2.8519
 IR Inten    --      9.8569                10.5489                 0.9756

                      4                      5                      6
                      A                      A                      A
 Frequencies --    768.1853               919.5502               998.4364
 Red. masses --      1.3554                 2.2383                 2.0053
 Frc consts  --      0.4713                 1.1151                 1.1778
 IR Inten    --     38.6777                 3.9054                 6.0096

                      7                      8                      9
                      A                      A                      A
 Frequencies --   1398.9003              1699.0673              3275.0345
 Red. masses --      8.8878                 8.5335                 1.1133
 Frc consts  --     10.2475                14.5144                 7.0354
 IR Inten    --     68.6104               111.7497                22.4419

 - Thermochemistry -
 -------------------
 Temperature   298.150 Kelvin.  Pressure   1.00000 Atm.
 Atom     1 has atomic number  6 and mass  12.00000

 Molecular mass:    49.00783 amu.
 Principal axes and moments of inertia in atomic units:
                           1         2         3
     Eigenvalues --    48.02324 209.14009 257.16332
           X            0.99900   0.04480   0.00000
           Y           -0.04480   0.99900   0.00001
           Z           -0.00000  -0.00001   1.00000
 This molecule is an asymmetric top.
 Rotational symmetry number  1.
 Rotational temperatures (Kelvin)      1.80358     0.41414     0.33680
 Rotational constants (GHZ):          37.58058     8.62934     7.01788
 Zero-point vibrational energy      61348.1 (Joules/Mol)
                                   14.66255 (Kcal/Mol)
 Warning -- explicit consideration of   2 degrees of freedom as
           vibrations may cause significant error
 Vibrational temperatures:    266.04   502.03   954.76  1105.25  1323.03
          (Kelvin)           1436.53  2012.70  2444.58  4712.04

 Zero-point correction=                           0.023366 (Hartree/Particle)
 Thermal correction to Energy=                    0.027459
 Thermal correction to Enthalpy=                  0.028403
 Thermal correction to Gibbs Free Energy=        -0.002825
 Sum of electronic and zero-point Energies=           -152.735748
 Sum of electronic and thermal Energies=              -152.731655
 Sum of electronic and thermal Enthalpies=            -152.730711
 Sum of electronic and thermal Free Energies=         -152.761939

                     E (Thermal)             CV                S
                      KCal/Mol        Cal/Mol-Kelvin    Cal/Mol-Kelvin
 Total                   17.231             12.000             65.725
 Electronic               0.000              0.000              1.377
 Translational            0.889              2.981             37.592
 Rotational               0.889              2.981             22.473
 Vibrational             15.453              6.039              4.283
 Vibration     1          0.631              1.860              2.278
 Vibration     2          0.726              1.577              1.171

 Normal termination of Gaussian 09 at Sun Mar  4 21:14:05 2018.
