 Gaussian 09, Revision D.01,
 Gaussian 09:  ES64L-G09RevD.01 24-Apr-2013

 ---------------------------
 #p b3lyp/6-311++g(d,p) freq
 ---------------------------

 ---
 min
 ---
 Symbolic Z-matrix:
 Charge =  1 Multiplicity = 3

                         Standard orientation:
 ---------------------------------------------------------------------
 Center     Atomic      Atomic             Coordinates (Angstroms)
 Number     Number       Type             X           Y           Z
 ---------------------------------------------------------------------
      1          6           0        0.000000    0.367124   -0.000000
      2          6           0        0.944465   -0.656366    0.000000
      3          6           0       -0.458862    1.661595   -0.000000
      4          6           0       -0.293505   -1.081812    0.000000
      5          1           0       -1.152589   -1.743246    0.000000
 ---------------------------------------------------------------------

 SCF Done:  E(UB3LYP) =  -152.386993534     A.U. after   18 cycles

 The electronic state is 3-A".
 Alpha  occ. eigenvalues --  -10.57004 -10.56297 -10.55306 -10.54579  -1.25587
 Alpha  occ. eigenvalues --   -1.04204  -0.88652  -0.77770  -0.72901  -0.71314
 Alpha  occ. eigenvalues --   -0.59429  -0.58764  -0.54531
 Alpha virt. eigenvalues --   -0.38404  -0.32247  -0.25966  -0.16435  -0.16203
 Alpha virt. eigenvalues --   -0.13644  -0.11292  -0.09874  -0.08981  -0.07634
 Alpha virt. eigenvalues --   -0.05739  -0.05169  -0.04446  -0.03999  -0.01824

  Beta  occ. eigenvalues --  -10.55955 -10.55304 -10.54176 -10.54117  -1.24236
  Beta  occ. eigenvalues --   -0.99996  -0.87668  -0.74375  -0.69833  -0.68066
  Beta  occ. eigenvalues --   -0.56391
  Beta virt. eigenvalues --   -0.45030  -0.42513  -0.34918  -0.28911  -0.20671
  Beta virt. eigenvalues --   -0.16093  -0.15456  -0.13269  -0.10808  -0.09310
  Beta virt. eigenvalues --   -0.07840  -0.06959  -0.05167  -0.04285  -0.04031

 Mulliken charges and spin densities:
               1          2
     1  C    0.105357   0.280180
     2  C    0.223086   0.748582
     3  C    0.372446   0.741691
     4  C   -0.004553   0.240835
     5  H    0.303663  -0.011288
 Sum of Mulliken charges =   1.00000   2.00000

 Dipole moment (field-independent basis, Debye):
    X=             -0.7546    Y=             -2.5143    Z=              0.0000  Tot=              2.6251
 Quadrupole moment (field-independent basis, Debye-Ang):
   XX=            -16.4036   YY=            -14.6636   ZZ=            -20.0567
   XY=              2.2880   XZ=             -0.0000   YZ=              0.0000

  Exact polarizability:  36.406  -9.672  55.178  -0.000   0.000  21.924
 Approx polarizability:  61.720 -18.266  97.746   0.000  -0.000  29.380

                      1                      2                      3
                     A'                     A"                     A'
 Frequencies --    250.8291               325.5370               725.3785
 Red. masses --      6.5448                10.4474                10.4157
 Frc consts  --      0.2426                 0.6523                 3.2290
 IR Inten    --      3.3446                 3.5462                18.7524

                      4                      5                      6
                     A"                     A'                     A'
 Frequencies --    819.6244               913.2929               988.0085
 Red. masses --      1.3239                 1.5923                 3.3041
 Frc consts  --      0.5240                 0.7825                 1.9003
 IR Inten    --     38.4712                30.1215                28.6486

                      7                      8                      9
                     A'                     A'                     A'
 Frequencies --   1395.0103              1721.7550              3241.4794
 Red. masses --      9.2771                 7.6693                 1.1252
 Frc consts  --     10.6369                13.3952                 6.9660
 IR Inten    --     51.8755                29.9244               150.2628

 - Thermochemistry -
 -------------------
 Temperature   298.150 Kelvin.  Pressure   1.00000 Atm.
 Atom     1 has atomic number  6 and mass  12.00000

 Molecular mass:    49.00783 amu.
 Principal axes and moments of inertia in atomic units:
                           1         2         3
     Eigenvalues --    46.17738 212.86815 259.04553
           X           -0.23808   0.97125   0.00000
           Y            0.97125   0.23808   0.00000
           Z            0.00000   0.00000   1.00000
 This molecule is an asymmetric top.
 Rotational symmetry number  1.
 Rotational temperatures (Kelvin)      1.87568     0.40689     0.33436
 Rotational constants (GHZ):          39.08279     8.47821     6.96689
 Zero-point vibrational energy      62091.7 (Joules/Mol)
                                   14.84026 (Kcal/Mol)
 Warning -- explicit consideration of   2 degrees of freedom as
           vibrations may cause significant error
 Vibrational temperatures:    360.89   468.37  1043.66  1179.26  1314.02
          (Kelvin)           1421.52  2007.11  2477.22  4663.76

 Zero-point correction=                           0.023649 (Hartree/Particle)
 Thermal correction to Energy=                    0.027632
 Thermal correction to Enthalpy=                  0.028576
 Thermal correction to Gibbs Free Energy=        -0.002766
 Sum of electronic and zero-point Energies=           -152.363344
 Sum of electronic and thermal Energies=              -152.359362
 Sum of electronic and thermal Enthalpies=            -152.358418
 Sum of electronic and thermal Free Energies=         -152.389759

                     E (Thermal)             CV                S
                      KCal/Mol        Cal/Mol-Kelvin    Cal/Mol-Kelvin
 Total                   17.339             11.762             65.964
 Electronic               0.000              0.000              2.183
 Translational            0.889              2.981             37.592
 Rotational               0.889              2.981             22.459
 Vibrational             15.562              5.800              3.730
 Vibration     1          0.663              1.761              1.725
 Vibration     2          0.710              1.624              1.282

 Optimization completed.
    -- Stationary point found.
 Normal termination of Gaussian 09 at Thu Jan 24 15:41:12 2019.
