 Gaussian 09, Revision D.01,
 Gaussian 09:  ES64L-G09RevD.01 24-Apr-2013

 ---------------------------
 #p b3lyp/6-311++g(d,p) freq
 ---------------------------

 ---
 min
 ---
 Symbolic Z-matrix:
 Charge =  0 Multiplicity = 2

                         Standard orientation:
 ---------------------------------------------------------------------
 Center     Atomic      Atomic             Coordinates (Angstroms)
 Number     Number       Type             X           Y           Z
 ---------------------------------------------------------------------
      1          6           0        0.000000   -0.000000   -1.099588
      2          1           0        0.000000   -0.000000   -2.172177
      3          6           0       -0.000000    0.000000    1.317226
      4          6           0       -0.000000    0.755434    0.072196
      5          6           0       -0.000000   -0.755434    0.072196
 ---------------------------------------------------------------------

 SCF Done:  E(UB3LYP) =  -152.763808107     A.U. after   13 cycles

 The electronic state is 2-B1.
 Alpha  occ. eigenvalues --  -10.29041 -10.29013 -10.28195 -10.23908  -1.03133
 Alpha  occ. eigenvalues --   -0.76210  -0.58891  -0.56946  -0.47010  -0.42434
 Alpha  occ. eigenvalues --   -0.35055  -0.28166  -0.25456
 Alpha virt. eigenvalues --   -0.09479  -0.04307  -0.01337   0.00284   0.02715
 Alpha virt. eigenvalues --    0.04770   0.04802   0.05859   0.07814   0.08257
 Alpha virt. eigenvalues --    0.09216   0.09746   0.10586   0.12146   0.14015

  Beta  occ. eigenvalues --  -10.29155 -10.29127 -10.27239 -10.23153  -1.02298
  Beta  occ. eigenvalues --   -0.73794  -0.57743  -0.56763  -0.44075  -0.41718
  Beta  occ. eigenvalues --   -0.34898  -0.27081
  Beta virt. eigenvalues --   -0.13665  -0.09787  -0.03717  -0.01190   0.02699
  Beta virt. eigenvalues --    0.02700   0.04926   0.06201   0.07155   0.07819
  Beta virt. eigenvalues --    0.08319   0.09870   0.09988   0.10503   0.12256

 Mulliken charges and spin densities:
               1          2
     1  C   -0.184636   0.639304
     2  H    0.201127  -0.031168
     3  C   -0.381696   0.514186
     4  C    0.182603  -0.061161
     5  C    0.182603  -0.061161
 Sum of Mulliken charges =  -0.00000   1.00000

 Dipole moment (field-independent basis, Debye):
    X=             -0.0000    Y=             -0.0000    Z=             -4.1126  Tot=              4.1126
 Quadrupole moment (field-independent basis, Debye-Ang):
   XX=            -22.8699   YY=            -25.2280   ZZ=            -24.6454
   XY=             -0.0000   XZ=             -0.0000   YZ=              0.0000

  Exact polarizability:  26.981  -0.000  39.157  -0.000  -0.000  51.588
 Approx polarizability:  39.202   0.000  82.295  -0.000  -0.000  84.916

                      1                      2                      3
                     B1                     B2                     B1
 Frequencies --    253.0817               361.0132               462.1646
 Red. masses --      1.2321                 7.6103                 7.5128
 Frc consts  --      0.0465                 0.5844                 0.9455
 IR Inten    --     35.3925                52.5954                 8.0665

                      4                      5                      6
                     B2                     A1                     B2
 Frequencies --    749.5541               947.3817              1001.7215
 Red. masses --      9.8028                10.0524                 1.2148
 Frc consts  --      3.2449                 5.3158                 0.7182
 IR Inten    --     17.5370                 5.5470                 3.3989

                      7                      8                      9
                     A1                     A1                     A1
 Frequencies --   1229.7386              1395.2044              3331.1438
 Red. masses --     11.9867                 7.1961                 1.1090
 Frc consts  --     10.6801                 8.2532                 7.2508
 IR Inten    --      8.3842                 0.9631                35.6076

 - Thermochemistry -
 -------------------
 Temperature   298.150 Kelvin.  Pressure   1.00000 Atm.
 Atom     1 has atomic number  6 and mass  12.00000

 Molecular mass:    49.00783 amu.
 Principal axes and moments of inertia in atomic units:
                           1         2         3
     Eigenvalues --    48.91054 143.25589 192.16642
           X            0.00000   0.00000   1.00000
           Y            0.00000   1.00000  -0.00000
           Z            1.00000  -0.00000  -0.00000
 This molecule is an asymmetric top.
 Rotational symmetry number  2.
 Rotational temperatures (Kelvin)      1.77086     0.60461     0.45072
 Rotational constants (GHZ):          36.89882    12.59802     9.39155
 Zero-point vibrational energy      58204.3 (Joules/Mol)
                                   13.91117 (Kcal/Mol)
 Warning -- explicit consideration of   3 degrees of freedom as
           vibrations may cause significant error
 Vibrational temperatures:    364.13   519.42   664.95  1078.44  1363.07
          (Kelvin)           1441.25  1769.32  2007.39  4792.77

 Zero-point correction=                           0.022169 (Hartree/Particle)
 Thermal correction to Energy=                    0.026285
 Thermal correction to Enthalpy=                  0.027229
 Thermal correction to Gibbs Free Energy=        -0.002951
 Sum of electronic and zero-point Energies=           -152.741639
 Sum of electronic and thermal Energies=              -152.737523
 Sum of electronic and thermal Enthalpies=            -152.736579
 Sum of electronic and thermal Free Energies=         -152.766760

                     E (Thermal)             CV                S
                      KCal/Mol        Cal/Mol-Kelvin    Cal/Mol-Kelvin
 Total                   16.494             12.451             63.520
 Electronic               0.000              0.000              1.377
 Translational            0.889              2.981             37.592
 Rotational               0.889              2.981             20.448
 Vibrational             14.717              6.489              4.102
 Vibration     1          0.664              1.758              1.709
 Vibration     2          0.735              1.553              1.118
 Vibration     3          0.820              1.334              0.760

 Optimization completed.
    -- Stationary point found.
 Normal termination of Gaussian 09 at Sun Mar  4 21:13:51 2018.
