 Gaussian 09, Revision D.01,
 Gaussian 09:  ES64L-G09RevD.01 24-Apr-2013

 ---------------------------
 #p b3lyp/6-311++g(d,p) freq
 ---------------------------

 ---
 min
 ---
 Symbolic Z-matrix:
 Charge =  0 Multiplicity = 2

                         Standard orientation:
 ---------------------------------------------------------------------
 Center     Atomic      Atomic             Coordinates (Angstroms)
 Number     Number       Type             X           Y           Z
 ---------------------------------------------------------------------
      1          6           0       -0.000000    0.399911    0.000000
      2          6           0       -0.986043   -0.626866    0.000000
      3          6           0        0.397056    1.698456    0.000000
      4          6           0       -0.838913   -1.932837   -0.000000
      5          1           0       -2.047205   -0.345052    0.000000
      6          8           0        1.326826    0.389133   -0.000000
 ---------------------------------------------------------------------

 SCF Done:  E(UB3LYP) =  -227.978373986     A.U. after   19 cycles

 The electronic state is 2-A".
 Alpha  occ. eigenvalues --  -19.23411 -10.31101 -10.29851 -10.27707 -10.24382
 Alpha  occ. eigenvalues --   -1.16119  -0.86643  -0.74613  -0.66421  -0.56968
 Alpha  occ. eigenvalues --   -0.51046  -0.49825  -0.40700  -0.36958  -0.35324
 Alpha  occ. eigenvalues --   -0.32052  -0.26052
 Alpha virt. eigenvalues --   -0.15780  -0.10047  -0.01765  -0.01044   0.02120
 Alpha virt. eigenvalues --    0.03412   0.04579   0.04601   0.06826   0.07284
 Alpha virt. eigenvalues --    0.08565   0.08923   0.10363   0.10692   0.11040

  Beta  occ. eigenvalues --  -19.22117 -10.30789 -10.29636 -10.27211 -10.24490
  Beta  occ. eigenvalues --   -1.13995  -0.86387  -0.72352  -0.65655  -0.56570
  Beta  occ. eigenvalues --   -0.48979  -0.46103  -0.39594  -0.34955  -0.34796
  Beta  occ. eigenvalues --   -0.31153
  Beta virt. eigenvalues --   -0.15495  -0.15168  -0.07151  -0.01468  -0.00672
  Beta virt. eigenvalues --    0.03316   0.03554   0.04722   0.04863   0.06917
  Beta virt. eigenvalues --    0.07429   0.08595   0.09217   0.10384   0.11129

 Mulliken charges and spin densities:
               1          2
     1  C    0.045059   0.242245
     2  C   -0.009834  -0.037471
     3  C   -0.166253   0.262037
     4  C   -0.039338   0.135878
     5  H    0.233566   0.002574
     6  O   -0.063199   0.394738
 Sum of Mulliken charges =  -0.00000   1.00000

 Dipole moment (field-independent basis, Debye):
    X=             -2.5757    Y=             -0.6297    Z=              0.0000  Tot=              2.6516
 Quadrupole moment (field-independent basis, Debye-Ang):
   XX=            -26.2744   YY=            -38.6162   ZZ=            -28.9689
   XY=             -2.1509   XZ=              0.0000   YZ=             -0.0000

  Exact polarizability:  47.347  12.732  75.316   0.000  -0.000  31.133
 Approx polarizability:  77.657  14.082 125.630  -0.000   0.000  43.305

                      1                      2                      3
                     A"                     A'                     A'
 Frequencies --    150.0535               162.2662               258.9826
 Red. masses --      5.4906                11.3133                10.8242
 Frc consts  --      0.0728                 0.1755                 0.4277
 IR Inten    --     17.9134                15.3590                10.1091

                      4                      5                      6
                     A"                     A'                     A"
 Frequencies --    405.8074               431.7238               675.9891
 Red. masses --      3.1694                 6.1626                 1.8479
 Frc consts  --      0.3075                 0.6767                 0.4975
 IR Inten    --      0.0105                 1.6546                30.8678

                      7                      8                      9
                     A'                     A'                     A'
 Frequencies --    852.5916               970.4072              1241.2653
 Red. masses --      9.8098                 1.2978                 6.7792
 Frc consts  --      4.2014                 0.7201                 6.1540
 IR Inten    --      7.8277                 5.2035                15.1447

                     10                     11                     12
                     A'                     A'                     A'
 Frequencies --   1623.4405              1730.3696              3057.1159
 Red. masses --      9.3506                11.1673                 1.0817
 Frc consts  --     14.5199                19.7005                 5.9561
 IR Inten    --     74.8363                27.9809                40.3415

 - Thermochemistry -
 -------------------
 Temperature   298.150 Kelvin.  Pressure   1.00000 Atm.
 Atom     1 has atomic number  6 and mass  12.00000

 Molecular mass:    65.00274 amu.
 Principal axes and moments of inertia in atomic units:
                           1         2         3
     Eigenvalues --    86.83662 423.63303 510.46965
           X            0.56406   0.82573   0.00000
           Y            0.82573  -0.56406   0.00000
           Z            0.00000   0.00000   1.00000
 This molecule is an asymmetric top.
 Rotational symmetry number  1.
 Rotational temperatures (Kelvin)      0.99743     0.20445     0.16967
 Rotational constants (GHZ):          20.78318     4.26015     3.53545
 Zero-point vibrational energy      69144.2 (Joules/Mol)
                                   16.52587 (Kcal/Mol)
 Warning -- explicit consideration of   5 degrees of freedom as
           vibrations may cause significant error
 Vibrational temperatures:    215.89   233.46   372.62   583.87   621.15
          (Kelvin)            972.60  1226.69  1396.20  1785.90  2335.77
                             2489.61  4398.50

 Zero-point correction=                           0.026336 (Hartree/Particle)
 Thermal correction to Energy=                    0.031739
 Thermal correction to Enthalpy=                  0.032683
 Thermal correction to Gibbs Free Energy=        -0.002272
 Sum of electronic and zero-point Energies=           -227.952038
 Sum of electronic and thermal Energies=              -227.946635
 Sum of electronic and thermal Enthalpies=            -227.945691
 Sum of electronic and thermal Free Energies=         -227.980646

                     E (Thermal)             CV                S
                      KCal/Mol        Cal/Mol-Kelvin    Cal/Mol-Kelvin
 Total                   19.916             16.475             73.569
 Electronic               0.000              0.000              1.377
 Translational            0.889              2.981             38.434
 Rotational               0.889              2.981             24.444
 Vibrational             18.139             10.513              9.314
 Vibration     1          0.618              1.903              2.672
 Vibration     2          0.622              1.889              2.523
 Vibration     3          0.668              1.748              1.669
 Vibration     4          0.771              1.458              0.942
 Vibration     5          0.793              1.401              0.853

 Normal termination of Gaussian 09 at Sun Mar  4 21:08:58 2018.
