 Gaussian 09, Revision D.01,
 Gaussian 09:  ES64L-G09RevD.01 24-Apr-2013

 ---------------------------
 #p b3lyp/6-311++g(d,p) freq
 ---------------------------

 ---
 min
 ---
 Symbolic Z-matrix:
 Charge =  1 Multiplicity = 1

                         Standard orientation:
 ---------------------------------------------------------------------
 Center     Atomic      Atomic             Coordinates (Angstroms)
 Number     Number       Type             X           Y           Z
 ---------------------------------------------------------------------
      1          6           0       -0.986787    1.455311    0.000000
      2          6           0        1.196299   -0.325743    0.000000
      3          6           0        1.138843   -1.669162   -0.000000
      4          6           0        0.000000    0.373968    0.000000
      5          1           0        2.160852    0.196708    0.000000
      6          8           0       -1.281373    0.099631   -0.000000
 ---------------------------------------------------------------------

 SCF Done:  E(RB3LYP) =  -227.646172774     A.U. after   13 cycles

 The electronic state is 1-A'.
 Alpha  occ. eigenvalues --  -19.54498 -10.60571 -10.57609 -10.56710 -10.48253
 Alpha  occ. eigenvalues --   -1.50200  -1.12001  -0.96708  -0.92828  -0.85128
 Alpha  occ. eigenvalues --   -0.78686  -0.76387  -0.67415  -0.60328  -0.58491
 Alpha  occ. eigenvalues --   -0.55503
 Alpha virt. eigenvalues --   -0.40872  -0.39143  -0.34007  -0.21509  -0.17867
 Alpha virt. eigenvalues --   -0.17401  -0.14766  -0.12062  -0.11311  -0.09566
 Alpha virt. eigenvalues --   -0.07203  -0.06440  -0.06218  -0.04386  -0.04081

 Mulliken charges:
               1
     1  C    0.103774
     2  C    0.023979
     3  C    0.231152
     4  C    0.091496
     5  H    0.314901
     6  O    0.234697
 Sum of Mulliken charges =   1.00000

 Dipole moment (field-independent basis, Debye):
    X=              2.6050    Y=              0.2001    Z=              0.0000  Tot=              2.6127
 Quadrupole moment (field-independent basis, Debye-Ang):
   XX=            -16.8153   YY=            -25.4921   ZZ=            -24.6997
   XY=             -1.6511   XZ=              0.0000   YZ=             -0.0000

  Exact polarizability:  47.381 -14.295  48.821  -0.000   0.000  24.819
 Approx polarizability:  83.022 -24.511  85.779   0.000   0.000  37.951

                      1                      2                      3
                     A'                     A"                     A'
 Frequencies --    148.9421               159.5022               372.3290
 Red. masses --     11.2314                 9.8398                 6.8145
 Frc consts  --      0.1468                 0.1475                 0.5566
 IR Inten    --      5.8533                 5.2798                 3.6763

                      4                      5                      6
                     A"                     A'                     A"
 Frequencies --    478.9443               718.3617               745.5893
 Red. masses --      4.9230                11.1692                 1.4056
 Frc consts  --      0.6654                 3.3959                 0.4604
 IR Inten    --      0.5379                26.4538                48.2000

                      7                      8                      9
                     A'                     A'                     A'
 Frequencies --    988.3887              1034.3523              1183.9035
 Red. masses --      3.8807                 1.5959                 7.4886
 Frc consts  --      2.2336                 1.0060                 6.1842
 IR Inten    --    201.9518                33.8641                86.0462

                     10                     11                     12
                     A'                     A'                     A'
 Frequencies --   1550.8632              1707.1417              3061.5391
 Red. masses --      7.5214                12.0035                 1.0866
 Frc consts  --     10.6584                20.6109                 6.0008
 IR Inten    --    189.8867               230.9081               130.3908

 - Thermochemistry -
 -------------------
 Temperature   298.150 Kelvin.  Pressure   1.00000 Atm.
 Atom     1 has atomic number  6 and mass  12.00000

 Molecular mass:    65.00274 amu.
 Principal axes and moments of inertia in atomic units:
                           1         2         3
     Eigenvalues --    77.99909 412.36899 490.36808
           X            0.75574   0.65487   0.00000
           Y           -0.65487   0.75574   0.00000
           Z           -0.00000  -0.00000   1.00000
 This molecule is an asymmetric top.
 Rotational symmetry number  1.
 Rotational temperatures (Kelvin)      1.11045     0.21004     0.17663
 Rotational constants (GHZ):          23.13798     4.37652     3.68038
 Zero-point vibrational energy      72672.3 (Joules/Mol)
                                   17.36909 (Kcal/Mol)
 Warning -- explicit consideration of   4 degrees of freedom as
           vibrations may cause significant error
 Vibrational temperatures:    214.29   229.49   535.70   689.09  1033.56
          (Kelvin)           1072.74  1422.07  1488.20  1703.37  2231.34
                             2456.19  4404.87

 Zero-point correction=                           0.027679 (Hartree/Particle)
 Thermal correction to Energy=                    0.032657
 Thermal correction to Enthalpy=                  0.033602
 Thermal correction to Gibbs Free Energy=         0.000101
 Sum of electronic and zero-point Energies=           -227.618493
 Sum of electronic and thermal Energies=              -227.613515
 Sum of electronic and thermal Enthalpies=            -227.612571
 Sum of electronic and thermal Free Energies=         -227.646072

                     E (Thermal)             CV                S
                      KCal/Mol        Cal/Mol-Kelvin    Cal/Mol-Kelvin
 Total                   20.493             15.167             70.509
 Electronic               0.000              0.000              0.000
 Translational            0.889              2.981             38.434
 Rotational               0.889              2.981             24.271
 Vibrational             18.715              9.206              7.804
 Vibration     1          0.618              1.904              2.686
 Vibration     2          0.621              1.892              2.556
 Vibration     3          0.744              1.529              1.070
 Vibration     4          0.835              1.297              0.713

 Optimization completed.
    -- Stationary point found.
 Normal termination of Gaussian 09 at Thu Jan 24 15:45:38 2019.
