 Gaussian 09, Revision D.01,
 Gaussian 09:  ES64L-G09RevD.01 24-Apr-2013

 ---------------------------
 #p b3lyp/6-311++g(d,p) freq
 ---------------------------

 ---
 min
 ---
 Symbolic Z-matrix:
 Charge =  1 Multiplicity = 1

                         Standard orientation:
 ---------------------------------------------------------------------
 Center     Atomic      Atomic             Coordinates (Angstroms)
 Number     Number       Type             X           Y           Z
 ---------------------------------------------------------------------
      1          6           0       -0.100238   -0.999582   -0.000000
      2          6           0        0.737980    1.485009    0.000000
      3          6           0       -0.674925    1.661116    0.000000
      4          6           0       -0.000000    0.366941    0.000000
      5          1           0        1.750830    1.872106    0.000000
      6          8           0       -0.190966   -2.119126   -0.000000
 ---------------------------------------------------------------------

 SCF Done:  E(RB3LYP) =  -227.795190462     A.U. after   13 cycles

 The electronic state is 1-A'.
 Alpha  occ. eigenvalues --  -19.52694 -10.62877 -10.52978 -10.51661 -10.48924
 Alpha  occ. eigenvalues --   -1.45996  -1.20780  -1.02978  -0.84876  -0.82312
 Alpha  occ. eigenvalues --   -0.77469  -0.77369  -0.72528  -0.65292  -0.61801
 Alpha  occ. eigenvalues --   -0.50493
 Alpha virt. eigenvalues --   -0.39963  -0.32749  -0.27330  -0.19174  -0.19044
 Alpha virt. eigenvalues --   -0.14636  -0.13736  -0.11297  -0.10873  -0.07974
 Alpha virt. eigenvalues --   -0.06530  -0.06046  -0.05231  -0.04793  -0.03317

 Mulliken charges:
               1
     1  C   -0.366472
     2  C    0.261766
     3  C    0.041527
     4  C    0.651527
     5  H    0.297827
     6  O    0.113825
 Sum of Mulliken charges =   1.00000

 Dipole moment (field-independent basis, Debye):
    X=              2.8014    Y=              0.1349    Z=              0.0000  Tot=              2.8046
 Quadrupole moment (field-independent basis, Debye-Ang):
   XX=            -22.3689   YY=            -17.1408   ZZ=            -23.6822
   XY=              6.6329   XZ=              0.0000   YZ=              0.0000

  Exact polarizability:  30.652   1.435  68.315   0.000   0.000  20.939
 Approx polarizability:  46.766   2.171 148.430   0.000   0.000  31.772

                      1                      2                      3
                     A'                     A"                     A'
 Frequencies --    188.2147               225.8050               562.3822
 Red. masses --      6.7954                 8.9371                10.5023
 Frc consts  --      0.1418                 0.2685                 1.9570
 IR Inten    --      8.6991                 5.2107                 5.3160

                      4                      5                      6
                     A"                     A'                     A"
 Frequencies --    614.3348               681.5429               912.3594
 Red. masses --      6.9061                 6.2826                 1.4383
 Frc consts  --      1.5357                 1.7194                 0.7054
 IR Inten    --     19.1144                 5.0171                10.0601

                      7                      8                      9
                     A'                     A'                     A'
 Frequencies --    966.0233              1052.6545              1156.7770
 Red. masses --      1.3230                 9.0297                 8.8777
 Frc consts  --      0.7274                 5.8951                 6.9992
 IR Inten    --      1.4574                59.5054                34.4031

                     10                     11                     12
                     A'                     A'                     A'
 Frequencies --   1684.8487              2328.7591              3230.3112
 Red. masses --      7.9130                12.9647                 1.1172
 Frc consts  --     13.2347                41.4248                 6.8688
 IR Inten    --    203.0011               726.8579                75.0380

 - Thermochemistry -
 -------------------
 Temperature   298.150 Kelvin.  Pressure   1.00000 Atm.
 Atom     1 has atomic number  6 and mass  12.00000

 Molecular mass:    65.00274 amu.
 Principal axes and moments of inertia in atomic units:
                           1         2         3
     Eigenvalues --    53.22035 533.28046 586.50081
           X            0.07930   0.99685  -0.00000
           Y            0.99685  -0.07930  -0.00000
           Z            0.00000   0.00000   1.00000
 This molecule is an asymmetric top.
 Rotational symmetry number  1.
 Rotational temperatures (Kelvin)      1.62746     0.16242     0.14768
 Rotational constants (GHZ):          33.91073     3.38423     3.07713
 Zero-point vibrational energy      81370.1 (Joules/Mol)
                                   19.44791 (Kcal/Mol)
 Warning -- explicit consideration of   4 degrees of freedom as
           vibrations may cause significant error
 Vibrational temperatures:    270.80   324.88   809.14   883.89   980.59
          (Kelvin)           1312.68  1389.89  1514.53  1664.34  2424.12
                             3350.56  4647.69

 Zero-point correction=                           0.030992 (Hartree/Particle)
 Thermal correction to Energy=                    0.035526
 Thermal correction to Enthalpy=                  0.036470
 Thermal correction to Gibbs Free Energy=         0.003895
 Sum of electronic and zero-point Energies=           -227.764198
 Sum of electronic and thermal Energies=              -227.759665
 Sum of electronic and thermal Enthalpies=            -227.758720
 Sum of electronic and thermal Free Energies=         -227.791295

                     E (Thermal)             CV                S
                      KCal/Mol        Cal/Mol-Kelvin    Cal/Mol-Kelvin
 Total                   22.293             14.098             68.560
 Electronic               0.000              0.000              0.000
 Translational            0.889              2.981             38.434
 Rotational               0.889              2.981             24.324
 Vibrational             20.515              8.136              5.802
 Vibration     1          0.633              1.856              2.245
 Vibration     2          0.650              1.802              1.912
 Vibration     3          0.918              1.113              0.519
 Vibration     4          0.974              1.002              0.426

 Optimization completed.
    -- Stationary point found.
 Normal termination of Gaussian 09 at Thu Jan 24 15:45:37 2019.
