 Gaussian 09, Revision D.01,
 Gaussian 09:  ES64L-G09RevD.01 24-Apr-2013

 ---------------------------
 #p b3lyp/6-311++g(d,p) freq
 ---------------------------

 ---
 min
 ---
 Symbolic Z-matrix:
 Charge =  1 Multiplicity = 1

                         Standard orientation:
 ---------------------------------------------------------------------
 Center     Atomic      Atomic             Coordinates (Angstroms)
 Number     Number       Type             X           Y           Z
 ---------------------------------------------------------------------
      1          6           0       -0.698661    0.124467   -0.031701
      2          6           0        1.355933    0.063926    0.223632
      3          6           0        0.447551    0.998531   -0.192972
      4          6           0       -2.021611   -0.031696    0.162922
      5          1           0        2.383038   -0.182053    0.461856
      6          8           0        0.389712   -0.843665   -0.179143
 ---------------------------------------------------------------------

 SCF Done:  E(RB3LYP) =  -227.575334711     A.U. after   16 cycles

 The electronic state is 1-A.
 Alpha  occ. eigenvalues --  -19.54204 -10.58122 -10.57442 -10.53583 -10.52860
 Alpha  occ. eigenvalues --   -1.45503  -1.07285  -1.05388  -0.93868  -0.80535
 Alpha  occ. eigenvalues --   -0.77571  -0.76773  -0.72619  -0.57539  -0.55647
 Alpha  occ. eigenvalues --   -0.53538
 Alpha virt. eigenvalues --   -0.43946  -0.40261  -0.33329  -0.21153  -0.17472
 Alpha virt. eigenvalues --   -0.15870  -0.14854  -0.11627  -0.10913  -0.09012
 Alpha virt. eigenvalues --   -0.08017  -0.06139  -0.05608  -0.05369  -0.04607

 Mulliken charges:
               1
     1  C   -0.216168
     2  C    0.062553
     3  C    0.523039
     4  C    0.137844
     5  H    0.343593
     6  O    0.149139
 Sum of Mulliken charges =   1.00000

 Dipole moment (field-independent basis, Debye):
    X=              3.2752    Y=              0.8975    Z=              1.1145  Tot=              3.5741
 Quadrupole moment (field-independent basis, Debye-Ang):
   XX=            -15.9784   YY=            -22.5340   ZZ=            -26.4023
   XY=             -0.4804   XZ=              2.2963   YZ=              0.5960

  Exact polarizability:  61.733   0.904  37.938   1.460  -2.576  25.603
 Approx polarizability: 115.672  -2.748  88.933   6.075  -6.953  39.630

                      1                      2                      3
                      A                      A                      A
 Frequencies --    209.3376               235.8027               276.4244
 Red. masses --      5.5087                 8.3844                11.5933
 Frc consts  --      0.1422                 0.2747                 0.5219
 IR Inten    --     12.7091                 2.7732                43.5288

                      4                      5                      6
                      A                      A                      A
 Frequencies --    581.5810               659.5615               731.7732
 Red. masses --      4.9229                11.6124                 1.7370
 Frc consts  --      0.9810                 2.9763                 0.5480
 IR Inten    --     24.8080                17.1296                59.7337

                      7                      8                      9
                      A                      A                      A
 Frequencies --    867.5376              1033.1920              1163.5386
 Red. masses --      5.0384                 3.6900                 1.5783
 Frc consts  --      2.2342                 2.3208                 1.2589
 IR Inten    --     27.0980                36.5180                 1.0264

                     10                     11                     12
                      A                      A                      A
 Frequencies --   1389.5260              1680.3287              3254.2897
 Red. masses --      5.2544                11.7159                 1.1123
 Frc consts  --      5.9773                19.4902                 6.9406
 IR Inten    --     19.6803               186.6136               150.4269

 - Thermochemistry -
 -------------------
 Temperature   298.150 Kelvin.  Pressure   1.00000 Atm.
 Atom     1 has atomic number  6 and mass  12.00000

 Molecular mass:    65.00274 amu.
 Principal axes and moments of inertia in atomic units:
                           1         2         3
     Eigenvalues --    91.82853 319.74755 396.66411
           X            0.99989  -0.00680   0.01301
           Y            0.00686   0.99997  -0.00416
           Z           -0.01298   0.00425   0.99991
 This molecule is an asymmetric top.
 Rotational symmetry number  1.
 Rotational temperatures (Kelvin)      0.94321     0.27088     0.21836
 Rotational constants (GHZ):          19.65338     5.64427     4.54980
 Zero-point vibrational energy      72271.7 (Joules/Mol)
                                   17.27336 (Kcal/Mol)
 Warning -- explicit consideration of   4 degrees of freedom as
           vibrations may cause significant error
 Vibrational temperatures:    301.19   339.27   397.71   836.76   948.96
          (Kelvin)           1052.86  1248.19  1486.53  1674.07  1999.22
                             2417.62  4682.19

 Zero-point correction=                           0.027527 (Hartree/Particle)
 Thermal correction to Energy=                    0.032387
 Thermal correction to Enthalpy=                  0.033331
 Thermal correction to Gibbs Free Energy=         0.000420
 Sum of electronic and zero-point Energies=           -227.547808
 Sum of electronic and thermal Energies=              -227.542948
 Sum of electronic and thermal Enthalpies=            -227.542004
 Sum of electronic and thermal Free Energies=         -227.574915

                     E (Thermal)             CV                S
                      KCal/Mol        Cal/Mol-Kelvin    Cal/Mol-Kelvin
 Total                   20.323             15.308             69.267
 Electronic               0.000              0.000              0.000
 Translational            0.889              2.981             38.434
 Rotational               0.889              2.981             23.969
 Vibrational             18.545              9.346              6.863
 Vibration     1          0.642              1.826              2.049
 Vibration     2          0.655              1.786              1.834
 Vibration     3          0.678              1.717              1.556
 Vibration     4          0.938              1.071              0.482

 Normal termination of Gaussian 09 at Thu Jan 24 15:45:57 2019.
