 Gaussian 09, Revision D.01,
 Gaussian 09:  ES64L-G09RevD.01 24-Apr-2013

 ---------------------------
 #p b3lyp/6-311++g(d,p) freq
 ---------------------------

 ---
 min
 ---
 Symbolic Z-matrix:
 Charge =  1 Multiplicity = 1

                         Standard orientation:
 ---------------------------------------------------------------------
 Center     Atomic      Atomic             Coordinates (Angstroms)
 Number     Number       Type             X           Y           Z
 ---------------------------------------------------------------------
      1          6           0        2.550456    0.722754    0.000000
      2          6           0       -1.424744   -0.046522   -0.000000
      3          6           0       -0.000000    0.389426    0.000000
      4          6           0        1.238522    0.477133    0.000000
      5          1           0       -2.239451    0.685381   -0.000000
      6          8           0       -1.493244   -1.242766   -0.000000
 ---------------------------------------------------------------------

 SCF Done:  E(RB3LYP) =  -227.718690867     A.U. after   14 cycles

 The electronic state is 1-A'.
 Alpha  occ. eigenvalues --  -19.42726 -10.58106 -10.57441 -10.56118 -10.48668
 Alpha  occ. eigenvalues --   -1.35350  -1.11621  -1.01296  -0.93066  -0.80257
 Alpha  occ. eigenvalues --   -0.72648  -0.69541  -0.63557  -0.62537  -0.59082
 Alpha  occ. eigenvalues --   -0.55384
 Alpha virt. eigenvalues --   -0.43754  -0.42176  -0.29998  -0.19880  -0.16765
 Alpha virt. eigenvalues --   -0.15213  -0.14139  -0.11362  -0.10833  -0.08800
 Alpha virt. eigenvalues --   -0.08277  -0.07004  -0.06180  -0.04550  -0.03102

 Mulliken charges:
               1
     1  C   -0.122276
     2  C   -0.468586
     3  C    0.693111
     4  C    0.694511
     5  H    0.228714
     6  O   -0.025475
 Sum of Mulliken charges =   1.00000

 Dipole moment (field-independent basis, Debye):
    X=              0.3316    Y=              2.9093    Z=              0.0000  Tot=              2.9281
 Quadrupole moment (field-independent basis, Debye-Ang):
   XX=            -13.0517   YY=            -25.0188   ZZ=            -24.1937
   XY=             -0.8290   XZ=              0.0000   YZ=             -0.0000

  Exact polarizability:  78.004  15.796  36.524  -0.000   0.000  22.030
 Approx polarizability: 189.450  49.041  73.241   0.000   0.000  31.484

                      1                      2                      3
                     A'                     A"                     A'
 Frequencies --    109.1488               124.8252               236.0964
 Red. masses --     10.3635                 6.6718                11.5260
 Frc consts  --      0.0727                 0.0612                 0.3785
 IR Inten    --     10.6903                 0.0007                51.7648

                      4                      5                      6
                     A"                     A'                     A'
 Frequencies --    344.2171               526.8924               807.2304
 Red. masses --      4.5254                10.3503                 6.3422
 Frc consts  --      0.3159                 1.6930                 2.4349
 IR Inten    --      2.0935                 2.8957               104.5292

                      7                      8                      9
                     A"                     A'                     A'
 Frequencies --    980.6095              1298.9956              1355.3890
 Red. masses --      1.6543                 5.1217                 1.3206
 Frc consts  --      0.9373                 5.0919                 1.4294
 IR Inten    --      6.1647               230.7134                38.6125

                     10                     11                     12
                     A'                     A'                     A'
 Frequencies --   1746.4499              2230.1781              3099.8900
 Red. masses --      9.3475                11.7445                 1.1033
 Frc consts  --     16.7981                34.4163                 6.2467
 IR Inten    --     67.9637               865.4717                 3.0136

 - Thermochemistry -
 -------------------
 Temperature   298.150 Kelvin.  Pressure   1.00000 Atm.
 Atom     1 has atomic number  6 and mass  12.00000

 Molecular mass:    65.00274 amu.
 Principal axes and moments of inertia in atomic units:
                           1         2         3
     Eigenvalues --    47.13049 658.09447 705.22496
           X            0.93093  -0.36520   0.00000
           Y            0.36520   0.93093   0.00000
           Z           -0.00000   0.00000   1.00000
 This molecule is an asymmetric top.
 Rotational symmetry number  1.
 Rotational temperatures (Kelvin)      1.83774     0.13161     0.12282
 Rotational constants (GHZ):          38.29243     2.74237     2.55910
 Zero-point vibrational energy      76919.4 (Joules/Mol)
                                   18.38418 (Kcal/Mol)
 Warning -- explicit consideration of   5 degrees of freedom as
           vibrations may cause significant error
 Vibrational temperatures:    157.04   179.60   339.69   495.25   758.08
          (Kelvin)           1161.42  1410.88  1868.96  1950.10  2512.75
                             3208.72  4460.04

 Zero-point correction=                           0.029297 (Hartree/Particle)
 Thermal correction to Energy=                    0.034752
 Thermal correction to Enthalpy=                  0.035696
 Thermal correction to Gibbs Free Energy=         0.000863
 Sum of electronic and zero-point Energies=           -227.689394
 Sum of electronic and thermal Energies=              -227.683939
 Sum of electronic and thermal Enthalpies=            -227.682994
 Sum of electronic and thermal Free Energies=         -227.717828

                     E (Thermal)             CV                S
                      KCal/Mol        Cal/Mol-Kelvin    Cal/Mol-Kelvin
 Total                   21.807             15.740             73.313
 Electronic               0.000              0.000              0.000
 Translational            0.889              2.981             38.434
 Rotational               0.889              2.981             24.596
 Vibrational             20.030              9.778             10.283
 Vibration     1          0.606              1.942              3.284
 Vibration     2          0.610              1.928              3.024
 Vibration     3          0.655              1.786              1.832
 Vibration     4          0.723              1.587              1.193
 Vibration     5          0.882              1.190              0.594

 Optimization completed.
    -- Stationary point found.
 Normal termination of Gaussian 09 at Thu Jan 24 15:45:36 2019.
