 Gaussian 09, Revision D.01,
 Gaussian 09:  ES64L-G09RevD.01 24-Apr-2013

 ---------------------------
 #p b3lyp/6-311++g(d,p) freq
 ---------------------------

 ---
 min
 ---
 Symbolic Z-matrix:
 Charge =  1 Multiplicity = 1

                         Standard orientation:
 ---------------------------------------------------------------------
 Center     Atomic      Atomic             Coordinates (Angstroms)
 Number     Number       Type             X           Y           Z
 ---------------------------------------------------------------------
      1          6           0       -0.443463   -1.028638    0.225205
      2          6           0       -0.408496    0.836116    0.067124
      3          6           0        2.038467   -0.027073   -0.141696
      4          6           0        0.722141    0.013015    0.075124
      5          1           0       -0.653837    1.810625    0.492873
      6          8           0       -1.349757   -0.071393   -0.230927
 ---------------------------------------------------------------------

 SCF Done:  E(RB3LYP) =  -227.634180693     A.U. after   14 cycles

 The electronic state is 1-A.
 Alpha  occ. eigenvalues --  -19.52027 -10.61941 -10.60836 -10.55132 -10.48869
 Alpha  occ. eigenvalues --   -1.47254  -1.11247  -0.99253  -0.97053  -0.82832
 Alpha  occ. eigenvalues --   -0.78846  -0.74084  -0.71672  -0.59157  -0.56980
 Alpha  occ. eigenvalues --   -0.55348
 Alpha virt. eigenvalues --   -0.40886  -0.38345  -0.37734  -0.22419  -0.17514
 Alpha virt. eigenvalues --   -0.16477  -0.13679  -0.11277  -0.09890  -0.08862
 Alpha virt. eigenvalues --   -0.07274  -0.07133  -0.06306  -0.05798  -0.04637

 Mulliken charges:
               1
     1  C    0.159125
     2  C   -0.158336
     3  C    0.227545
     4  C    0.290657
     5  H    0.290383
     6  O    0.190626
 Sum of Mulliken charges =   1.00000

 Dipole moment (field-independent basis, Debye):
    X=             -0.2496    Y=              2.4120    Z=              0.5159  Tot=              2.4791
 Quadrupole moment (field-independent basis, Debye-Ang):
   XX=            -23.9649   YY=            -19.6901   ZZ=            -25.0168
   XY=             -1.7510   XZ=             -0.0034   YZ=              1.5103

  Exact polarizability:  59.444   1.287  41.382  -1.914  -1.006  25.538
 Approx polarizability: 144.426   7.106  79.313  -3.532  -3.729  39.999

                      1                      2                      3
                      A                      A                      A
 Frequencies --    192.8168               226.3821               418.1632
 Red. masses --     11.0544                 8.3663                 7.7784
 Frc consts  --      0.2421                 0.2526                 0.8014
 IR Inten    --      6.6638                10.8735                33.3308

                      4                      5                      6
                      A                      A                      A
 Frequencies --    471.0341               779.1056               783.2199
 Red. masses --      3.1206                 6.7111                11.0748
 Frc consts  --      0.4079                 2.4001                 4.0027
 IR Inten    --     31.0221                 9.4057                20.5155

                      7                      8                      9
                      A                      A                      A
 Frequencies --   1008.4833              1042.4604              1194.7270
 Red. masses --      2.0884                 2.5971                 2.6872
 Frc consts  --      1.2514                 1.6629                 2.2599
 IR Inten    --     44.8013                 8.8114               117.4186

                     10                     11                     12
                      A                      A                      A
 Frequencies --   1351.4934              1755.8930              3154.3113
 Red. masses --      2.8298                10.8921                 1.1032
 Frc consts  --      3.0453                19.7860                 6.4673
 IR Inten    --     33.8669               588.1775                56.9095

 - Thermochemistry -
 -------------------
 Temperature   298.150 Kelvin.  Pressure   1.00000 Atm.
 Atom     1 has atomic number  6 and mass  12.00000

 Molecular mass:    65.00274 amu.
 Principal axes and moments of inertia in atomic units:
                           1         2         3
     Eigenvalues --    94.54644 328.89290 408.95634
           X            0.99983  -0.01796  -0.00421
           Y            0.01811   0.99902   0.04032
           Z            0.00349  -0.04038   0.99918
 This molecule is an asymmetric top.
 Rotational symmetry number  1.
 Rotational temperatures (Kelvin)      0.91610     0.26335     0.21179
 Rotational constants (GHZ):          19.08841     5.48732     4.41304
 Zero-point vibrational energy      74037.4 (Joules/Mol)
                                   17.69537 (Kcal/Mol)
 Warning -- explicit consideration of   4 degrees of freedom as
           vibrations may cause significant error
 Vibrational temperatures:    277.42   325.71   601.64   677.71  1120.96
          (Kelvin)           1126.88  1450.98  1499.87  1718.94  1944.50
                             2526.34  4538.34

 Zero-point correction=                           0.028199 (Hartree/Particle)
 Thermal correction to Energy=                    0.032926
 Thermal correction to Enthalpy=                  0.033870
 Thermal correction to Gibbs Free Energy=         0.001126
 Sum of electronic and zero-point Energies=           -227.605981
 Sum of electronic and thermal Energies=              -227.601255
 Sum of electronic and thermal Enthalpies=            -227.600311
 Sum of electronic and thermal Free Energies=         -227.633055

                     E (Thermal)             CV                S
                      KCal/Mol        Cal/Mol-Kelvin    Cal/Mol-Kelvin
 Total                   20.661             14.786             68.916
 Electronic               0.000              0.000              0.000
 Translational            0.889              2.981             38.434
 Rotational               0.889              2.981             24.057
 Vibrational             18.884              8.824              6.425
 Vibration     1          0.635              1.850              2.201
 Vibration     2          0.650              1.801              1.907
 Vibration     3          0.781              1.431              0.898
 Vibration     4          0.828              1.314              0.735

 Optimization completed.
    -- Stationary point found.
 Normal termination of Gaussian 09 at Thu Jan 24 15:45:56 2019.
