 Gaussian 09, Revision D.01,
 Gaussian 09:  ES64L-G09RevD.01 24-Apr-2013

 ---------------------------
 #p b3lyp/6-311++g(d,p) freq
 ---------------------------

 ---
 min
 ---
 Symbolic Z-matrix:
 Charge =  1 Multiplicity = 3

                         Standard orientation:
 ---------------------------------------------------------------------
 Center     Atomic      Atomic             Coordinates (Angstroms)
 Number     Number       Type             X           Y           Z
 ---------------------------------------------------------------------
      1          6           0        0.059394    0.765636    0.000000
      2          1           0       -0.831515   -0.918049    0.000000
      3          8           0        0.059394   -0.459471    0.000000
 ---------------------------------------------------------------------

 SCF Done:  E(UB3LYP) =  -113.369841801     A.U. after   12 cycles

 The electronic state is 3-A'.
 Alpha  occ. eigenvalues --  -19.59584 -10.71079  -1.51010  -1.04919  -0.86667
 Alpha  occ. eigenvalues --   -0.80692  -0.80297  -0.57144
 Alpha virt. eigenvalues --   -0.42886  -0.25246  -0.14213  -0.12428  -0.11682
 Alpha virt. eigenvalues --   -0.09092  -0.06925  -0.01443  -0.00628   0.02293
 Alpha virt. eigenvalues --    0.03798   0.09231   0.20474   0.24872   0.26627

  Beta  occ. eigenvalues --  -19.59224 -10.67076  -1.49361  -1.01484  -0.81173
  Beta  occ. eigenvalues --   -0.79763
  Beta virt. eigenvalues --   -0.56501  -0.36727  -0.35776  -0.23864  -0.12704
  Beta virt. eigenvalues --   -0.11472  -0.11345  -0.08024  -0.05679  -0.00947
  Beta virt. eigenvalues --   -0.00611   0.02950   0.07708   0.10018   0.22246

 Mulliken charges and spin densities:
               1          2
     1  C    0.480501   1.955288
     2  H    0.388132   0.068490
     3  O    0.131366  -0.023778
 Sum of Mulliken charges =   1.00000   2.00000

 Dipole moment (field-independent basis, Debye):
    X=             -1.6468    Y=              0.8165    Z=              0.0000  Tot=              1.8381
 Quadrupole moment (field-independent basis, Debye-Ang):
   XX=             -8.0886   YY=             -5.0483   ZZ=             -8.8996
   XY=              2.3922   XZ=              0.0000   YZ=              0.0000

  Exact polarizability:   8.074   0.865  14.641  -0.000   0.000   7.189
 Approx polarizability:   9.467   0.854  23.363  -0.000  -0.000   8.838

                      1                      2                      3
                     A'                     A'                     A'
 Frequencies --   1174.1016              1659.9518              3277.7125
 Red. masses --      1.2207                 9.1223                 1.0654
 Frc consts  --      0.9915                14.8096                 6.7436
 IR Inten    --    164.6314                25.9111               266.8837

 - Thermochemistry -
 -------------------
 Temperature   298.150 Kelvin.  Pressure   1.00000 Atm.
 Atom     1 has atomic number  6 and mass  12.00000

 Molecular mass:    29.00274 amu.
 Principal axes and moments of inertia in atomic units:
                           1         2         3
     Eigenvalues --     2.51080  40.35590  42.86670
           X            0.08071   0.99674   0.00000
           Y            0.99674  -0.08071   0.00000
           Z            0.00000  -0.00000   1.00000
 This molecule is an asymmetric top.
 Rotational symmetry number  1.
 Rotational temperatures (Kelvin)     34.49652     2.14625     2.02054
 Rotational constants (GHZ):         718.79165    44.72063    42.10124
 Zero-point vibrational energy      36556.5 (Joules/Mol)
                                    8.73721 (Kcal/Mol)
 Vibrational temperatures:   1689.27  2388.30  4715.89
          (Kelvin)

 Zero-point correction=                           0.013924 (Hartree/Particle)
 Thermal correction to Energy=                    0.016777
 Thermal correction to Enthalpy=                  0.017721
 Thermal correction to Gibbs Free Energy=        -0.008121
 Sum of electronic and zero-point Energies=           -113.355918
 Sum of electronic and thermal Energies=              -113.353065
 Sum of electronic and thermal Enthalpies=            -113.352120
 Sum of electronic and thermal Free Energies=         -113.377962

                     E (Thermal)             CV                S
                      KCal/Mol        Cal/Mol-Kelvin    Cal/Mol-Kelvin
 Total                   10.528              6.226             54.389
 Electronic               0.000              0.000              2.183
 Translational            0.889              2.981             36.028
 Rotational               0.889              2.981             16.126
 Vibrational              8.750              0.265              0.052

 Normal termination of Gaussian 09 at Thu Jan 24 15:33:10 2019.
