 Gaussian 09, Revision D.01,
 Gaussian 09:  ES64L-G09RevD.01 24-Apr-2013

 ---------------------------
 #p b3lyp/6-311++g(d,p) freq
 ---------------------------

 ---
 min
 ---
 Symbolic Z-matrix:
 Charge =  0 Multiplicity = 2

                         Standard orientation:
 ---------------------------------------------------------------------
 Center     Atomic      Atomic             Coordinates (Angstroms)
 Number     Number       Type             X           Y           Z
 ---------------------------------------------------------------------
      1          6           0        0.059677    0.790545    0.000000
      2          1           0       -0.835475   -0.897577    0.000000
      3          8           0        0.059677   -0.480712    0.000000
 ---------------------------------------------------------------------

 SCF Done:  E(UB3LYP) =  -113.824290645     A.U. after   12 cycles

 The electronic state is 2-A'.
 Alpha  occ. eigenvalues --  -19.23986 -10.26422  -1.15116  -0.70337  -0.51952
 Alpha  occ. eigenvalues --   -0.45951  -0.36896  -0.19833
 Alpha virt. eigenvalues --   -0.06685  -0.03170   0.05681   0.06334   0.07146
 Alpha virt. eigenvalues --    0.08080   0.12171   0.16981   0.18646   0.22231
 Alpha virt. eigenvalues --    0.28438   0.32608   0.44265   0.54160   0.55221

  Beta  occ. eigenvalues --  -19.23888 -10.24958  -1.14456  -0.68449  -0.49424
  Beta  occ. eigenvalues --   -0.45770  -0.33627
  Beta virt. eigenvalues --   -0.05263  -0.04667  -0.02627   0.06228   0.06832
  Beta virt. eigenvalues --    0.07347   0.08382   0.13408   0.17271   0.18598
  Beta virt. eigenvalues --    0.22357   0.28628   0.34286   0.45692   0.55084

 Mulliken charges and spin densities:
               1          2
     1  C   -0.251417   0.969919
     2  H    0.281537   0.085770
     3  O   -0.030120  -0.055688
 Sum of Mulliken charges =   0.00000   1.00000

 Dipole moment (field-independent basis, Debye):
    X=             -1.6835    Y=             -2.2094    Z=              0.0000  Tot=              2.7777
 Quadrupole moment (field-independent basis, Debye-Ang):
   XX=            -11.4549   YY=            -13.6818   ZZ=            -11.5097
   XY=              1.6690   XZ=              0.0000   YZ=              0.0000

  Exact polarizability:  16.817   3.097  22.492  -0.000   0.000  12.425
 Approx polarizability:  18.678   4.076  29.093  -0.000  -0.000  16.716

                      1                      2                      3
                     A'                     A'                     A'
 Frequencies --   1118.4689              1379.0182              3282.2597
 Red. masses --      1.2423                 7.5129                 1.0647
 Frc consts  --      0.9156                 8.4177                 6.7578
 IR Inten    --     78.1884                53.0935                65.6183

 - Thermochemistry -
 -------------------
 Temperature   298.150 Kelvin.  Pressure   1.00000 Atm.
 Atom     1 has atomic number  6 and mass  12.00000

 Molecular mass:    29.00274 amu.
 Principal axes and moments of inertia in atomic units:
                           1         2         3
     Eigenvalues --     2.56125  43.00434  45.56559
           X            0.07416   0.99725   0.00000
           Y            0.99725  -0.07416   0.00000
           Z            0.00000  -0.00000   1.00000
 This molecule is an asymmetric top.
 Rotational symmetry number  1.
 Rotational temperatures (Kelvin)     33.81697     2.01407     1.90086
 Rotational constants (GHZ):         704.63220    41.96649    39.60755
 Zero-point vibrational energy      34570.6 (Joules/Mol)
                                    8.26256 (Kcal/Mol)
 Vibrational temperatures:   1609.23  1984.10  4722.43
          (Kelvin)

 Zero-point correction=                           0.013167 (Hartree/Particle)
 Thermal correction to Energy=                    0.016031
 Thermal correction to Enthalpy=                  0.016975
 Thermal correction to Gibbs Free Energy=        -0.008564
 Sum of electronic and zero-point Energies=           -113.811123
 Sum of electronic and thermal Energies=              -113.808260
 Sum of electronic and thermal Enthalpies=            -113.807315
 Sum of electronic and thermal Free Energies=         -113.832855

                     E (Thermal)             CV                S
                      KCal/Mol        Cal/Mol-Kelvin    Cal/Mol-Kelvin
 Total                   10.060              6.340             53.753
 Electronic               0.000              0.000              1.377
 Translational            0.889              2.981             36.028
 Rotational               0.889              2.981             16.269
 Vibrational              8.282              0.378              0.077

 Optimization completed.
    -- Stationary point found.
 Normal termination of Gaussian 09 at Sun Mar  4 20:55:30 2018.
