 Gaussian 09, Revision D.01,
 Gaussian 09:  ES64L-G09RevD.01 24-Apr-2013

 ---------------------------
 #p b3lyp/6-311++g(d,p) freq
 ---------------------------

 ---
 min
 ---
 Symbolic Z-matrix:
 Charge =  1 Multiplicity = 1

                         Standard orientation:
 ---------------------------------------------------------------------
 Center     Atomic      Atomic             Coordinates (Angstroms)
 Number     Number       Type             X           Y           Z
 ---------------------------------------------------------------------
      1          6           0       -0.000000   -0.000000    0.515851
      2          1           0       -0.000000   -0.000000    1.622992
      3          8           0        0.000000    0.000000   -0.589763
 ---------------------------------------------------------------------

 SCF Done:  E(RB3LYP) =  -113.581720162     A.U. after    8 cycles

 The electronic state is 1-SG.
 Alpha  occ. eigenvalues --  -19.60197 -10.69197  -1.53557  -0.98395  -0.87731
 Alpha  occ. eigenvalues --   -0.82895  -0.82895
 Alpha virt. eigenvalues --   -0.38605  -0.38605  -0.26136  -0.18478  -0.12112
 Alpha virt. eigenvalues --   -0.12112  -0.08625  -0.04632   0.01110   0.01110
 Alpha virt. eigenvalues --    0.04063   0.06769   0.15260   0.23058   0.23058

 Mulliken charges:
               1
     1  C    0.471236
     2  H    0.348475
     3  O    0.180289
 Sum of Mulliken charges =   1.00000

 Dipole moment (field-independent basis, Debye):
    X=             -0.0000    Y=             -0.0000    Z=              3.7763  Tot=              3.7763
 Quadrupole moment (field-independent basis, Debye-Ang):
   XX=             -8.7582   YY=             -8.7582   ZZ=             -3.5313
   XY=              0.0000   XZ=              0.0000   YZ=              0.0000

  Exact polarizability:   6.067  -0.000   6.067  -0.000  -0.000  13.948
 Approx polarizability:   7.696   0.000   7.696  -0.000  -0.000  25.514

                      1                      2                      3
                     PI                     PI                     SG
 Frequencies --    898.1008               898.1008              2240.7526
 Red. masses --      1.3665                 1.3665                 3.5116
 Frc consts  --      0.6494                 0.6494                10.3884
 IR Inten    --     16.7142                16.7142               143.5689

                      4
                     SG
 Frequencies --   3129.1965
 Red. masses --      1.3335
 Frc consts  --      7.6935
 IR Inten    --    196.7483

 - Thermochemistry -
 -------------------
 Temperature   298.150 Kelvin.  Pressure   1.00000 Atm.
 Atom     1 has atomic number  6 and mass  12.00000

 Molecular mass:    29.00274 amu.
 Principal axes and moments of inertia in atomic units:
                           1         2         3
     Eigenvalues --     0.00000  40.43240  40.43240
           X           -0.00000   0.93632  -0.35115
           Y           -0.00000   0.35115   0.93632
           Z            1.00000   0.00000  -0.00000
 This molecule is a prolate symmetric top.
 Rotational symmetry number  1.
 Rotational temperature (Kelvin)      2.14219
 Rotational constant (GHZ):          44.636015
 Zero-point vibrational energy      42863.1 (Joules/Mol)
                                   10.24453 (Kcal/Mol)
 Vibrational temperatures:   1292.17  1292.17  3223.94  4502.21
          (Kelvin)

 Zero-point correction=                           0.016326 (Hartree/Particle)
 Thermal correction to Energy=                    0.018795
 Thermal correction to Enthalpy=                  0.019739
 Thermal correction to Gibbs Free Energy=        -0.003117
 Sum of electronic and zero-point Energies=           -113.565394
 Sum of electronic and thermal Energies=              -113.562925
 Sum of electronic and thermal Enthalpies=            -113.561981
 Sum of electronic and thermal Free Energies=         -113.584838

                     E (Thermal)             CV                S
                      KCal/Mol        Cal/Mol-Kelvin    Cal/Mol-Kelvin
 Total                   11.794              5.978             48.106
 Electronic               0.000              0.000              0.000
 Translational            0.889              2.981             36.028
 Rotational               0.592              1.987             11.796
 Vibrational             10.313              1.010              0.282

 Normal termination of Gaussian 09 at Thu Jan 24 15:32:34 2019.
