 Gaussian 09, Revision D.01,
 Gaussian 09:  ES64L-G09RevD.01 24-Apr-2013

 ---------------------------
 #p b3lyp/6-311++g(d,p) freq
 ---------------------------

 ---
 min
 ---
 Symbolic Z-matrix:
 Charge =  0 Multiplicity = 2

                         Standard orientation:
 ---------------------------------------------------------------------
 Center     Atomic      Atomic             Coordinates (Angstroms)
 Number     Number       Type             X           Y           Z
 ---------------------------------------------------------------------
      1          6           0        0.061667    0.583558    0.000000
      2          1           0       -0.863339    1.222535    0.000000
      3          8           0        0.061667   -0.590485    0.000000
 ---------------------------------------------------------------------

 SCF Done:  E(UB3LYP) =  -113.891331131     A.U. after   12 cycles

 The electronic state is 2-A'.
 Alpha  occ. eigenvalues --  -19.20038 -10.28699  -1.12705  -0.62869  -0.51566
 Alpha  occ. eigenvalues --   -0.45325  -0.44870  -0.22894
 Alpha virt. eigenvalues --   -0.06487  -0.00178   0.03937   0.05821   0.06606
 Alpha virt. eigenvalues --    0.11319   0.14983   0.18053   0.21215   0.22604
 Alpha virt. eigenvalues --    0.26833   0.38028   0.45410   0.51178   0.54015

  Beta  occ. eigenvalues --  -19.19165 -10.27730  -1.11096  -0.60136  -0.49278
  Beta  occ. eigenvalues --   -0.44073  -0.40125
  Beta virt. eigenvalues --   -0.09216  -0.04992   0.00100   0.04021   0.06707
  Beta virt. eigenvalues --    0.06792   0.11586   0.16753   0.18179   0.21247
  Beta virt. eigenvalues --    0.23050   0.27128   0.39286   0.47566   0.51995

 Mulliken charges and spin densities:
               1          2
     1  C   -0.004927   0.590910
     2  H    0.133905   0.163340
     3  O   -0.128978   0.245750
 Sum of Mulliken charges =  -0.00000   1.00000

 Dipole moment (field-independent basis, Debye):
    X=             -1.0357    Y=              1.3772    Z=              0.0000  Tot=              1.7231
 Quadrupole moment (field-independent basis, Debye-Ang):
   XX=            -11.6183   YY=            -11.8980   ZZ=            -11.0262
   XY=             -1.1716   XZ=              0.0000   YZ=              0.0000

  Exact polarizability:  14.796  -1.835  20.678  -0.000  -0.000   9.707
 Approx polarizability:  16.094  -2.114  32.204  -0.000  -0.000  11.875

                      1                      2                      3
                     A'                     A'                     A'
 Frequencies --   1098.6149              1935.4806              2661.3337
 Red. masses --      1.2528                11.4622                 1.0807
 Frc consts  --      0.8909                25.2987                 4.5098
 IR Inten    --     35.7100               108.7410                89.8311

 - Thermochemistry -
 -------------------
 Temperature   298.150 Kelvin.  Pressure   1.00000 Atm.
 Atom     1 has atomic number  6 and mass  12.00000

 Molecular mass:    29.00274 amu.
 Principal axes and moments of inertia in atomic units:
                           1         2         3
     Eigenvalues --     2.49639  40.18367  42.68006
           X           -0.11239   0.99366   0.00000
           Y            0.99366   0.11239   0.00000
           Z           -0.00000   0.00000   1.00000
 This molecule is an asymmetric top.
 Rotational symmetry number  1.
 Rotational temperatures (Kelvin)     34.69568     2.15545     2.02937
 Rotational constants (GHZ):         722.94149    44.91230    42.28535
 Zero-point vibrational energy      34066.2 (Joules/Mol)
                                    8.14202 (Kcal/Mol)
 Vibrational temperatures:   1580.66  2784.72  3829.06
          (Kelvin)

 Zero-point correction=                           0.012975 (Hartree/Particle)
 Thermal correction to Energy=                    0.015834
 Thermal correction to Enthalpy=                  0.016778
 Thermal correction to Gibbs Free Energy=        -0.008681
 Sum of electronic and zero-point Energies=           -113.878356
 Sum of electronic and thermal Energies=              -113.875498
 Sum of electronic and thermal Enthalpies=            -113.874553
 Sum of electronic and thermal Free Energies=         -113.900012

                     E (Thermal)             CV                S
                      KCal/Mol        Cal/Mol-Kelvin    Cal/Mol-Kelvin
 Total                    9.936              6.259             53.582
 Electronic               0.000              0.000              1.377
 Translational            0.889              2.981             36.028
 Rotational               0.889              2.981             16.111
 Vibrational              8.158              0.297              0.065

 Optimization completed.
    -- Stationary point found.
 Normal termination of Gaussian 09 at Sun Mar  4 20:55:30 2018.
