 Gaussian 09, Revision D.01,
 Gaussian 09:  ES64L-G09RevD.01 24-Apr-2013

 ---------------------------
 #p b3lyp/6-311++g(d,p) freq
 ---------------------------

 ---
 min
 ---
 Symbolic Z-matrix:
 Charge =  0 Multiplicity = 4

                         Standard orientation:
 ---------------------------------------------------------------------
 Center     Atomic      Atomic             Coordinates (Angstroms)
 Number     Number       Type             X           Y           Z
 ---------------------------------------------------------------------
      1          6           0        0.064488    0.709189    0.000000
      2          1           0       -0.902835    1.212444    0.000000
      3          8           0        0.064488   -0.683447    0.000000
 ---------------------------------------------------------------------

 SCF Done:  E(UB3LYP) =  -113.707664711     A.U. after   12 cycles

 The electronic state is 4-A".
 Alpha  occ. eigenvalues --  -19.24854 -10.27511  -1.08701  -0.66354  -0.51041
 Alpha  occ. eigenvalues --   -0.47654  -0.44207  -0.30900  -0.21593
 Alpha virt. eigenvalues --    0.00145   0.02989   0.05684   0.06266   0.11518
 Alpha virt. eigenvalues --    0.14610   0.17094   0.18662   0.19959   0.20595
 Alpha virt. eigenvalues --    0.29758   0.44831   0.50717   0.51738   0.60052

  Beta  occ. eigenvalues --  -19.21576 -10.24572  -1.00131  -0.58849  -0.45722
  Beta  occ. eigenvalues --   -0.37321
  Beta virt. eigenvalues --   -0.24827  -0.09295  -0.04464   0.00576   0.03745
  Beta virt. eigenvalues --    0.07417   0.08024   0.12361   0.16764   0.18045
  Beta virt. eigenvalues --    0.20534   0.22210   0.22905   0.31103   0.47758

 Mulliken charges and spin densities:
               1          2
     1  C   -0.153317   1.851583
     2  H    0.155375   0.043331
     3  O   -0.002058   1.105085
 Sum of Mulliken charges =  -0.00000   3.00000

 Dipole moment (field-independent basis, Debye):
    X=             -0.5802    Y=              0.8593    Z=              0.0000  Tot=              1.0369
 Quadrupole moment (field-independent basis, Debye-Ang):
   XX=            -10.3648   YY=            -12.0596   ZZ=            -13.0753
   XY=             -1.1132   XZ=              0.0000   YZ=              0.0000

  Exact polarizability:  11.416  -1.447  18.866   0.000  -0.000  16.385
 Approx polarizability:  12.996  -2.131  23.623  -0.000  -0.000  13.455

                      1                      2                      3
                     A'                     A'                     A'
 Frequencies --    943.6039              1212.1890              3109.6009
 Red. masses --      1.4164                 4.4444                 1.0841
 Frc consts  --      0.7431                 3.8477                 6.1764
 IR Inten    --     20.3815                33.1323                 0.4560

 - Thermochemistry -
 -------------------
 Temperature   298.150 Kelvin.  Pressure   1.00000 Atm.
 Atom     1 has atomic number  6 and mass  12.00000

 Molecular mass:    29.00274 amu.
 Principal axes and moments of inertia in atomic units:
                           1         2         3
     Eigenvalues --     2.87313  53.72391  56.59704
           X           -0.08616   0.99628   0.00000
           Y            0.99628   0.08616   0.00000
           Z           -0.00000   0.00000   1.00000
 This molecule is an asymmetric top.
 Rotational symmetry number  1.
 Rotational temperatures (Kelvin)     30.14618     1.61220     1.53036
 Rotational constants (GHZ):         628.14516    33.59288    31.88755
 Zero-point vibrational energy      31494.0 (Joules/Mol)
                                    7.52726 (Kcal/Mol)
 Vibrational temperatures:   1357.63  1744.07  4474.02
          (Kelvin)

 Zero-point correction=                           0.011995 (Hartree/Particle)
 Thermal correction to Energy=                    0.014890
 Thermal correction to Enthalpy=                  0.015834
 Thermal correction to Gibbs Free Energy=        -0.010659
 Sum of electronic and zero-point Energies=           -113.695669
 Sum of electronic and thermal Energies=              -113.692775
 Sum of electronic and thermal Enthalpies=            -113.691831
 Sum of electronic and thermal Free Energies=         -113.718324

                     E (Thermal)             CV                S
                      KCal/Mol        Cal/Mol-Kelvin    Cal/Mol-Kelvin
 Total                    9.343              6.602             55.760
 Electronic               0.000              0.000              2.755
 Translational            0.889              2.981             36.028
 Rotational               0.889              2.981             16.820
 Vibrational              7.566              0.640              0.157

 Optimization completed.
    -- Stationary point found.
 Normal termination of Gaussian 09 at Sun Mar  4 20:55:30 2018.
