 Gaussian 09, Revision D.01,
 Gaussian 09:  ES64L-G09RevD.01 24-Apr-2013

 ---------------------------
 #p b3lyp/6-311++g(d,p) freq
 ---------------------------

 ---
 min
 ---
 Symbolic Z-matrix:
 Charge =  1 Multiplicity = 3

                         Standard orientation:
 ---------------------------------------------------------------------
 Center     Atomic      Atomic             Coordinates (Angstroms)
 Number     Number       Type             X           Y           Z
 ---------------------------------------------------------------------
      1          6           0        0.065927    0.640435    0.000000
      2          1           0       -0.922979    1.157725    0.000000
      3          8           0        0.065927   -0.625042    0.000000
 ---------------------------------------------------------------------

 SCF Done:  E(UB3LYP) =  -113.376422238     A.U. after   13 cycles

 The electronic state is 3-A'.
 Alpha  occ. eigenvalues --  -19.65357 -10.70964  -1.51844  -1.00996  -0.89852
 Alpha  occ. eigenvalues --   -0.85511  -0.81696  -0.65102
 Alpha virt. eigenvalues --   -0.44811  -0.20405  -0.17854  -0.13215  -0.11930
 Alpha virt. eigenvalues --   -0.08685  -0.04733  -0.03843  -0.01217  -0.00072
 Alpha virt. eigenvalues --    0.00855   0.08323   0.19537   0.23678   0.24050

  Beta  occ. eigenvalues --  -19.62544 -10.69110  -1.44836  -0.95465  -0.84189
  Beta  occ. eigenvalues --   -0.78927
  Beta virt. eigenvalues --   -0.62938  -0.42585  -0.41571  -0.19291  -0.16524
  Beta virt. eigenvalues --   -0.11750  -0.11431  -0.06694  -0.04185  -0.02898
  Beta virt. eigenvalues --    0.00143   0.00818   0.02075   0.09188   0.21481

 Mulliken charges and spin densities:
               1          2
     1  C    0.347235   0.920272
     2  H    0.297009   0.107937
     3  O    0.355756   0.971791
 Sum of Mulliken charges =   1.00000   2.00000

 Dipole moment (field-independent basis, Debye):
    X=             -0.6650    Y=              2.3773    Z=              0.0000  Tot=              2.4686
 Quadrupole moment (field-independent basis, Debye-Ang):
   XX=             -7.6171   YY=             -6.3951   ZZ=             -9.0736
   XY=             -1.5935   XZ=              0.0000   YZ=              0.0000

  Exact polarizability:   8.324  -1.532  14.480   0.000  -0.000   7.410
 Approx polarizability:   9.767  -2.167  23.865  -0.000  -0.000   9.122

                      1                      2                      3
                     A'                     A'                     A'
 Frequencies --    952.4909              1563.1068              2878.3412
 Red. masses --      1.2895                 7.4757                 1.0807
 Frc consts  --      0.6893                10.7617                 5.2755
 IR Inten    --     22.5016                23.8085                88.3085

 - Thermochemistry -
 -------------------
 Temperature   298.150 Kelvin.  Pressure   1.00000 Atm.
 Atom     1 has atomic number  6 and mass  12.00000

 Molecular mass:    29.00274 amu.
 Principal axes and moments of inertia in atomic units:
                           1         2         3
     Eigenvalues --     2.96077  44.99027  47.95104
           X           -0.10191   0.99479   0.00000
           Y            0.99479   0.10191   0.00000
           Z           -0.00000   0.00000   1.00000
 This molecule is an asymmetric top.
 Rotational symmetry number  1.
 Rotational temperatures (Kelvin)     29.25379     1.92517     1.80630
 Rotational constants (GHZ):         609.55084    40.11403    37.63716
 Zero-point vibrational energy      32262.9 (Joules/Mol)
                                    7.71102 (Kcal/Mol)
 Vibrational temperatures:   1370.42  2248.96  4141.29
          (Kelvin)

 Zero-point correction=                           0.012288 (Hartree/Particle)
 Thermal correction to Energy=                    0.015169
 Thermal correction to Enthalpy=                  0.016113
 Thermal correction to Gibbs Free Energy=        -0.009945
 Sum of electronic and zero-point Energies=           -113.364134
 Sum of electronic and thermal Energies=              -113.361253
 Sum of electronic and thermal Enthalpies=            -113.360309
 Sum of electronic and thermal Free Energies=         -113.386367

                     E (Thermal)             CV                S
                      KCal/Mol        Cal/Mol-Kelvin    Cal/Mol-Kelvin
 Total                    9.519              6.454             54.843
 Electronic               0.000              0.000              2.183
 Translational            0.889              2.981             36.028
 Rotational               0.889              2.981             16.509
 Vibrational              7.741              0.493              0.122

 Optimization completed.
    -- Stationary point found.
 Normal termination of Gaussian 09 at Thu Jan 24 15:33:10 2019.
