 Gaussian 09, Revision D.01,
 Gaussian 09:  ES64L-G09RevD.01 24-Apr-2013

 ---------------------------
 #p b3lyp/6-311++g(d,p) freq
 ---------------------------

 ---
 min
 ---
 Symbolic Z-matrix:
 Charge =  1 Multiplicity = 1

                         Standard orientation:
 ---------------------------------------------------------------------
 Center     Atomic      Atomic             Coordinates (Angstroms)
 Number     Number       Type             X           Y           Z
 ---------------------------------------------------------------------
      1          6           0       -0.000000   -0.000000   -0.763621
      2          1           0        0.000000    0.000000    1.402095
      3          8           0        0.000000    0.000000    0.397454
 ---------------------------------------------------------------------

 SCF Done:  E(RB3LYP) =  -113.519306883     A.U. after   10 cycles

 The electronic state is 1-SG.
 Alpha  occ. eigenvalues --  -19.61954 -10.68296  -1.54632  -1.13062  -0.84360
 Alpha  occ. eigenvalues --   -0.84360  -0.70085
 Alpha virt. eigenvalues --   -0.37412  -0.37412  -0.28645  -0.16154  -0.11962
 Alpha virt. eigenvalues --   -0.11962  -0.08716  -0.07348  -0.01537  -0.01537
 Alpha virt. eigenvalues --    0.04657   0.07400   0.12750   0.23126   0.27338

 Mulliken charges:
               1
     1  C    0.248404
     2  H    0.472476
     3  O    0.279120
 Sum of Mulliken charges =   1.00000

 Dipole moment (field-independent basis, Debye):
    X=              0.0000    Y=              0.0000    Z=              2.5874  Tot=              2.5874
 Quadrupole moment (field-independent basis, Debye-Ang):
   XX=             -9.2233   YY=             -9.2233   ZZ=             -3.8649
   XY=             -0.0000   XZ=             -0.0000   YZ=             -0.0000

  Exact polarizability:   8.241   0.000   8.241   0.000  -0.000  14.761
 Approx polarizability:  11.285   0.000  11.285   0.000   0.000  23.351

                      1                      2                      3
                     PI                     PI                     SG
 Frequencies --    352.8568               352.8568              1940.3114
 Red. masses --      1.2679                 1.2679                 7.9990
 Frc consts  --      0.0930                 0.0930                17.7430
 IR Inten    --    282.3715               282.3715               155.8967

                      4
                     SG
 Frequencies --   3340.7644
 Red. masses --      1.0993
 Frc consts  --      7.2289
 IR Inten    --   1004.3804

 - Thermochemistry -
 -------------------
 Temperature   298.150 Kelvin.  Pressure   1.00000 Atm.
 Atom     1 has atomic number  6 and mass  12.00000

 Molecular mass:    29.00274 amu.
 Principal axes and moments of inertia in atomic units:
                           1         2         3
     Eigenvalues --     0.00000  40.84742  40.84742
           X            0.00000   0.44716   0.89445
           Y            0.00000   0.89445  -0.44716
           Z            1.00000  -0.00000   0.00000
 This molecule is a prolate symmetric top.
 Rotational symmetry number  1.
 Rotational temperature (Kelvin)      2.12042
 Rotational constant (GHZ):          44.182498
 Zero-point vibrational energy      35809.0 (Joules/Mol)
                                    8.55854 (Kcal/Mol)
 Warning -- explicit consideration of   2 degrees of freedom as
           vibrations may cause significant error
 Vibrational temperatures:    507.68   507.68  2791.67  4806.61
          (Kelvin)

 Zero-point correction=                           0.013639 (Hartree/Particle)
 Thermal correction to Energy=                    0.016716
 Thermal correction to Enthalpy=                  0.017661
 Thermal correction to Gibbs Free Energy=        -0.006169
 Sum of electronic and zero-point Energies=           -113.505668
 Sum of electronic and thermal Energies=              -113.502590
 Sum of electronic and thermal Enthalpies=            -113.501646
 Sum of electronic and thermal Free Energies=         -113.525476

                     E (Thermal)             CV                S
                      KCal/Mol        Cal/Mol-Kelvin    Cal/Mol-Kelvin
 Total                   10.490              8.122             50.153
 Electronic               0.000              0.000              0.000
 Translational            0.889              2.981             36.028
 Rotational               0.592              1.987             11.816
 Vibrational              9.008              3.154              2.309
 Vibration     1          0.729              1.569              1.153
 Vibration     2          0.729              1.569              1.153

 Normal termination of Gaussian 09 at Thu Jan 24 15:32:34 2019.
