 Gaussian 09, Revision D.01,
 Gaussian 09:  ES64L-G09RevD.01 24-Apr-2013

 ---------------------------
 #p b3lyp/6-311++g(d,p) freq
 ---------------------------

 ---
 min
 ---
 Symbolic Z-matrix:
 Charge =  1 Multiplicity = 1

                         Standard orientation:
 ---------------------------------------------------------------------
 Center     Atomic      Atomic             Coordinates (Angstroms)
 Number     Number       Type             X           Y           Z
 ---------------------------------------------------------------------
      1          1           0        0.000000    0.000000   -0.923486
      2          8           0        0.000000    0.000000    0.115436
 ---------------------------------------------------------------------

 SCF Done:  E(RB3LYP) =  -75.1651493704     A.U. after    7 cycles

 Unable to determine electronic state:  partially filled degenerate orbitals.
 Alpha  occ. eigenvalues --  -19.81361  -1.50010  -0.96382  -0.85097
 Alpha virt. eigenvalues --   -0.76385  -0.32647  -0.14740  -0.10673  -0.10415
 Alpha virt. eigenvalues --   -0.08128  -0.02042   0.16335   0.57160   0.58817
 Alpha virt. eigenvalues --    0.60011   0.88852   0.89221   0.90534   1.46182

 Mulliken charges:
               1
     1  H    0.415490
     2  O    0.584510
 Sum of Mulliken charges =   1.00000

 Dipole moment (field-independent basis, Debye):
    X=              0.0000    Y=              0.0000    Z=             -2.1315  Tot=              2.1315
 Quadrupole moment (field-independent basis, Debye-Ang):
   XX=             -3.2804   YY=             -5.1359   ZZ=             -2.3079
   XY=              0.0000   XZ=              0.0000   YZ=              0.0000

  Exact polarizability:   2.361   0.000   2.127   0.000  -0.000   4.649
 Approx polarizability:   3.532  -0.000   2.130  -0.000  -0.000   5.645

                      1
                     SG
 Frequencies --   3061.9856
 Red. masses --      1.0671
 Frc consts  --      5.8946
 IR Inten    --    313.7310

 - Thermochemistry -
 -------------------
 Temperature   298.150 Kelvin.  Pressure   1.00000 Atm.
 Atom     1 has atomic number  1 and mass   1.00783

 Molecular mass:    17.00274 amu.
 Principal axes and moments of inertia in atomic units:
                           1         2         3
     Eigenvalues --     0.00000   3.65436   3.65436
           X            0.00000  -0.00000   1.00000
           Y            0.00000   1.00000   0.00000
           Z            1.00000   0.00000   0.00000
 This molecule is a prolate symmetric top.
 Rotational symmetry number  1.
 Rotational temperature (Kelvin)     23.70148
 Rotational constant (GHZ):         493.859197
 Zero-point vibrational energy      18314.7 (Joules/Mol)
                                    4.37733 (Kcal/Mol)
 Vibrational temperatures:   4405.51
          (Kelvin)

 Zero-point correction=                           0.006976 (Hartree/Particle)
 Thermal correction to Energy=                    0.009336
 Thermal correction to Enthalpy=                  0.010280
 Thermal correction to Gibbs Free Energy=        -0.009417
 Sum of electronic and zero-point Energies=            -75.158174
 Sum of electronic and thermal Energies=               -75.155813
 Sum of electronic and thermal Enthalpies=             -75.154869
 Sum of electronic and thermal Free Energies=          -75.174566

                     E (Thermal)             CV                S
                      KCal/Mol        Cal/Mol-Kelvin    Cal/Mol-Kelvin
 Total                    5.859              4.968             41.456
 Electronic               0.000              0.000              0.000
 Translational            0.889              2.981             34.437
 Rotational               0.592              1.987              7.019
 Vibrational              4.377              0.000              0.000

 Optimization completed.
    -- Stationary point found.
 Normal termination of Gaussian 09 at Thu Jan 24 15:29:58 2019.
