 Gaussian 09, Revision D.01,
 Gaussian 09:  ES64L-G09RevD.01 24-Apr-2013

 ---------------------------
 #p b3lyp/6-311++g(d,p) freq
 ---------------------------

 ---
 min
 ---
 Symbolic Z-matrix:
 Charge =  1 Multiplicity = 3

                         Standard orientation:
 ---------------------------------------------------------------------
 Center     Atomic      Atomic             Coordinates (Angstroms)
 Number     Number       Type             X           Y           Z
 ---------------------------------------------------------------------
      1          1           0        0.000000    0.000000   -0.922450
      2          8           0        0.000000    0.000000    0.115306
 ---------------------------------------------------------------------

 SCF Done:  E(UB3LYP) =  -75.2757215714     A.U. after    9 cycles

 The electronic state is 3-SG.
 Alpha  occ. eigenvalues --  -19.81084  -1.56398  -0.97890  -0.94686  -0.94686
 Alpha virt. eigenvalues --   -0.32856  -0.14564  -0.10982  -0.10982  -0.08091
 Alpha virt. eigenvalues --   -0.02051   0.16567   0.55184   0.55184   0.59561
 Alpha virt. eigenvalues --    0.86847   0.89671   0.89671   1.46064   2.07344

  Beta  occ. eigenvalues --  -19.75413  -1.41025  -0.92360
  Beta virt. eigenvalues --   -0.64451  -0.64451  -0.31192  -0.13858  -0.08773
  Beta virt. eigenvalues --   -0.08773  -0.07744  -0.01466   0.16974   0.61688
  Beta virt. eigenvalues --    0.62832   0.62832   0.90782   0.90782   0.93423

 Mulliken charges and spin densities:
               1          2
     1  H    0.405128  -0.044369
     2  O    0.594872   2.044369
 Sum of Mulliken charges =   1.00000   2.00000

 Dipole moment (field-independent basis, Debye):
    X=              0.0000    Y=              0.0000    Z=             -2.1014  Tot=              2.1014
 Quadrupole moment (field-independent basis, Debye-Ang):
   XX=             -4.0913   YY=             -4.0913   ZZ=             -2.3217
   XY=              0.0000   XZ=              0.0000   YZ=              0.0000

  Exact polarizability:   2.490   0.000   2.490   0.000  -0.000   4.741
 Approx polarizability:   2.631  -0.000   2.631  -0.000  -0.000   5.725

                      1
                     SG
 Frequencies --   3059.7287
 Red. masses --      1.0671
 Frc consts  --      5.8860
 IR Inten    --    272.6566

 - Thermochemistry -
 -------------------
 Temperature   298.150 Kelvin.  Pressure   1.00000 Atm.
 Atom     1 has atomic number  1 and mass   1.00783

 Molecular mass:    17.00274 amu.
 Principal axes and moments of inertia in atomic units:
                           1         2         3
     Eigenvalues --     0.00000   3.64617   3.64617
           X            0.00000  -0.00000   1.00000
           Y            0.00000   1.00000   0.00000
           Z            1.00000   0.00000   0.00000
 This molecule is a prolate symmetric top.
 Rotational symmetry number  1.
 Rotational temperature (Kelvin)     23.75477
 Rotational constant (GHZ):         494.969599
 Zero-point vibrational energy      18301.2 (Joules/Mol)
                                    4.37410 (Kcal/Mol)
 Vibrational temperatures:   4402.26
          (Kelvin)

 Zero-point correction=                           0.006971 (Hartree/Particle)
 Thermal correction to Energy=                    0.009331
 Thermal correction to Enthalpy=                  0.010275
 Thermal correction to Gibbs Free Energy=        -0.010457
 Sum of electronic and zero-point Energies=            -75.268751
 Sum of electronic and thermal Energies=               -75.266391
 Sum of electronic and thermal Enthalpies=             -75.265446
 Sum of electronic and thermal Free Energies=          -75.286178

                     E (Thermal)             CV                S
                      KCal/Mol        Cal/Mol-Kelvin    Cal/Mol-Kelvin
 Total                    5.855              4.968             43.634
 Electronic               0.000              0.000              2.183
 Translational            0.889              2.981             34.437
 Rotational               0.592              1.987              7.014
 Vibrational              4.374              0.000              0.000

 Optimization completed.
    -- Stationary point found.
 Normal termination of Gaussian 09 at Thu Jan 24 15:29:58 2019.
