 Gaussian 09, Revision D.01,
 Gaussian 09:  ES64L-G09RevD.01 24-Apr-2013

 ---------------------------
 #p b3lyp/6-311++g(d,p) freq
 ---------------------------

 ---
 min
 ---
 Symbolic Z-matrix:
 Charge =  0 Multiplicity = 2

                         Standard orientation:
 ---------------------------------------------------------------------
 Center     Atomic      Atomic             Coordinates (Angstroms)
 Number     Number       Type             X           Y           Z
 ---------------------------------------------------------------------
      1          1           0        0.000000    0.000000   -0.867425
      2          8           0        0.000000    0.000000    0.108428
 ---------------------------------------------------------------------

 SCF Done:  E(UB3LYP) =  -75.7624123365     A.U. after    9 cycles

 Unable to determine electronic state:  an orbital has unidentified symmetry.
 Alpha  occ. eigenvalues --  -19.20695  -1.03045  -0.48935  -0.42831  -0.35642
 Alpha virt. eigenvalues --   -0.01838   0.12276   0.13988   0.14873   0.15490
 Alpha virt. eigenvalues --    0.21225   0.49311   0.93697   0.95974   0.97623
 Alpha virt. eigenvalues --    1.28141   1.30178   1.31958   1.97321   2.44761

  Beta  occ. eigenvalues --  -19.18120  -0.95983  -0.46281  -0.32927
  Beta virt. eigenvalues --   -0.18608  -0.01493   0.12742   0.15153   0.15884
  Beta virt. eigenvalues --    0.16438   0.21670   0.49926   0.97272   0.98880
  Beta virt. eigenvalues --    1.01325   1.31599   1.31781   1.31847   1.98501

 Mulliken charges and spin densities:
               1          2
     1  H    0.240072  -0.022556
     2  O   -0.240072   1.022556
 Sum of Mulliken charges =   0.00000   1.00000

 Dipole moment (field-independent basis, Debye):
    X=              0.0000    Y=              0.0000    Z=             -1.8315  Tot=              1.8315
 Quadrupole moment (field-independent basis, Debye-Ang):
   XX=             -5.5540   YY=             -6.9459   ZZ=             -4.7829
   XY=              0.0000   XZ=              0.0000   YZ=              0.0000

  Exact polarizability:   3.453   0.000   4.691   0.000   0.000   7.132
 Approx polarizability:   3.543  -0.000   4.503  -0.000  -0.000   8.524

                      1
                     SG
 Frequencies --   3709.5032
 Red. masses --      1.0671
 Frc consts  --      8.6513
 IR Inten    --     13.3644

 - Thermochemistry -
 -------------------
 Temperature   298.150 Kelvin.  Pressure   1.00000 Atm.
 Atom     1 has atomic number  1 and mass   1.00783

 Molecular mass:    17.00274 amu.
 Principal axes and moments of inertia in atomic units:
                           1         2         3
     Eigenvalues --     0.00000   3.22415   3.22415
           X            0.00000  -0.00000   1.00000
           Y            0.00000   1.00000   0.00000
           Z            1.00000   0.00000   0.00000
 This molecule is a prolate symmetric top.
 Rotational symmetry number  1.
 Rotational temperature (Kelvin)     26.86411
 Rotational constant (GHZ):         559.757896
 Zero-point vibrational energy      22187.8 (Joules/Mol)
                                    5.30300 (Kcal/Mol)
 Vibrational temperatures:   5337.14
          (Kelvin)

 Zero-point correction=                           0.008451 (Hartree/Particle)
 Thermal correction to Energy=                    0.010811
 Thermal correction to Enthalpy=                  0.011756
 Thermal correction to Gibbs Free Energy=        -0.008478
 Sum of electronic and zero-point Energies=            -75.753961
 Sum of electronic and thermal Energies=               -75.751601
 Sum of electronic and thermal Enthalpies=             -75.750657
 Sum of electronic and thermal Free Energies=          -75.770890

                     E (Thermal)             CV                S
                      KCal/Mol        Cal/Mol-Kelvin    Cal/Mol-Kelvin
 Total                    6.784              4.968             42.584
 Electronic               0.000              0.000              1.377
 Translational            0.889              2.981             34.437
 Rotational               0.592              1.987              6.770
 Vibrational              5.303              0.000              0.000

 Optimization completed.
    -- Stationary point found.
 Normal termination of Gaussian 09 at Sun Mar  4 20:54:57 2018.
