 Gaussian 09, Revision D.01,
 Gaussian 09:  ES64L-G09RevD.01 24-Apr-2013

 ---------------------------
 #p b3lyp/6-311++g(d,p) freq
 ---------------------------

 ---
 min
 ---
 Symbolic Z-matrix:
 Charge =  0 Multiplicity = 3

                         Standard orientation:
 ---------------------------------------------------------------------
 Center     Atomic      Atomic             Coordinates (Angstroms)
 Number     Number       Type             X           Y           Z
 ---------------------------------------------------------------------
      1          8           0        0.000000    0.000000    0.000000
 ---------------------------------------------------------------------

 SCF Done:  E(UB3LYP) =  -75.0898794536     A.U. after   10 cycles

 Unable to determine electronic state:  an orbital has unidentified symmetry.
 Alpha  occ. eigenvalues --  -19.27820  -1.02503  -0.46623  -0.46623  -0.39182
 Alpha virt. eigenvalues --    0.08061   0.14010   0.14010   0.14714   0.92400
 Alpha virt. eigenvalues --    0.92400   0.96241   1.14958   2.63458   2.63458
 Alpha virt. eigenvalues --    2.69297   2.69297   2.71353   4.76127   4.76127

  Beta  occ. eigenvalues --  -19.22637  -0.86653  -0.33912
  Beta virt. eigenvalues --   -0.19064  -0.19064   0.09422   0.15154   0.16602
  Beta virt. eigenvalues --    0.16602   0.98556   1.01122   1.01122   1.21909
  Beta virt. eigenvalues --    2.78894   2.78894   2.79602   2.81514   2.81515

 Mulliken charges and spin densities:
               1          2
     1  O    0.000000   2.000000
 Sum of Mulliken charges =   0.00000   2.00000

 Dipole moment (field-independent basis, Debye):
    X=              0.0000    Y=              0.0000    Z=              0.0000  Tot=              0.0000
 Quadrupole moment (field-independent basis, Debye-Ang):
   XX=             -4.7516   YY=             -4.7516   ZZ=             -6.0850
   XY=              0.0000   XZ=             -0.0000   YZ=              0.0000

  Exact polarizability:   2.678   0.000   2.678  -0.000  -0.000   3.160
 Approx polarizability:   2.735  -0.000   2.735  -0.000  -0.000   2.892

 - Thermochemistry -
 -------------------
 Temperature   298.150 Kelvin.  Pressure   1.00000 Atm.
 Atom     1 has atomic number  8 and mass  15.99491
 Molecular mass:    15.99491 amu.
 Zero-point vibrational energy          0.0 (Joules/Mol)
                                    0.00000 (Kcal/Mol)
 Vibrational temperatures:
          (Kelvin)

 Zero-point correction=                           0.000000 (Hartree/Particle)
 Thermal correction to Energy=                    0.001416
 Thermal correction to Enthalpy=                  0.002360
 Thermal correction to Gibbs Free Energy=        -0.014952
 Sum of electronic and zero-point Energies=            -75.089879
 Sum of electronic and thermal Energies=               -75.088463
 Sum of electronic and thermal Enthalpies=             -75.087519
 Sum of electronic and thermal Free Energies=          -75.104832

                     E (Thermal)             CV                S
                      KCal/Mol        Cal/Mol-Kelvin    Cal/Mol-Kelvin
 Total                    0.889              2.981             36.438
 Electronic               0.000              0.000              2.183
 Translational            0.889              2.981             34.255
 Rotational               0.000              0.000              0.000
 Vibrational              0.000              0.000              0.000

 Optimization completed.
    -- Stationary point found.
 Normal termination of Gaussian 09 at Sun Mar  4 20:53:32 2018.
