 Gaussian 09, Revision D.01,
 Gaussian 09:  ES64L-G09RevD.01 24-Apr-2013

 ---------------------------
 #p b3lyp/6-311++g(d,p) freq
 ---------------------------

 ---
 min
 ---
 Symbolic Z-matrix:
 Charge =  0 Multiplicity = 1

                         Standard orientation:
 ---------------------------------------------------------------------
 Center     Atomic      Atomic             Coordinates (Angstroms)
 Number     Number       Type             X           Y           Z
 ---------------------------------------------------------------------
      1          8           0        0.000000    0.000000    0.000000
 ---------------------------------------------------------------------

 SCF Done:  E(RB3LYP) =  -74.9889073405     A.U. after    8 cycles

 Unable to determine electronic state:  partially filled degenerate orbitals.
 Alpha  occ. eigenvalues --  -19.28750  -0.96349  -0.38163  -0.38163
 Alpha virt. eigenvalues --   -0.30101   0.08303   0.14551   0.14678   0.14678
 Alpha virt. eigenvalues --    0.94669   0.96462   0.96462   1.17244   2.69887
 Alpha virt. eigenvalues --    2.69949   2.69949   2.74967   2.74967   4.79124

 Mulliken charges:
               1
     1  O   -0.000000
 Sum of Mulliken charges =  -0.00000

 Dipole moment (field-independent basis, Debye):
    X=              0.0000    Y=              0.0000    Z=              0.0000  Tot=              0.0000
 Quadrupole moment (field-independent basis, Debye-Ang):
   XX=             -3.7994   YY=             -6.0755   ZZ=             -6.0755
   XY=              0.0000   XZ=             -0.0000   YZ=              0.0000

  Exact polarizability:   2.286  -0.000   2.909   0.000   0.000   2.909
 Approx polarizability:   3.440  -0.000   2.688  -0.000  -0.000   2.688

 - Thermochemistry -
 -------------------
 Temperature   298.150 Kelvin.  Pressure   1.00000 Atm.
 Atom     1 has atomic number  8 and mass  15.99491
 Molecular mass:    15.99491 amu.
 Zero-point vibrational energy          0.0 (Joules/Mol)
                                    0.00000 (Kcal/Mol)
 Vibrational temperatures:
          (Kelvin)

 Zero-point correction=                           0.000000 (Hartree/Particle)
 Thermal correction to Energy=                    0.001416
 Thermal correction to Enthalpy=                  0.002360
 Thermal correction to Gibbs Free Energy=        -0.013915
 Sum of electronic and zero-point Energies=            -74.988907
 Sum of electronic and thermal Energies=               -74.987491
 Sum of electronic and thermal Enthalpies=             -74.986547
 Sum of electronic and thermal Free Energies=          -75.002822

                     E (Thermal)             CV                S
                      KCal/Mol        Cal/Mol-Kelvin    Cal/Mol-Kelvin
 Total                    0.889              2.981             34.255
 Electronic               0.000              0.000              0.000
 Translational            0.889              2.981             34.255
 Rotational               0.000              0.000              0.000
 Vibrational              0.000              0.000              0.000

 Optimization completed.
    -- Stationary point found.
 Normal termination of Gaussian 09 at Sun Mar  4 20:53:30 2018.
