 Gaussian 09, Revision D.01,
 Gaussian 09:  ES64L-G09RevD.01 24-Apr-2013

 ---------------------------
 #p b3lyp/6-311++g(d,p) freq
 ---------------------------

 ---
 min
 ---
 Symbolic Z-matrix:
 Charge =  1 Multiplicity = 2

                         Standard orientation:
 ---------------------------------------------------------------------
 Center     Atomic      Atomic             Coordinates (Angstroms)
 Number     Number       Type             X           Y           Z
 ---------------------------------------------------------------------
      1          8           0        0.000000    0.000000    0.000000
 ---------------------------------------------------------------------

 SCF Done:  E(UB3LYP) =  -74.4269253987     A.U. after   11 cycles

 Unable to determine electronic state:  an orbital has unidentified symmetry.
 Alpha  occ. eigenvalues --  -19.98290  -1.57291  -1.03985  -0.95259
 Alpha virt. eigenvalues --   -0.86318  -0.20421  -0.11739  -0.11450  -0.11147
 Alpha virt. eigenvalues --    0.52030   0.53572   0.55380   0.71792   2.07367
 Alpha virt. eigenvalues --    2.08484   2.12768   2.13760   2.15952   4.16920

  Beta  occ. eigenvalues --  -19.95285  -1.48411  -0.92290
  Beta virt. eigenvalues --   -0.83001  -0.74776  -0.19763  -0.11203  -0.11006
  Beta virt. eigenvalues --   -0.10116   0.54677   0.56301   0.58425   0.75069
  Beta virt. eigenvalues --    2.15094   2.15398   2.18158   2.21559   2.23017

 Mulliken charges and spin densities:
               1          2
     1  O    1.000000   1.000000
 Sum of Mulliken charges =   1.00000   1.00000

 Dipole moment (field-independent basis, Debye):
    X=              0.0000    Y=              0.0000    Z=              0.0000  Tot=              0.0000
 Quadrupole moment (field-independent basis, Debye-Ang):
   XX=             -2.6227   YY=             -3.4158   ZZ=             -4.3303
   XY=              0.0000   XZ=             -0.0000   YZ=              0.0000

  Exact polarizability:   1.932   0.000   1.791   0.000   0.000   1.284
 Approx polarizability:   2.892  -0.000   1.865  -0.000  -0.000   1.228

 - Thermochemistry -
 -------------------
 Temperature   298.150 Kelvin.  Pressure   1.00000 Atm.
 Atom     1 has atomic number  8 and mass  15.99491
 Molecular mass:    15.99491 amu.
 Zero-point vibrational energy          0.0 (Joules/Mol)
                                    0.00000 (Kcal/Mol)
 Vibrational temperatures:
          (Kelvin)

 Zero-point correction=                           0.000000 (Hartree/Particle)
 Thermal correction to Energy=                    0.001416
 Thermal correction to Enthalpy=                  0.002360
 Thermal correction to Gibbs Free Energy=        -0.014569
 Sum of electronic and zero-point Energies=            -74.426925
 Sum of electronic and thermal Energies=               -74.425509
 Sum of electronic and thermal Enthalpies=             -74.424565
 Sum of electronic and thermal Free Energies=          -74.441495

                     E (Thermal)             CV                S
                      KCal/Mol        Cal/Mol-Kelvin    Cal/Mol-Kelvin
 Total                    0.889              2.981             35.632
 Electronic               0.000              0.000              1.377
 Translational            0.889              2.981             34.255
 Rotational               0.000              0.000              0.000
 Vibrational              0.000              0.000              0.000

 Optimization completed.
    -- Stationary point found.
 Normal termination of Gaussian 09 at Thu Jan 24 15:28:55 2019.
