 Gaussian 09, Revision E.01,
 Gaussian 09:  EM64L-G09RevE.01 30-Nov-2015

 ---------------------------------------------
 #p b3lyp/6-311++G(3df,2p) freq symmetry=Loose
 ---------------------------------------------

 ---------
 b3lyp opt
 ---------
 Symbolic Z-matrix:
 Charge =  0 Multiplicity = 4

                         Standard orientation:
 ---------------------------------------------------------------------
 Center     Atomic      Atomic             Coordinates (Angstroms)
 Number     Number       Type             X           Y           Z
 ---------------------------------------------------------------------
      1          7           0        0.000000    0.000000    0.011230
      2          6           0        0.000000    0.000000   -1.243548
      3          6           0        0.000000    0.000000    1.230446
 ---------------------------------------------------------------------

 SCF Done:  E(UB3LYP) =  -130.709214708     A.U. after   21 cycles

 The electronic state is 4-SG.
 Alpha  occ. eigenvalues --  -14.42617 -10.31424 -10.27034  -1.02685  -0.82017
 Alpha  occ. eigenvalues --   -0.47806  -0.47137  -0.47137  -0.38682  -0.26266
 Alpha  occ. eigenvalues --   -0.26266
 Alpha virt. eigenvalues --   -0.01050  -0.01050   0.01230   0.04570   0.06277
 Alpha virt. eigenvalues --    0.06277   0.07300   0.09482   0.09482   0.12370
 Alpha virt. eigenvalues --    0.19064   0.19861   0.19861   0.26484   0.26485

  Beta  occ. eigenvalues --  -14.43089 -10.27713 -10.25139  -1.01141  -0.76697
  Beta  occ. eigenvalues --   -0.44607  -0.44607  -0.32989
  Beta virt. eigenvalues --   -0.25878  -0.10736  -0.10736   0.01650   0.01650
  Beta virt. eigenvalues --    0.02027   0.05302   0.07515   0.10147   0.10147
  Beta virt. eigenvalues --    0.10722   0.10722   0.12736   0.19445   0.19908

 Mulliken charges and spin densities:
               1          2
     1  N   -0.292698  -0.353581
     2  C    0.213573   2.203275
     3  C    0.079125   1.150306
 Sum of Mulliken charges =  -0.00000   3.00000

 Dipole moment (field-independent basis, Debye):
    X=              0.0000    Y=              0.0000    Z=             -1.4389  Tot=              1.4389
 Quadrupole moment (field-independent basis, Debye-Ang):
   XX=            -16.8975   YY=            -16.8975   ZZ=            -18.7021
   XY=              0.0000   XZ=              0.0000   YZ=              0.0000

  Exact polarizability:  20.168  -0.000  20.168  -0.000   0.000 170.456
 Approx polarizability:  26.249  -0.000  26.249  -0.000  -0.000 264.536

                      1                      2                      3
                     PI                     PI                     SG
 Frequencies --    438.2993               438.2993              1267.4912
 Red. masses --     13.1916                13.1916                12.2407
 Frc consts  --      1.4931                 1.4931                11.5864
 IR Inten    --      1.1492                 1.1492               126.0508

                      4
                     SG
 Frequencies --   1483.1304
 Red. masses --     12.9126
 Frc consts  --     16.7348
 IR Inten    --    883.4594

 - Thermochemistry -
 -------------------
 Temperature   298.150 Kelvin.  Pressure   1.00000 Atm.
 Atom     1 has atomic number  7 and mass  14.00307

 Molecular mass:    38.00307 amu.
 Principal axes and moments of inertia in atomic units:
                           1         2         3
     Eigenvalues --     0.00000 131.15333 131.15333
           X            0.00000  -0.00000   1.00000
           Y            0.00000   1.00000   0.00000
           Z            1.00000   0.00000   0.00000
 This molecule is a prolate symmetric top.
 Rotational symmetry number  1.
 Rotational temperature (Kelvin)      0.66040
 Rotational constant (GHZ):          13.760544
 Zero-point vibrational energy      21695.6 (Joules/Mol)
                                    5.18537 (Kcal/Mol)
 Warning -- explicit consideration of   2 degrees of freedom as
           vibrations may cause significant error
 Vibrational temperatures:    630.61   630.61  1823.63  2133.89
          (Kelvin)

 Zero-point correction=                           0.008263 (Hartree/Particle)
 Thermal correction to Energy=                    0.011190
 Thermal correction to Enthalpy=                  0.012134
 Thermal correction to Gibbs Free Energy=        -0.014203
 Sum of electronic and zero-point Energies=           -130.700951
 Sum of electronic and thermal Energies=              -130.698025
 Sum of electronic and thermal Enthalpies=            -130.697081
 Sum of electronic and thermal Free Energies=         -130.723418

                     E (Thermal)             CV                S
                      KCal/Mol        Cal/Mol-Kelvin    Cal/Mol-Kelvin
 Total                    7.022              7.986             55.431
 Electronic               0.000              0.000              2.755
 Translational            0.889              2.981             36.834
 Rotational               0.592              1.987             14.134
 Vibrational              5.540              3.018              1.708
 Vibration     1          0.798              1.387              0.832
 Vibration     2          0.798              1.387              0.832

 Optimization completed.
    -- Stationary point found.
 Normal termination of Gaussian 09 at Tue Aug 16 17:39:18 2016.
