 Gaussian 09, Revision E.01,
 Gaussian 09:  EM64L-G09RevE.01 30-Nov-2015

 ---------------------------------------------
 #p b3lyp/6-311++G(3df,2p) freq symmetry=Loose
 ---------------------------------------------

 ---------
 b3lyp opt
 ---------
 Symbolic Z-matrix:
 Charge =  0 Multiplicity = 4

                         Standard orientation:
 ---------------------------------------------------------------------
 Center     Atomic      Atomic             Coordinates (Angstroms)
 Number     Number       Type             X           Y           Z
 ---------------------------------------------------------------------
      1          7           0       -1.019629   -0.544657    0.000000
      2          6           0        0.000000    0.066049    0.000000
      3          6           0        1.189567    0.569384    0.000000
 ---------------------------------------------------------------------

 SCF Done:  E(UB3LYP) =  -130.754253796     A.U. after   13 cycles

 The electronic state is 4-A".
 Alpha  occ. eigenvalues --  -14.37234 -10.31517 -10.25236  -0.96131  -0.80937
 Alpha  occ. eigenvalues --   -0.47918  -0.43622  -0.43622  -0.41971  -0.30061
 Alpha  occ. eigenvalues --   -0.30023
 Alpha virt. eigenvalues --    0.00297   0.03709   0.03998   0.04111   0.05932
 Alpha virt. eigenvalues --    0.05992   0.09021   0.10091   0.10123   0.14812
 Alpha virt. eigenvalues --    0.19004   0.20674   0.20732   0.23352   0.26479

  Beta  occ. eigenvalues --  -14.35294 -10.27427 -10.25575  -0.92763  -0.73938
  Beta  occ. eigenvalues --   -0.39709  -0.38901  -0.38847
  Beta virt. eigenvalues --   -0.22816  -0.13759  -0.13699   0.01128   0.04853
  Beta virt. eigenvalues --    0.04989   0.05161   0.08771   0.09248   0.09583
  Beta virt. eigenvalues --    0.11973   0.12125   0.15568   0.19693   0.21686

 Mulliken charges and spin densities:
               1          2
     1  N   -0.794061   0.940748
     2  C    0.660766  -0.454908
     3  C    0.133295   2.514159
 Sum of Mulliken charges =  -0.00000   3.00000

 Dipole moment (field-independent basis, Debye):
    X=              2.1961    Y=              1.1501    Z=              0.0000  Tot=              2.4790
 Quadrupole moment (field-independent basis, Debye-Ang):
   XX=            -16.9736   YY=            -16.8401   ZZ=            -16.5611
   XY=             -0.3986   XZ=              0.0000   YZ=              0.0000

  Exact polarizability:  37.997   9.736  23.643   0.000  -0.000  18.648
 Approx polarizability:  69.831  23.540  36.297  -0.000  -0.000  23.936

                      1                      2                      3
                     A'                     A'                     A'
 Frequencies --    429.2208              1292.0781              1838.5439
 Red. masses --     12.2858                12.5566                12.5729
 Frc consts  --      1.3336                12.3509                25.0400
 IR Inten    --      1.2945                 0.4266                21.8767

 - Thermochemistry -
 -------------------
 Temperature   298.150 Kelvin.  Pressure   1.00000 Atm.
 Atom     1 has atomic number  7 and mass  14.00307

 Molecular mass:    38.00307 amu.
 Principal axes and moments of inertia in atomic units:
                           1         2         3
     Eigenvalues --     0.21776 141.32429 141.54204
           X            0.89254  -0.45096   0.00000
           Y            0.45096   0.89254   0.00000
           Z            0.00000   0.00000   1.00000
 This molecule is an asymmetric top.
 Rotational symmetry number  1.
 Rotational temperatures (Kelvin)    397.75356     0.61287     0.61193
 Rotational constants (GHZ):        8287.84925    12.77021    12.75057
 Zero-point vibrational energy      21292.6 (Joules/Mol)
                                    5.08905 (Kcal/Mol)
 Warning -- explicit consideration of   1 degrees of freedom as
           vibrations may cause significant error
 Vibrational temperatures:    617.55  1859.01  2645.25
          (Kelvin)

 Zero-point correction=                           0.008110 (Hartree/Particle)
 Thermal correction to Energy=                    0.011237
 Thermal correction to Enthalpy=                  0.012181
 Thermal correction to Gibbs Free Energy=        -0.014716
 Sum of electronic and zero-point Energies=           -130.746144
 Sum of electronic and thermal Energies=              -130.743017
 Sum of electronic and thermal Enthalpies=            -130.742072
 Sum of electronic and thermal Free Energies=         -130.768970

                     E (Thermal)             CV                S
                      KCal/Mol        Cal/Mol-Kelvin    Cal/Mol-Kelvin
 Total                    7.051              7.542             56.610
 Electronic               0.000              0.000              2.755
 Translational            0.889              2.981             36.834
 Rotational               0.889              2.981             16.129
 Vibrational              5.274              1.581              0.892
 Vibration     1          0.791              1.407              0.861

 Normal termination of Gaussian 09 at Tue Aug 16 17:40:09 2016.
