 Gaussian 09, Revision E.01,
 Gaussian 09:  EM64L-G09RevE.01 30-Nov-2015

 ---------------------------------------------
 #p b3lyp/6-311++G(3df,2p) freq symmetry=Loose
 ---------------------------------------------

 ---------
 b3lyp opt
 ---------
 Symbolic Z-matrix:
 Charge =  0 Multiplicity = 2

                         Standard orientation:
 ---------------------------------------------------------------------
 Center     Atomic      Atomic             Coordinates (Angstroms)
 Number     Number       Type             X           Y           Z
 ---------------------------------------------------------------------
      1          6           0       -0.000000    0.788803   -0.380294
      2          6           0       -0.000000   -0.788803   -0.380294
      3          7           0        0.000000   -0.000000    0.651932
 ---------------------------------------------------------------------

 SCF Done:  E(UB3LYP) =  -130.775314000     A.U. after   11 cycles

 The electronic state is 2-A1.
 Alpha  occ. eigenvalues --  -14.42364 -10.31377 -10.31360  -1.11423  -0.65063
 Alpha  occ. eigenvalues --   -0.59147  -0.48129  -0.41421  -0.33325  -0.30698
 Alpha virt. eigenvalues --   -0.10429  -0.07546   0.02370   0.02653   0.04669
 Alpha virt. eigenvalues --    0.05424   0.07464   0.08931   0.10519   0.10700
 Alpha virt. eigenvalues --    0.12877   0.14840   0.15645   0.20182   0.21152

  Beta  occ. eigenvalues --  -14.41854 -10.30628 -10.30618  -1.10339  -0.62168
  Beta  occ. eigenvalues --   -0.55480  -0.47563  -0.38915  -0.32014
  Beta virt. eigenvalues --   -0.18069  -0.09387  -0.06764   0.02600   0.03397
  Beta virt. eigenvalues --    0.04827   0.05502   0.08257   0.09192   0.10619
  Beta virt. eigenvalues --    0.13249   0.13862   0.14910   0.15776   0.20467

 Mulliken charges and spin densities:
               1          2
     1  C    0.121917   0.433620
     2  C    0.121917   0.433620
     3  N   -0.243834   0.132760
 Sum of Mulliken charges =   0.00000   1.00000

 Dipole moment (field-independent basis, Debye):
    X=             -0.0000    Y=              0.0000    Z=              0.8087  Tot=              0.8087
 Quadrupole moment (field-independent basis, Debye-Ang):
   XX=            -15.6736   YY=            -18.9243   ZZ=            -18.9909
   XY=             -0.0000   XZ=             -0.0000   YZ=             -0.0000

  Exact polarizability:  20.009   0.000  35.587   0.000  -0.000  23.834
 Approx polarizability:  30.582   0.000  51.724   0.000   0.000  38.921

                      1                      2                      3
                     A1                     B2                     A1
 Frequencies --    668.1914               894.3410              1606.7209
 Red. masses --     12.2805                12.7036                12.8685
 Frc consts  --      3.2305                 5.9867                19.5731
 IR Inten    --      0.3917                35.8084                37.0165

 - Thermochemistry -
 -------------------
 Temperature   298.150 Kelvin.  Pressure   1.00000 Atm.
 Atom     1 has atomic number  6 and mass  12.00000

 Molecular mass:    38.00307 amu.
 Principal axes and moments of inertia in atomic units:
                           1         2         3
     Eigenvalues --    33.64831  53.32693  86.97524
           X            0.00000   0.00000   1.00000
           Y            1.00000   0.00000  -0.00000
           Z           -0.00000   1.00000   0.00000
 This molecule is an asymmetric top.
 Rotational symmetry number  2.
 Rotational temperatures (Kelvin)      2.57409     1.62420     0.99584
 Rotational constants (GHZ):          53.63542    33.84296    20.75006
 Zero-point vibrational energy      18956.3 (Joules/Mol)
                                    4.53068 (Kcal/Mol)
 Vibrational temperatures:    961.38  1286.76  2311.71
          (Kelvin)

 Zero-point correction=                           0.007220 (Hartree/Particle)
 Thermal correction to Energy=                    0.010237
 Thermal correction to Enthalpy=                  0.011181
 Thermal correction to Gibbs Free Energy=        -0.015908
 Sum of electronic and zero-point Energies=           -130.768094
 Sum of electronic and thermal Energies=              -130.765077
 Sum of electronic and thermal Enthalpies=            -130.764133
 Sum of electronic and thermal Free Energies=         -130.791222

                     E (Thermal)             CV                S
                      KCal/Mol        Cal/Mol-Kelvin    Cal/Mol-Kelvin
 Total                    6.424              7.412             57.015
 Electronic               0.000              0.000              1.377
 Translational            0.889              2.981             36.834
 Rotational               0.889              2.981             18.307
 Vibrational              4.646              1.450              0.496

 Optimization completed.
    -- Stationary point found.
 Normal termination of Gaussian 09 at Tue Aug 16 17:38:44 2016.
