 Gaussian 09, Revision E.01,
 Gaussian 09:  EM64L-G09RevE.01 30-Nov-2015

 ---------------------------------------------
 #p b3lyp/6-311++G(3df,2p) freq symmetry=Loose
 ---------------------------------------------

 ---------
 b3lyp opt
 ---------
 Symbolic Z-matrix:
 Charge =  0 Multiplicity = 2

                         Standard orientation:
 ---------------------------------------------------------------------
 Center     Atomic      Atomic             Coordinates (Angstroms)
 Number     Number       Type             X           Y           Z
 ---------------------------------------------------------------------
      1          6           0       -1.676021    0.049963    0.000059
      2          6           0       -0.373316   -0.054994   -0.000119
      3          6           0        0.992067    0.683282    0.000020
      4          7           0        0.906231   -0.581358    0.000034
 ---------------------------------------------------------------------

 SCF Done:  E(UB3LYP) =  -168.830778546     A.U. after   15 cycles

 The electronic state is 2-A.
 Alpha  occ. eigenvalues --  -14.44084 -10.31011 -10.30990 -10.28092  -1.11243
 Alpha  occ. eigenvalues --   -0.82161  -0.60348  -0.57723  -0.50590  -0.38798
 Alpha  occ. eigenvalues --   -0.34844  -0.33742  -0.33337
 Alpha virt. eigenvalues --   -0.13059  -0.08259  -0.02747   0.00840   0.03885
 Alpha virt. eigenvalues --    0.04950   0.05003   0.06267   0.07768   0.09027
 Alpha virt. eigenvalues --    0.09518   0.12174   0.12188   0.13759   0.14944

  Beta  occ. eigenvalues --  -14.43753 -10.30955 -10.30611 -10.27260  -1.10553
  Beta  occ. eigenvalues --   -0.78807  -0.59964  -0.57108  -0.47678  -0.38433
  Beta  occ. eigenvalues --   -0.33392  -0.33154
  Beta virt. eigenvalues --   -0.21556  -0.12373  -0.07215   0.01061   0.01498
  Beta virt. eigenvalues --    0.03989   0.04991   0.05754   0.06355   0.07849
  Beta virt. eigenvalues --    0.09689   0.09724   0.12448   0.12472   0.13781

 Mulliken charges and spin densities:
               1          2
     1  C   -0.348444   0.493222
     2  C    0.871921   0.309765
     3  C   -0.086240   0.044483
     4  N   -0.437236   0.152530
 Sum of Mulliken charges =  -0.00000   1.00000

 Dipole moment (field-independent basis, Debye):
    X=              1.0371    Y=             -0.4930    Z=             -0.0005  Tot=              1.1483
 Quadrupole moment (field-independent basis, Debye-Ang):
   XX=            -27.7686   YY=            -24.7246   ZZ=            -21.2968
   XY=              0.1043   XZ=              0.0008   YZ=              0.0000

  Exact polarizability:  60.433   2.592  31.757   0.003  -0.000  28.362
 Approx polarizability: 127.562   4.350  50.537   0.000  -0.000  39.387

                      1                      2                      3
                      A                      A                      A
 Frequencies --    222.7413               292.6176               582.6881
 Red. masses --     12.1107                12.1198                12.2029
 Frc consts  --      0.3540                 0.6114                 2.4411
 IR Inten    --      8.5608                37.7378                35.6173

                      4                      5                      6
                      A                      A                      A
 Frequencies --    870.2341              1458.2504              1803.9636
 Red. masses --     13.0430                12.4878                12.3403
 Frc consts  --      5.8197                15.6459                23.6608
 IR Inten    --      8.5829                78.6172                74.7841

 - Thermochemistry -
 -------------------
 Temperature   298.150 Kelvin.  Pressure   1.00000 Atm.
 Atom     1 has atomic number  6 and mass  12.00000

 Molecular mass:    50.00307 amu.
 Principal axes and moments of inertia in atomic units:
                           1         2         3
     Eigenvalues --    37.14428 209.59065 246.73492
           X            1.00000   0.00003  -0.00000
           Y           -0.00003   1.00000   0.00000
           Z            0.00000  -0.00000   1.00000
 This molecule is an asymmetric top.
 Rotational symmetry number  1.
 Rotational temperatures (Kelvin)      2.33182     0.41325     0.35104
 Rotational constants (GHZ):          48.58733     8.61079     7.31449
 Zero-point vibrational energy      31285.3 (Joules/Mol)
                                    7.47737 (Kcal/Mol)
 Warning -- explicit consideration of   3 degrees of freedom as
           vibrations may cause significant error
 Vibrational temperatures:    320.47   421.01   838.36  1252.07  2098.09
          (Kelvin)           2595.50

 Zero-point correction=                           0.011916 (Hartree/Particle)
 Thermal correction to Energy=                    0.015941
 Thermal correction to Enthalpy=                  0.016885
 Thermal correction to Gibbs Free Energy=        -0.014121
 Sum of electronic and zero-point Energies=           -168.818863
 Sum of electronic and thermal Energies=              -168.814837
 Sum of electronic and thermal Enthalpies=            -168.813893
 Sum of electronic and thermal Free Energies=         -168.844899

                     E (Thermal)             CV                S
                      KCal/Mol        Cal/Mol-Kelvin    Cal/Mol-Kelvin
 Total                   10.003             11.178             65.258
 Electronic               0.000              0.000              1.377
 Translational            0.889              2.981             37.652
 Rotational               0.889              2.981             22.179
 Vibrational              8.226              5.216              4.050
 Vibration     1          0.648              1.806              1.937
 Vibration     2          0.688              1.687              1.459
 Vibration     3          0.940              1.069              0.480

 Optimization completed.
    -- Stationary point found.
 Normal termination of Gaussian 09 at Tue Aug 16 17:46:29 2016.
