 Gaussian 09, Revision E.01,
 Gaussian 09:  EM64L-G09RevE.01 30-Nov-2015

 ---------------------------------------------
 #p b3lyp/6-311++G(3df,2p) freq symmetry=Loose
 ---------------------------------------------

 ---------
 b3lyp opt
 ---------
 Symbolic Z-matrix:
 Charge =  0 Multiplicity = 2

                         Standard orientation:
 ---------------------------------------------------------------------
 Center     Atomic      Atomic             Coordinates (Angstroms)
 Number     Number       Type             X           Y           Z
 ---------------------------------------------------------------------
      1          6           0        0.137618   -0.649095    0.000000
      2          6           0       -0.064205   -1.903901    0.000000
      3          6           0       -0.073413    1.816540    0.000000
      4          7           0        0.000000    0.631248    0.000000
 ---------------------------------------------------------------------

 SCF Done:  E(UB3LYP) =  -168.871328633     A.U. after   20 cycles

 The electronic state is 2-A'.
 Alpha  occ. eigenvalues --  -14.43838 -10.29625 -10.29247 -10.26709  -1.05003
 Alpha  occ. eigenvalues --   -0.85721  -0.75629  -0.49908  -0.48876  -0.38037
 Alpha  occ. eigenvalues --   -0.36450  -0.33867  -0.32393
 Alpha virt. eigenvalues --   -0.09927  -0.08618  -0.00758   0.02871   0.03609
 Alpha virt. eigenvalues --    0.04170   0.04929   0.05736   0.06557   0.09225
 Alpha virt. eigenvalues --    0.11079   0.11399   0.12729   0.13263   0.16475

  Beta  occ. eigenvalues --  -14.43825 -10.29028 -10.29017 -10.25894  -1.04491
  Beta  occ. eigenvalues --   -0.83818  -0.73757  -0.48707  -0.47820  -0.37343
  Beta  occ. eigenvalues --   -0.33148  -0.31540
  Beta virt. eigenvalues --   -0.23234  -0.08100  -0.06970  -0.00306   0.03719
  Beta virt. eigenvalues --    0.03818   0.04267   0.05871   0.05991   0.06755
  Beta virt. eigenvalues --    0.09650   0.11687   0.11758   0.12902   0.13412

 Mulliken charges and spin densities:
               1          2
     1  C    0.874766   0.379016
     2  C   -0.442917   0.485106
     3  C    0.103755   0.132644
     4  N   -0.535603   0.003234
 Sum of Mulliken charges =  -0.00000   1.00000

 Dipole moment (field-independent basis, Debye):
    X=              0.6200    Y=              0.3926    Z=              0.0000  Tot=              0.7339
 Quadrupole moment (field-independent basis, Debye-Ang):
   XX=            -21.3955   YY=            -30.8737   ZZ=            -22.6738
   XY=             -1.0731   XZ=             -0.0000   YZ=             -0.0000

  Exact polarizability:  27.765  -1.242  93.162  -0.000  -0.000  35.879
 Approx polarizability:  40.300   4.635 165.890  -0.000  -0.000  39.101

                      1                      2                      3
                     A'                     A"                     A'
 Frequencies --    209.4210               324.3025               414.0600
 Red. masses --     12.5352                13.2460                12.6667
 Frc consts  --      0.3239                 0.8208                 1.2795
 IR Inten    --     19.7672                 5.3223                60.9517

                      4                      5                      6
                     A'                     A'                     A'
 Frequencies --    948.0192              1718.8964              2069.6726
 Red. masses --     12.2270                12.0001                13.0946
 Frc consts  --      6.4745                20.8897                33.0481
 IR Inten    --     15.3972               324.6717               539.4737

 - Thermochemistry -
 -------------------
 Temperature   298.150 Kelvin.  Pressure   1.00000 Atm.
 Atom     1 has atomic number  6 and mass  12.00000

 Molecular mass:    50.00307 amu.
 Principal axes and moments of inertia in atomic units:
                           1         2         3
     Eigenvalues --     1.16363 334.77732 335.94096
           X           -0.01290   0.99992   0.00000
           Y            0.99992   0.01290   0.00000
           Z           -0.00000   0.00000   1.00000
 This molecule is an asymmetric top.
 Rotational symmetry number  1.
 Rotational temperatures (Kelvin)     74.43392     0.25872     0.25782
 Rotational constants (GHZ):        1550.95311     5.39087     5.37220
 Zero-point vibrational energy      34000.1 (Joules/Mol)
                                    8.12622 (Kcal/Mol)
 Warning -- explicit consideration of   3 degrees of freedom as
           vibrations may cause significant error
 Vibrational temperatures:    301.31   466.60   595.74  1363.99  2473.11
          (Kelvin)           2977.79

 Zero-point correction=                           0.012950 (Hartree/Particle)
 Thermal correction to Energy=                    0.017063
 Thermal correction to Enthalpy=                  0.018007
 Thermal correction to Gibbs Free Energy=        -0.011884
 Sum of electronic and zero-point Energies=           -168.858379
 Sum of electronic and thermal Energies=              -168.854266
 Sum of electronic and thermal Enthalpies=            -168.853322
 Sum of electronic and thermal Free Energies=         -168.883212

                     E (Thermal)             CV                S
                      KCal/Mol        Cal/Mol-Kelvin    Cal/Mol-Kelvin
 Total                   10.707             11.336             62.909
 Electronic               0.000              0.000              1.377
 Translational            0.889              2.981             37.652
 Rotational               0.889              2.981             19.509
 Vibrational              8.929              5.374              4.370
 Vibration     1          0.642              1.826              2.049
 Vibration     2          0.709              1.627              1.288
 Vibration     3          0.778              1.440              0.912

 Optimization completed.
    -- Stationary point found.
 Normal termination of Gaussian 09 at Tue Aug 16 17:44:51 2016.
