 Gaussian 09, Revision E.01,
 Gaussian 09:  EM64L-G09RevE.01 30-Nov-2015

 ---------------------------------------------
 #p b3lyp/6-311++G(3df,2p) freq symmetry=Loose
 ---------------------------------------------

 ---------
 b3lyp opt
 ---------
 Symbolic Z-matrix:
 Charge =  0 Multiplicity = 4

                         Standard orientation:
 ---------------------------------------------------------------------
 Center     Atomic      Atomic             Coordinates (Angstroms)
 Number     Number       Type             X           Y           Z
 ---------------------------------------------------------------------
      1          7           0        0.835366   -1.293841    0.000000
      2          6           0        0.113591   -0.189704    0.000000
      3          6           0        0.000000    1.299801   -0.000000
      4          6           0       -1.088185    0.399384    0.000000
 ---------------------------------------------------------------------

 SCF Done:  E(UB3LYP) =  -168.769845663     A.U. after   17 cycles

 The electronic state is 4-A".
 Alpha  occ. eigenvalues --  -14.42919 -10.29989 -10.29884 -10.27676  -1.00651
 Alpha  occ. eigenvalues --   -0.92839  -0.58005  -0.52523  -0.47579  -0.45131
 Alpha  occ. eigenvalues --   -0.40113  -0.35665  -0.33891  -0.26027
 Alpha virt. eigenvalues --   -0.07894  -0.02505   0.00879   0.03467   0.03969
 Alpha virt. eigenvalues --    0.04887   0.07629   0.08626   0.08732   0.09569
 Alpha virt. eigenvalues --    0.10620   0.12728   0.14992   0.15474   0.16343

  Beta  occ. eigenvalues --  -14.39709 -10.29971 -10.28084 -10.26886  -0.97215
  Beta  occ. eigenvalues --   -0.86198  -0.53214  -0.47167  -0.43467  -0.40235
  Beta  occ. eigenvalues --   -0.30162
  Beta virt. eigenvalues --   -0.22181  -0.20743  -0.11704  -0.04517   0.00905
  Beta virt. eigenvalues --    0.01653   0.04017   0.04377   0.05950   0.08001
  Beta virt. eigenvalues --    0.08877   0.09191   0.09907   0.11194   0.13665

 Mulliken charges and spin densities:
               1          2
     1  N   -0.559176   1.594816
     2  C    0.448053  -0.236621
     3  C   -0.179634   0.381441
     4  C    0.290756   1.260364
 Sum of Mulliken charges =  -0.00000   3.00000

 Dipole moment (field-independent basis, Debye):
    X=             -1.0861    Y=             -0.6306    Z=              0.0000  Tot=              1.2559
 Quadrupole moment (field-independent basis, Debye-Ang):
   XX=            -22.9384   YY=            -28.2468   ZZ=            -21.1712
   XY=              0.4535   XZ=              0.0000   YZ=              0.0000

  Exact polarizability:  41.284  -9.543  56.694   0.000   0.000  26.872
 Approx polarizability:  73.043 -24.091 100.296   0.000  -0.000  39.001

                      1                      2                      3
                     A'                     A"                     A'
 Frequencies --    383.0739               420.9162               754.9921
 Red. masses --     12.4382                12.2620                12.4566
 Frc consts  --      1.0754                 1.2800                 4.1835
 IR Inten    --      8.7921                15.6106                 3.6057

                      4                      5                      6
                     A'                     A'                     A'
 Frequencies --    925.6773              1218.2156              1392.4388
 Red. masses --     12.5231                12.2945                12.0083
 Frc consts  --      6.3224                10.7500                13.7178
 IR Inten    --    114.0875                24.6827               301.3244

 - Thermochemistry -
 -------------------
 Temperature   298.150 Kelvin.  Pressure   1.00000 Atm.
 Atom     1 has atomic number  7 and mass  14.00307

 Molecular mass:    50.00307 amu.
 Principal axes and moments of inertia in atomic units:
                           1         2         3
     Eigenvalues --    41.98084 208.69954 250.68039
           X           -0.51496   0.85721   0.00000
           Y            0.85721   0.51496   0.00000
           Z           -0.00000  -0.00000   1.00000
 This molecule is an asymmetric top.
 Rotational symmetry number  1.
 Rotational temperatures (Kelvin)      2.06317     0.41502     0.34551
 Rotational constants (GHZ):          42.98964     8.64756     7.19937
 Zero-point vibrational energy      30476.7 (Joules/Mol)
                                    7.28412 (Kcal/Mol)
 Warning -- explicit consideration of   2 degrees of freedom as
           vibrations may cause significant error
 Vibrational temperatures:    551.16   605.60  1086.26  1331.84  1752.74
          (Kelvin)           2003.41

 Zero-point correction=                           0.011608 (Hartree/Particle)
 Thermal correction to Energy=                    0.015221
 Thermal correction to Enthalpy=                  0.016165
 Thermal correction to Gibbs Free Energy=        -0.014749
 Sum of electronic and zero-point Energies=           -168.758238
 Sum of electronic and thermal Energies=              -168.754625
 Sum of electronic and thermal Enthalpies=            -168.753681
 Sum of electronic and thermal Free Energies=         -168.784595

                     E (Thermal)             CV                S
                      KCal/Mol        Cal/Mol-Kelvin    Cal/Mol-Kelvin
 Total                    9.551             10.388             65.065
 Electronic               0.000              0.000              2.755
 Translational            0.889              2.981             37.652
 Rotational               0.889              2.981             22.312
 Vibrational              7.774              4.427              2.346
 Vibration     1          0.752              1.506              1.027
 Vibration     2          0.783              1.425              0.889

 Normal termination of Gaussian 09 at Tue Aug 16 17:49:53 2016.
