 Gaussian 09, Revision E.01,
 Gaussian 09:  EM64L-G09RevE.01 30-Nov-2015

 ---------------------------------------------
 #p b3lyp/6-311++G(3df,2p) freq symmetry=Loose
 ---------------------------------------------

 ---------
 b3lyp opt
 ---------
 Symbolic Z-matrix:
 Charge =  0 Multiplicity = 2

                         Standard orientation:
 ---------------------------------------------------------------------
 Center     Atomic      Atomic             Coordinates (Angstroms)
 Number     Number       Type             X           Y           Z
 ---------------------------------------------------------------------
      1          6           0       -0.000000    0.000000    2.180616
      2          6           0       -0.000000    0.680421   -1.513891
      3          6           0        0.000000   -0.000000   -0.320285
      4          6           0        0.000000   -0.680421   -1.513891
      5          7           0       -0.000000    0.000000    1.000672
 ---------------------------------------------------------------------

 SCF Done:  E(UB3LYP) =  -206.956420121     A.U. after   13 cycles

 The electronic state is 2-B2.
 Alpha  occ. eigenvalues --  -14.42558 -10.34685 -10.29160 -10.26107 -10.26037
 Alpha  occ. eigenvalues --   -1.05087  -0.98107  -0.80202  -0.56989  -0.50210
 Alpha  occ. eigenvalues --   -0.49397  -0.43970  -0.39678  -0.37735  -0.32792
 Alpha  occ. eigenvalues --   -0.29011
 Alpha virt. eigenvalues --   -0.12108  -0.04863  -0.04850   0.00780   0.01914
 Alpha virt. eigenvalues --    0.03282   0.03481   0.04080   0.05779   0.07620
 Alpha virt. eigenvalues --    0.07658   0.09787   0.10519   0.10784   0.10904

  Beta  occ. eigenvalues --  -14.42656 -10.34163 -10.28978 -10.25375 -10.25301
  Beta  occ. eigenvalues --   -1.04737  -0.97502  -0.79694  -0.54693  -0.50041
  Beta  occ. eigenvalues --   -0.46228  -0.42689  -0.39274  -0.37254  -0.29781
  Beta virt. eigenvalues --   -0.18248  -0.11488  -0.03555  -0.03498   0.00946
  Beta virt. eigenvalues --    0.02158   0.03469   0.03707   0.04127   0.05826
  Beta virt. eigenvalues --    0.07730   0.08092   0.09990   0.10620   0.11154

 Mulliken charges and spin densities:
               1          2
     1  C    0.090983   0.109324
     2  C   -0.103162   0.359302
     3  C    0.664503   0.210766
     4  C   -0.103162   0.359302
     5  N   -0.549163  -0.038695
 Sum of Mulliken charges =   0.00000   1.00000

 Dipole moment (field-independent basis, Debye):
    X=             -0.0000    Y=              0.0000    Z=              0.1386  Tot=              0.1386
 Quadrupole moment (field-independent basis, Debye-Ang):
   XX=            -26.6355   YY=            -30.6989   ZZ=            -34.8566
   XY=              0.0000   XZ=              0.0000   YZ=              0.0000

  Exact polarizability:  31.708   0.000  55.140   0.000  -0.000  75.454
 Approx polarizability:  47.123  -0.000  86.092  -0.000   0.000 128.746

                      1                      2                      3
                     B2                     B1                     B2
 Frequencies --    185.4391               185.7661               499.8626
 Red. masses --     12.5301                12.8005                12.6836
 Frc consts  --      0.2539                 0.2603                 1.8672
 IR Inten    --     13.9741                 6.1899                22.4860

                      4                      5                      6
                     B1                     B2                     A1
 Frequencies --    526.0361               728.1720               771.9509
 Red. masses --     12.4025                12.0006                12.3562
 Frc consts  --      2.0220                 3.7490                 4.3383
 IR Inten    --     13.0605               426.2601                 0.0018

                      7                      8                      9
                     A1                     A1                     A1
 Frequencies --   1295.9930              1687.1615              2119.8603
 Red. masses --     12.0220                12.0000                13.0446
 Frc consts  --     11.8968                20.1254                34.5379
 IR Inten    --     68.0459                40.8411               400.4578

 - Thermochemistry -
 -------------------
 Temperature   298.150 Kelvin.  Pressure   1.00000 Atm.
 Atom     1 has atomic number  6 and mass  12.00000

 Molecular mass:    62.00307 amu.
 Principal axes and moments of inertia in atomic units:
                           1         2         3
     Eigenvalues --    39.67932 454.66357 494.34289
           X           -0.00000   0.00000   1.00000
           Y            0.00000   1.00000  -0.00000
           Z            1.00000  -0.00000   0.00000
 This molecule is an asymmetric top.
 Rotational symmetry number  2.
 Rotational temperatures (Kelvin)      2.18285     0.19050     0.17521
 Rotational constants (GHZ):          45.48316     3.96940     3.65079
 Zero-point vibrational energy      47852.1 (Joules/Mol)
                                   11.43692 (Kcal/Mol)
 Warning -- explicit consideration of   4 degrees of freedom as
           vibrations may cause significant error
 Vibrational temperatures:    266.81   267.28   719.19   756.85  1047.68
          (Kelvin)           1110.66  1864.64  2427.45  3050.00

 Zero-point correction=                           0.018226 (Hartree/Particle)
 Thermal correction to Energy=                    0.022858
 Thermal correction to Enthalpy=                  0.023802
 Thermal correction to Gibbs Free Energy=        -0.008665
 Sum of electronic and zero-point Energies=           -206.938194
 Sum of electronic and thermal Energies=              -206.933562
 Sum of electronic and thermal Enthalpies=            -206.932618
 Sum of electronic and thermal Free Energies=         -206.965086

                     E (Thermal)             CV                S
                      KCal/Mol        Cal/Mol-Kelvin    Cal/Mol-Kelvin
 Total                   14.344             13.794             68.334
 Electronic               0.000              0.000              1.377
 Translational            0.889              2.981             38.293
 Rotational               0.889              2.981             22.327
 Vibrational             12.566              7.832              6.337
 Vibration     1          0.632              1.860              2.273
 Vibration     2          0.632              1.859              2.270
 Vibration     3          0.855              1.250              0.658
 Vibration     4          0.881              1.192              0.596

 Optimization completed.
    -- Stationary point found.
 Normal termination of Gaussian 09 at Tue Aug 16 17:59:15 2016.
