 Gaussian 09, Revision E.01,
 Gaussian 09:  EM64L-G09RevE.01 30-Nov-2015

 ---------------------------------------------
 #p b3lyp/6-311++G(3df,2p) freq symmetry=Loose
 ---------------------------------------------

 ---------
 b3lyp opt
 ---------
 Symbolic Z-matrix:
 Charge =  0 Multiplicity = 4

                         Standard orientation:
 ---------------------------------------------------------------------
 Center     Atomic      Atomic             Coordinates (Angstroms)
 Number     Number       Type             X           Y           Z
 ---------------------------------------------------------------------
      1          6           0        0.822802   -0.793275    0.000000
      2          6           0       -0.674843   -0.870277    0.000000
      3          6           0       -0.000000    0.777429   -0.000000
      4          6           0        1.304007    0.476149   -0.000000
      5          7           0       -1.244542    0.351407    0.000000
 ---------------------------------------------------------------------

 SCF Done:  E(UB3LYP) =  -206.847591293     A.U. after   16 cycles

 The electronic state is 4-A".
 Alpha  occ. eigenvalues --  -14.39294 -10.33769 -10.32044 -10.28663 -10.25626
 Alpha  occ. eigenvalues --   -1.09039  -0.89995  -0.72719  -0.59310  -0.56184
 Alpha  occ. eigenvalues --   -0.50906  -0.48321  -0.37769  -0.33186  -0.31219
 Alpha  occ. eigenvalues --   -0.28976  -0.28237
 Alpha virt. eigenvalues --   -0.08582  -0.03370   0.00070   0.01074   0.04479
 Alpha virt. eigenvalues --    0.04591   0.04706   0.06390   0.06925   0.07966
 Alpha virt. eigenvalues --    0.09016   0.09283   0.12125   0.13237   0.14568

  Beta  occ. eigenvalues --  -14.39203 -10.32894 -10.29788 -10.26900 -10.24481
  Beta  occ. eigenvalues --   -1.07633  -0.88526  -0.67767  -0.56346  -0.52713
  Beta  occ. eigenvalues --   -0.47297  -0.43967  -0.32825  -0.31414
  Beta virt. eigenvalues --   -0.16911  -0.15762  -0.13683  -0.05551   0.01032
  Beta virt. eigenvalues --    0.01403   0.04006   0.05075   0.05610   0.05833
  Beta virt. eigenvalues --    0.06834   0.07263   0.08194   0.09452   0.09666

 Mulliken charges and spin densities:
               1          2
     1  C    0.075440   0.901506
     2  C    0.177927   1.299368
     3  C    0.479381   0.400209
     4  C   -0.087865   0.493134
     5  N   -0.644882  -0.094217
 Sum of Mulliken charges =  -0.00000   3.00000

 Dipole moment (field-independent basis, Debye):
    X=              0.0064    Y=             -0.0568    Z=              0.0000  Tot=              0.0572
 Quadrupole moment (field-independent basis, Debye-Ang):
   XX=            -32.5984   YY=            -26.9965   ZZ=            -27.9730
   XY=              0.4894   XZ=              0.0000   YZ=              0.0000

  Exact polarizability:  61.450   5.103  48.580   0.000  -0.000  29.752
 Approx polarizability: 123.757   8.653  99.547  -0.000  -0.000  43.257

                      1                      2                      3
                     A"                     A'                     A"
 Frequencies --    408.4820               439.8796               606.9660
 Red. masses --     12.1878                12.1894                12.3747
 Frc consts  --      1.1982                 1.3896                 2.6860
 IR Inten    --      0.1145                27.0849                 0.4107

                      4                      5                      6
                     A'                     A'                     A'
 Frequencies --    674.8320               888.5584               969.8081
 Red. masses --     12.4011                12.8344                12.0052
 Frc consts  --      3.3274                 5.9703                 6.6526
 IR Inten    --      0.7184                 5.3051                16.8054

                      7                      8                      9
                     A'                     A'                     A'
 Frequencies --   1073.3236              1351.9261              1606.9351
 Red. masses --     12.2154                12.4114                12.2137
 Frc consts  --      8.2912                13.3652                18.5821
 IR Inten    --      0.8724                41.9353               104.9834

 - Thermochemistry -
 -------------------
 Temperature   298.150 Kelvin.  Pressure   1.00000 Atm.
 Atom     1 has atomic number  6 and mass  12.00000

 Molecular mass:    62.00307 amu.
 Principal axes and moments of inertia in atomic units:
                           1         2         3
     Eigenvalues --   101.17480 198.88710 300.06190
           X            0.99980  -0.01980   0.00000
           Y            0.01980   0.99980   0.00000
           Z           -0.00000  -0.00000   1.00000
 This molecule is an asymmetric top.
 Rotational symmetry number  1.
 Rotational temperatures (Kelvin)      0.85608     0.43549     0.28865
 Rotational constants (GHZ):          17.83785     9.07420     6.01456
 Zero-point vibrational energy      47974.5 (Joules/Mol)
                                   11.46618 (Kcal/Mol)
 Warning -- explicit consideration of   3 degrees of freedom as
           vibrations may cause significant error
 Vibrational temperatures:    587.71   632.89   873.29   970.93  1278.44
          (Kelvin)           1395.34  1544.27  1945.12  2312.02

 Zero-point correction=                           0.018273 (Hartree/Particle)
 Thermal correction to Energy=                    0.022096
 Thermal correction to Enthalpy=                  0.023040
 Thermal correction to Gibbs Free Energy=        -0.008912
 Sum of electronic and zero-point Energies=           -206.829319
 Sum of electronic and thermal Energies=              -206.825495
 Sum of electronic and thermal Enthalpies=            -206.824551
 Sum of electronic and thermal Free Energies=         -206.856504

                     E (Thermal)             CV                S
                      KCal/Mol        Cal/Mol-Kelvin    Cal/Mol-Kelvin
 Total                   13.865             12.099             67.250
 Electronic               0.000              0.000              2.755
 Translational            0.889              2.981             38.293
 Rotational               0.889              2.981             23.317
 Vibrational             12.088              6.137              2.885
 Vibration     1          0.773              1.452              0.932
 Vibration     2          0.800              1.383              0.827
 Vibration     3          0.966              1.017              0.438

 Optimization completed.
    -- Stationary point found.
 Normal termination of Gaussian 09 at Tue Aug 16 18:07:20 2016.
