 Gaussian 09, Revision E.01,
 Gaussian 09:  EM64L-G09RevE.01 30-Nov-2015

 ---------------------------------------------
 #p b3lyp/6-311++G(3df,2p) freq symmetry=Loose
 ---------------------------------------------

 ---------
 b3lyp opt
 ---------
 Symbolic Z-matrix:
 Charge =  0 Multiplicity = 4

                         Standard orientation:
 ---------------------------------------------------------------------
 Center     Atomic      Atomic             Coordinates (Angstroms)
 Number     Number       Type             X           Y           Z
 ---------------------------------------------------------------------
      1          6           0       -1.547816   -0.593317    0.000693
      2          6           0       -0.172077   -0.201808   -0.001414
      3          6           0        1.112821   -0.042919    0.000206
      4          6           0        2.355844    0.091023    0.000356
      5          7           0       -1.498949    0.640303    0.000137
 ---------------------------------------------------------------------

 SCF Done:  E(UB3LYP) =  -206.857461018     A.U. after   17 cycles

 The electronic state is 4-A.
 Alpha  occ. eigenvalues --  -14.40214 -10.29382 -10.28901 -10.27498 -10.23900
 Alpha  occ. eigenvalues --   -1.05662  -0.84020  -0.73614  -0.59620  -0.51884
 Alpha  occ. eigenvalues --   -0.47065  -0.44803  -0.40057  -0.37535  -0.37004
 Alpha  occ. eigenvalues --   -0.27765  -0.23822
 Alpha virt. eigenvalues --   -0.05720  -0.05067   0.01323   0.03185   0.04454
 Alpha virt. eigenvalues --    0.04940   0.05131   0.05180   0.07416   0.09690
 Alpha virt. eigenvalues --    0.09843   0.10092   0.12261   0.13059   0.14122

  Beta  occ. eigenvalues --  -14.39470 -10.27905 -10.26909 -10.25504 -10.24209
  Beta  occ. eigenvalues --   -1.04222  -0.81720  -0.68751  -0.57290  -0.49028
  Beta  occ. eigenvalues --   -0.43874  -0.38103  -0.33775  -0.33192
  Beta virt. eigenvalues --   -0.21610  -0.16176  -0.10754  -0.02861  -0.01568
  Beta virt. eigenvalues --    0.01965   0.03761   0.04836   0.05109   0.05798
  Beta virt. eigenvalues --    0.06612   0.08323   0.10036   0.11033   0.12671

 Mulliken charges and spin densities:
               1          2
     1  C   -0.145942   0.336133
     2  C    0.266324   0.736073
     3  C    0.414208  -0.267585
     4  C   -0.037064   1.901915
     5  N   -0.497527   0.293464
 Sum of Mulliken charges =  -0.00000   3.00000

 Dipole moment (field-independent basis, Debye):
    X=              1.3756    Y=             -0.3154    Z=              0.0004  Tot=              1.4113
 Quadrupole moment (field-independent basis, Debye-Ang):
   XX=            -25.6961   YY=            -29.6266   ZZ=            -27.9110
   XY=              0.7552   XZ=              0.0026   YZ=              0.0007

  Exact polarizability:  96.379   5.986  38.652  -0.007  -0.002  31.153
 Approx polarizability: 184.584  11.303  61.902   0.004  -0.003  42.533

                      1                      2                      3
                      A                      A                      A
 Frequencies --    130.2303               187.0378               348.4885
 Red. masses --     12.0158                12.2089                12.0013
 Frc consts  --      0.1201                 0.2516                 0.8587
 IR Inten    --      0.2061                 0.4686                 0.0500

                      4                      5                      6
                      A                      A                      A
 Frequencies --    369.7420               457.4984               711.6866
 Red. masses --     13.1647                12.0847                12.1050
 Frc consts  --      1.0604                 1.4903                 3.6124
 IR Inten    --      9.8640                 0.4204                 9.3776

                      7                      8                      9
                      A                      A                      A
 Frequencies --   1379.3393              1720.6413              1858.8644
 Red. masses --     12.1626                12.3486                12.2918
 Frc consts  --     13.6338                21.5402                25.0243
 IR Inten    --     24.5160                22.1689                78.1800

 - Thermochemistry -
 -------------------
 Temperature   298.150 Kelvin.  Pressure   1.00000 Atm.
 Atom     1 has atomic number  6 and mass  12.00000

 Molecular mass:    62.00307 amu.
 Principal axes and moments of inertia in atomic units:
                           1         2         3
     Eigenvalues --    37.76640 507.18916 544.95533
           X            1.00000   0.00002   0.00000
           Y           -0.00002   1.00000  -0.00000
           Z           -0.00000   0.00000   1.00000
 This molecule is an asymmetric top.
 Rotational symmetry number  1.
 Rotational temperatures (Kelvin)      2.29341     0.17077     0.15894
 Rotational constants (GHZ):          47.78695     3.55832     3.31172
 Zero-point vibrational energy      42847.4 (Joules/Mol)
                                   10.24078 (Kcal/Mol)
 Warning -- explicit consideration of   5 degrees of freedom as
           vibrations may cause significant error
 Vibrational temperatures:    187.37   269.11   501.40   531.98   658.24
          (Kelvin)           1023.96  1984.56  2475.62  2674.49

 Zero-point correction=                           0.016320 (Hartree/Particle)
 Thermal correction to Energy=                    0.021492
 Thermal correction to Enthalpy=                  0.022436
 Thermal correction to Gibbs Free Energy=        -0.012465
 Sum of electronic and zero-point Energies=           -206.841141
 Sum of electronic and thermal Energies=              -206.835969
 Sum of electronic and thermal Enthalpies=            -206.835025
 Sum of electronic and thermal Free Energies=         -206.869926

                     E (Thermal)             CV                S
                      KCal/Mol        Cal/Mol-Kelvin    Cal/Mol-Kelvin
 Total                   13.486             15.174             73.455
 Electronic               0.000              0.000              2.755
 Translational            0.889              2.981             38.293
 Rotational               0.889              2.981             23.861
 Vibrational             11.709              9.213              8.546
 Vibration     1          0.612              1.923              2.943
 Vibration     2          0.632              1.858              2.257
 Vibration     3          0.726              1.578              1.173
 Vibration     4          0.742              1.534              1.081
 Vibration     5          0.816              1.344              0.773

 Normal termination of Gaussian 09 at Tue Aug 16 18:10:14 2016.
