 Gaussian 09, Revision E.01,
 Gaussian 09:  EM64L-G09RevE.01 30-Nov-2015

 ---------------------------------------------
 #p b3lyp/6-311++G(3df,2p) freq symmetry=Loose
 ---------------------------------------------

 ---------
 b3lyp opt
 ---------
 Symbolic Z-matrix:
 Charge =  0 Multiplicity = 2

                         Standard orientation:
 ---------------------------------------------------------------------
 Center     Atomic      Atomic             Coordinates (Angstroms)
 Number     Number       Type             X           Y           Z
 ---------------------------------------------------------------------
      1          6           0       -0.000000   -0.000000    1.224263
      2          6           0       -0.000000   -0.000000    2.524821
      3          6           0        0.000000    0.000000   -2.524712
      4          6           0        0.000000    0.000000   -1.224318
      5          7           0        0.000000   -0.000000   -0.000046
 ---------------------------------------------------------------------

 SCF Done:  E(UB3LYP) =  -206.901566835     A.U. after   15 cycles

 Unable to determine electronic state:  an orbital has unidentified symmetry.
 Alpha  occ. eigenvalues --  -14.49739 -10.28253 -10.28248 -10.27497 -10.27491
 Alpha  occ. eigenvalues --   -1.08087  -0.87352  -0.79056  -0.74983  -0.53286
 Alpha  occ. eigenvalues --   -0.52318  -0.36244  -0.34831  -0.34467  -0.34236
 Alpha  occ. eigenvalues --   -0.28045
 Alpha virt. eigenvalues --   -0.21496  -0.04175  -0.03051  -0.01859   0.03214
 Alpha virt. eigenvalues --    0.03472   0.03486   0.06068   0.07024   0.07538
 Alpha virt. eigenvalues --    0.07603   0.07824   0.08105   0.12941   0.13565

  Beta  occ. eigenvalues --  -14.49052 -10.28416 -10.28411 -10.26840 -10.26834
  Beta  occ. eigenvalues --   -1.07055  -0.87073  -0.77220  -0.73564  -0.51945
  Beta  occ. eigenvalues --   -0.50819  -0.34125  -0.33609  -0.33279  -0.32999
  Beta virt. eigenvalues --   -0.20599  -0.18529  -0.02806  -0.01752  -0.01523
  Beta virt. eigenvalues --    0.03389   0.03499   0.03761   0.06120   0.07627
  Beta virt. eigenvalues --    0.07639   0.08233   0.08248   0.08710   0.13107

 Mulliken charges and spin densities:
               1          2
     1  C    1.220525  -0.127584
     2  C   -0.702037   0.493233
     3  C   -0.702432   0.493043
     4  C    1.220955  -0.127529
     5  N   -1.037011   0.268837
 Sum of Mulliken charges =  -0.00000   1.00000

 Dipole moment (field-independent basis, Debye):
    X=              0.0000    Y=             -0.0000    Z=              0.0011  Tot=              0.0011
 Quadrupole moment (field-independent basis, Debye-Ang):
   XX=            -28.3200   YY=            -26.6309   ZZ=            -45.5414
   XY=              0.0000   XZ=              0.0000   YZ=              0.0000

  Exact polarizability:  35.254   0.000  34.517   0.000  -0.000 143.937
 Approx polarizability:  48.329   0.000  51.244  -0.000  -0.000 463.601

                      1                      2                      3
                     ?A                     ?A                     ?A
 Frequencies --    131.9315               136.3867               257.3354
 Red. masses --     12.3692                12.7228                12.0000
 Frc consts  --      0.1268                 0.1394                 0.4682
 IR Inten    --     22.1190                14.0315                 0.0001

                      4                      5                      6
                     ?A                     ?A                     ?A
 Frequencies --    334.2826               372.5091               555.3334
 Red. masses --     12.0000                12.6840                13.0562
 Frc consts  --      0.7901                 1.0370                 2.3723
 IR Inten    --      0.0000                 2.7596                 0.1516

                      7                      8                      9
                     SG                     SG                     SG
 Frequencies --    825.5821              1380.7778              1963.8062
 Red. masses --     12.0000                12.3910                12.0028
 Frc consts  --      4.8189                13.9189                27.2728
 IR Inten    --      0.0001               514.4666                 4.2928

                     10
                     SG
 Frequencies --   1968.9902
 Red. masses --     13.0286
 Frc consts  --     29.7601
 IR Inten    --   1491.5758

 - Thermochemistry -
 -------------------
 Temperature   298.150 Kelvin.  Pressure   1.00000 Atm.
 Atom     1 has atomic number  6 and mass  12.00000

 Molecular mass:    62.00307 amu.
 Principal axes and moments of inertia in atomic units:
                           1         2         3
     Eigenvalues --     0.00000 674.78859 674.78859
           X           -0.00000   0.93541   0.35356
           Y           -0.00000  -0.35356   0.93541
           Z            1.00000   0.00000   0.00000
 This molecule is a prolate symmetric top.
 Rotational symmetry number  1.
 Warning -- assumption of classical behavior for rotation
           may cause significant error
 Rotational temperature (Kelvin)      0.12836
 Rotational constant (GHZ):           2.674528
 Zero-point vibrational energy      47413.6 (Joules/Mol)
                                   11.33212 (Kcal/Mol)
 Warning -- explicit consideration of   6 degrees of freedom as
           vibrations may cause significant error
 Vibrational temperatures:    189.82   196.23   370.25   480.96   535.96
          (Kelvin)            799.00  1187.83  1986.63  2825.48  2832.93

 Zero-point correction=                           0.018059 (Hartree/Particle)
 Thermal correction to Energy=                    0.023221
 Thermal correction to Enthalpy=                  0.024166
 Thermal correction to Gibbs Free Energy=        -0.007936
 Sum of electronic and zero-point Energies=           -206.883508
 Sum of electronic and thermal Energies=              -206.878345
 Sum of electronic and thermal Enthalpies=            -206.877401
 Sum of electronic and thermal Free Energies=         -206.909503

                     E (Thermal)             CV                S
                      KCal/Mol        Cal/Mol-Kelvin    Cal/Mol-Kelvin
 Total                   14.572             15.570             67.563
 Electronic               0.000              0.000              1.377
 Translational            0.889              2.981             38.293
 Rotational               0.592              1.987             17.389
 Vibrational             13.090             10.602             10.504
 Vibration     1          0.612              1.921              2.918
 Vibration     2          0.614              1.917              2.854
 Vibration     3          0.667              1.750              1.680
 Vibration     4          0.716              1.607              1.239
 Vibration     5          0.744              1.529              1.069
 Vibration     6          0.911              1.128              0.533

 Optimization completed.
    -- Stationary point found.
 Normal termination of Gaussian 09 at Tue Aug 16 18:01:32 2016.
