 Gaussian 09, Revision E.01,
 Gaussian 09:  EM64L-G09RevE.01 30-Nov-2015

 ---------------------------------------------
 #p b3lyp/6-311++G(3df,2p) freq symmetry=Loose
 ---------------------------------------------

 ---------
 b3lyp opt
 ---------
 Symbolic Z-matrix:
 Charge =  0 Multiplicity = 4

                         Standard orientation:
 ---------------------------------------------------------------------
 Center     Atomic      Atomic             Coordinates (Angstroms)
 Number     Number       Type             X           Y           Z
 ---------------------------------------------------------------------
      1          6           0        0.000000    0.000000   -0.810322
      2          7           0        0.000000    0.000000    0.694561
 ---------------------------------------------------------------------

 SCF Done:  E(UB3LYP) =  -92.5408943302     A.U. after   11 cycles

 Unable to determine electronic state:  an orbital has unidentified symmetry.
 Alpha  occ. eigenvalues --  -14.45460 -10.30123  -0.92613  -0.55962  -0.43154
 Alpha  occ. eigenvalues --   -0.41514  -0.35552  -0.22524
 Alpha virt. eigenvalues --   -0.12648   0.01981   0.04930   0.06318   0.06587
 Alpha virt. eigenvalues --    0.12026   0.13920   0.13959   0.16975   0.21437
 Alpha virt. eigenvalues --    0.29769   0.29930   0.42458   0.42459   0.48147

  Beta  occ. eigenvalues --  -14.41750 -10.28375  -0.81763  -0.48198  -0.32223
  Beta virt. eigenvalues --   -0.23454  -0.20995  -0.05463  -0.02428   0.02581
  Beta virt. eigenvalues --    0.05731   0.07169   0.07919   0.12329   0.15395
  Beta virt. eigenvalues --    0.15834   0.20400   0.23188   0.32378   0.32411

 Mulliken charges and spin densities:
               1          2
     1  C    0.072307   1.150133
     2  N   -0.072307   1.849867
 Sum of Mulliken charges =   0.00000   3.00000

 Dipole moment (field-independent basis, Debye):
    X=              0.0000    Y=              0.0000    Z=              0.5696  Tot=              0.5696
 Quadrupole moment (field-independent basis, Debye-Ang):
   XX=            -10.3637   YY=            -12.0228   ZZ=            -15.1163
   XY=              0.0000   XZ=              0.0000   YZ=              0.0000

  Exact polarizability:   0.722   0.000  24.117   0.000  -0.000  24.357
 Approx polarizability:  24.597  -0.000  20.582  -0.000  -0.000  31.556

                      1
                     SG
 Frequencies --    984.8957
 Red. masses --     12.8481
 Frc consts  --      7.3430
 IR Inten    --     55.5719

 - Thermochemistry -
 -------------------
 Temperature   298.150 Kelvin.  Pressure   1.00000 Atm.
 Atom     1 has atomic number  6 and mass  12.00000

 Molecular mass:    26.00307 amu.
 Principal axes and moments of inertia in atomic units:
                           1         2         3
     Eigenvalues --     0.00000  52.26165  52.26165
           X            0.00000  -0.00000   1.00000
           Y            0.00000   1.00000   0.00000
           Z            1.00000   0.00000   0.00000
 This molecule is a prolate symmetric top.
 Rotational symmetry number  1.
 Rotational temperature (Kelvin)      1.65731
 Rotational constant (GHZ):          34.532799
 Zero-point vibrational energy       5891.0 (Joules/Mol)
                                    1.40798 (Kcal/Mol)
 Vibrational temperatures:   1417.04
          (Kelvin)

 Zero-point correction=                           0.002244 (Hartree/Particle)
 Thermal correction to Energy=                    0.004643
 Thermal correction to Enthalpy=                  0.005587
 Thermal correction to Gibbs Free Energy=        -0.018579
 Sum of electronic and zero-point Energies=            -92.538651
 Sum of electronic and thermal Energies=               -92.536251
 Sum of electronic and thermal Enthalpies=             -92.535307
 Sum of electronic and thermal Free Energies=          -92.559473

                     E (Thermal)             CV                S
                      KCal/Mol        Cal/Mol-Kelvin    Cal/Mol-Kelvin
 Total                    2.914              5.362             50.863
 Electronic               0.000              0.000              2.755
 Translational            0.889              2.981             35.703
 Rotational               0.592              1.987             12.306
 Vibrational              1.432              0.394              0.099

 Optimization completed.
    -- Stationary point found.
 Normal termination of Gaussian 09 at Tue Aug 16 17:37:01 2016.
