 Gaussian 09, Revision E.01,
 Gaussian 09:  EM64L-G09RevE.01 30-Nov-2015

 ---------------------------------------------
 #p b3lyp/6-311++G(3df,2p) freq symmetry=Loose
 ---------------------------------------------

 ---------
 b3lyp opt
 ---------
 Symbolic Z-matrix:
 Charge =  0 Multiplicity = 1

                         Standard orientation:
 ---------------------------------------------------------------------
 Center     Atomic      Atomic             Coordinates (Angstroms)
 Number     Number       Type             X           Y           Z
 ---------------------------------------------------------------------
      1          1           0        0.000000    0.000000    0.371400
      2          1           0        0.000000    0.000000   -0.371400
 ---------------------------------------------------------------------

 SCF Done:  E(RB3LYP) =  -1.18001342260     A.U. after    5 cycles

 The electronic state is 1-SGG.
 Alpha  occ. eigenvalues --   -0.43408
 Alpha virt. eigenvalues --    0.02015   0.03157   0.14490   0.34429   0.49598
 Alpha virt. eigenvalues --    0.49598   0.56688   0.91307   0.92611   0.92611
 Alpha virt. eigenvalues --    1.41972   2.25000   2.42516   3.37577   3.37577

 Mulliken charges:
               1
     1  H   -0.000000
     2  H   -0.000000
 Sum of Mulliken charges =  -0.00000

 Dipole moment (field-independent basis, Debye):
    X=             -0.0000    Y=              0.0000    Z=              0.0000  Tot=              0.0000
 Quadrupole moment (field-independent basis, Debye-Ang):
   XX=             -2.1062   YY=             -2.1062   ZZ=             -1.5331
   XY=             -0.0000   XZ=             -0.0000   YZ=              0.0000

  Exact polarizability:   2.682   0.000   2.682   0.000   0.000   6.867
 Approx polarizability:   2.865  -0.000   2.865  -0.000  -0.000   8.147

                      1
                     SGG
 Frequencies --   4420.4463
 Red. masses --      1.0078
 Frc consts  --     11.6029
 IR Inten    --      0.0000

 - Thermochemistry -
 -------------------
 Temperature   298.150 Kelvin.  Pressure   1.00000 Atm.
 Atom     1 has atomic number  1 and mass   1.00783

 Molecular mass:     2.01565 amu.
 Principal axes and moments of inertia in atomic units:
                           1         2         3
     Eigenvalues --     0.00000   0.99288   0.99288
           X           -0.00000   1.00000  -0.00000
           Y            0.00000   0.00000   1.00000
           Z            1.00000   0.00000  -0.00000
 This molecule is a prolate symmetric top.
 Rotational symmetry number  2.
 Rotational temperature (Kelvin)     87.23494
 Rotational constant (GHZ):        1817.683473
 Zero-point vibrational energy      26440.1 (Joules/Mol)
                                    6.31935 (Kcal/Mol)
 Vibrational temperatures:   6360.03
          (Kelvin)

 Zero-point correction=                           0.010071 (Hartree/Particle)
 Thermal correction to Energy=                    0.012431
 Thermal correction to Enthalpy=                  0.013375
 Thermal correction to Gibbs Free Energy=        -0.001417
 Sum of electronic and zero-point Energies=             -1.169943
 Sum of electronic and thermal Energies=                -1.167582
 Sum of electronic and thermal Enthalpies=              -1.166638
 Sum of electronic and thermal Free Energies=           -1.181430

                     E (Thermal)             CV                S
                      KCal/Mol        Cal/Mol-Kelvin    Cal/Mol-Kelvin
 Total                    7.801              4.968             31.132
 Electronic               0.000              0.000              0.000
 Translational            0.889              2.981             28.080
 Rotational               0.592              1.987              3.052
 Vibrational              6.319              0.000              0.000

 Optimization completed.
    -- Stationary point found.
 Normal termination of Gaussian 09 at Sun Jun 19 05:31:38 2016.
