 Gaussian 09, Revision E.01,
 Gaussian 09:  EM64L-G09RevE.01 30-Nov-2015

 ---------------------------------------------
 #p b3lyp/6-311++G(3df,2p) freq symmetry=Loose
 ---------------------------------------------

 ---------
 b3lyp opt
 ---------
 Symbolic Z-matrix:
 Charge =  1 Multiplicity = 2

                         Standard orientation:
 ---------------------------------------------------------------------
 Center     Atomic      Atomic             Coordinates (Angstroms)
 Number     Number       Type             X           Y           Z
 ---------------------------------------------------------------------
      1          1           0        0.000000    0.000000    0.557150
      2          1           0        0.000000    0.000000   -0.557150
 ---------------------------------------------------------------------

 SCF Done:  E(UB3LYP) = -0.609942328411     A.U. after    5 cycles

 The electronic state is 2-SGG.
 Alpha  occ. eigenvalues --   -0.89877
 Alpha virt. eigenvalues --   -0.43870  -0.16482  -0.09581   0.04840   0.04840
 Alpha virt. eigenvalues --    0.08660   0.16123   0.35720   0.43438   0.43438
 Alpha virt. eigenvalues --    0.90581   1.96208   1.97413   2.83669   3.13120

 Mulliken charges and spin densities:
               1          2
     1  H    0.500000   0.500000
     2  H    0.500000   0.500000
 Sum of Mulliken charges =   1.00000   1.00000

 Dipole moment (field-independent basis, Debye):
    X=              0.0000    Y=              0.0000    Z=              0.0000  Tot=              0.0000
 Quadrupole moment (field-independent basis, Debye-Ang):
   XX=             -0.8734   YY=             -0.8734   ZZ=              1.3062
   XY=             -0.0000   XZ=             -0.0000   YZ=              0.0000

  Exact polarizability:   1.472  -0.000   1.472  -0.000  -0.000   5.362
 Approx polarizability:   1.300  -0.000   1.300  -0.000  -0.000   5.378

                      1
                     SGG
 Frequencies --   1978.6379
 Red. masses --      1.0078
 Frc consts  --      2.3247
 IR Inten    --      0.0000

 - Thermochemistry -
 -------------------
 Temperature   298.150 Kelvin.  Pressure   1.00000 Atm.
 Atom     1 has atomic number  1 and mass   1.00783

 Molecular mass:     2.01565 amu.
 Principal axes and moments of inertia in atomic units:
                           1         2         3
     Eigenvalues --     0.00000   2.23438   2.23438
           X           -0.00000   1.00000  -0.00000
           Y            0.00000   0.00000   1.00000
           Z            1.00000   0.00000  -0.00000
 This molecule is a prolate symmetric top.
 Rotational symmetry number  2.
 Rotational temperature (Kelvin)     38.76413
 Rotational constant (GHZ):         807.714329
 Zero-point vibrational energy      11834.9 (Joules/Mol)
                                    2.82860 (Kcal/Mol)
 Vibrational temperatures:   2846.82
          (Kelvin)

 Zero-point correction=                           0.004508 (Hartree/Particle)
 Thermal correction to Energy=                    0.006869
 Thermal correction to Enthalpy=                  0.007813
 Thermal correction to Gibbs Free Energy=        -0.008400
 Sum of electronic and zero-point Energies=             -0.605435
 Sum of electronic and thermal Energies=                -0.603074
 Sum of electronic and thermal Enthalpies=              -0.602129
 Sum of electronic and thermal Free Energies=           -0.618342

                     E (Thermal)             CV                S
                      KCal/Mol        Cal/Mol-Kelvin    Cal/Mol-Kelvin
 Total                    4.310              4.981             34.123
 Electronic               0.000              0.000              1.377
 Translational            0.889              2.981             28.080
 Rotational               0.592              1.987              4.664
 Vibrational              2.829              0.013              0.001

 Optimization completed.
    -- Stationary point found.
 Normal termination of Gaussian 09 at Sun Jun 19 05:31:39 2016.
