 Gaussian 09, Revision E.01,
 Gaussian 09:  EM64L-G09RevE.01 30-Nov-2015

 ---------------------------------------------
 #p b3lyp/6-311++G(3df,2p) freq symmetry=Loose
 ---------------------------------------------

 ---------
 b3lyp opt
 ---------
 Symbolic Z-matrix:
 Charge =  3 Multiplicity = 2

                         Standard orientation:
 ---------------------------------------------------------------------
 Center     Atomic      Atomic             Coordinates (Angstroms)
 Number     Number       Type             X           Y           Z
 ---------------------------------------------------------------------
      1          1           0       -0.000000    0.000000    2.065826
      2          6           0       -0.000000    0.000000    0.781554
      3          6           0        0.000000    0.000000   -0.781554
      4          1           0        0.000000    0.000000   -2.065826
 ---------------------------------------------------------------------

 SCF Done:  E(UB3LYP) =  -75.0823810841     A.U. after   10 cycles

 Unable to determine electronic state:  partially filled degenerate orbitals.
 Alpha  occ. eigenvalues --  -11.41489 -11.41468  -1.76373  -1.51004  -1.41095
 Alpha  occ. eigenvalues --   -1.29886
 Alpha virt. eigenvalues --   -1.19167  -1.07239  -1.02670  -0.94729  -0.74200
 Alpha virt. eigenvalues --   -0.60815  -0.58790  -0.50356  -0.49944  -0.46984
 Alpha virt. eigenvalues --   -0.46769  -0.44197  -0.43952  -0.42975  -0.41670

  Beta  occ. eigenvalues --  -11.40513 -11.40498  -1.72357  -1.48782  -1.40502
  Beta virt. eigenvalues --   -1.17848  -1.14539  -1.01333  -0.98147  -0.92529
  Beta virt. eigenvalues --   -0.73917  -0.60195  -0.58364  -0.49945  -0.49201
  Beta virt. eigenvalues --   -0.45683  -0.45637  -0.43948  -0.43273  -0.42835

 Mulliken charges and spin densities:
               1          2
     1  H    0.628486  -0.016921
     2  C    0.871514   0.516921
     3  C    0.871514   0.516921
     4  H    0.628486  -0.016921
 Sum of Mulliken charges =   3.00000   1.00000

 Dipole moment (field-independent basis, Debye):
    X=              0.0000    Y=              0.0000    Z=              0.0000  Tot=              0.0000
 Quadrupole moment (field-independent basis, Debye-Ang):
   XX=             -7.4270   YY=             -6.0068   ZZ=             21.0347
   XY=             -0.0000   XZ=             -0.0000   YZ=             -0.0000

  Exact polarizability:   8.792  -0.000   9.013  -0.000  -0.000  26.750
 Approx polarizability:  11.528   0.000  13.050  -0.000  -0.000  39.609

                      1                      2                      3
                     PIG                    PIU                    PIU
 Frequencies --    406.2754               534.4639               585.7423
 Red. masses --      1.5241                 1.0848                 1.0848
 Frc consts  --      0.1482                 0.1826                 0.2193
 IR Inten    --      0.0000               194.2063               124.4915

                      4                      5                      6
                     PIG                    SGG                    SGU
 Frequencies --    835.9516               942.1366              1411.9726
 Red. masses --      1.5241                 3.4318                 1.0848
 Frc consts  --      0.6275                 1.7947                 1.2743
 IR Inten    --      0.0000                 0.0000              3240.7271

                      7
                     SGG
 Frequencies --   1718.5275
 Red. masses --      1.2752
 Frc consts  --      2.2190
 IR Inten    --      0.0000

 - Thermochemistry -
 -------------------
 Temperature   298.150 Kelvin.  Pressure   1.00000 Atm.
 Atom     1 has atomic number  1 and mass   1.00783

 Molecular mass:    26.01565 amu.
 Principal axes and moments of inertia in atomic units:
                           1         2         3
     Eigenvalues --     0.00000  83.06977  83.06977
           X           -0.00000   1.00000  -0.00000
           Y            0.00000   0.00000   1.00000
           Z            1.00000   0.00000  -0.00000
 This molecule is a prolate symmetric top.
 Rotational symmetry number  2.
 Rotational temperature (Kelvin)      1.04266
 Rotational constant (GHZ):          21.725607
 Zero-point vibrational energy      38490.3 (Joules/Mol)
                                    9.19939 (Kcal/Mol)
 Warning -- explicit consideration of   3 degrees of freedom as
           vibrations may cause significant error
 Vibrational temperatures:    584.54   768.97   842.75  1202.75  1355.52
          (Kelvin)           2031.51  2472.57

 Zero-point correction=                           0.014660 (Hartree/Particle)
 Thermal correction to Energy=                    0.017815
 Thermal correction to Enthalpy=                  0.018760
 Thermal correction to Gibbs Free Energy=        -0.005587
 Sum of electronic and zero-point Energies=            -75.067721
 Sum of electronic and thermal Energies=               -75.064566
 Sum of electronic and thermal Enthalpies=             -75.063621
 Sum of electronic and thermal Free Energies=          -75.087969

                     E (Thermal)             CV                S
                      KCal/Mol        Cal/Mol-Kelvin    Cal/Mol-Kelvin
 Total                   11.179              9.835             51.243
 Electronic               0.000              0.000              1.377
 Translational            0.889              2.981             35.704
 Rotational               0.592              1.987             11.849
 Vibrational              9.698              4.867              2.312
 Vibration     1          0.771              1.457              0.940
 Vibration     2          0.889              1.174              0.577
 Vibration     3          0.943              1.062              0.475

 Optimization completed.
    -- Stationary point found.
 Normal termination of Gaussian 09 at Sun Jun 19 00:30:49 2016.
