 Gaussian 09, Revision E.01,
 Gaussian 09:  EM64L-G09RevE.01 30-Nov-2015

 ---------------------------------------------
 #p b3lyp/6-311++G(3df,2p) freq symmetry=Loose
 ---------------------------------------------

 ---------
 b3lyp opt
 ---------
 Symbolic Z-matrix:
 Charge =  2 Multiplicity = 3

                         Standard orientation:
 ---------------------------------------------------------------------
 Center     Atomic      Atomic             Coordinates (Angstroms)
 Number     Number       Type             X           Y           Z
 ---------------------------------------------------------------------
      1          6           0       -0.000000   -0.000000    0.666877
      2          6           0        0.000000    0.000000   -0.666877
      3          1           0       -0.000000   -0.000000    1.794795
      4          1           0        0.000000    0.000000   -1.794795
 ---------------------------------------------------------------------

 SCF Done:  E(UB3LYP) =  -76.2024414475     A.U. after    9 cycles

 The electronic state is 3-SGG.
 Alpha  occ. eigenvalues --  -11.00996 -11.00908  -1.51529  -1.22958  -1.15500
 Alpha  occ. eigenvalues --   -1.02317  -1.02317
 Alpha virt. eigenvalues --   -0.70394  -0.70394  -0.52925  -0.42392  -0.37355
 Alpha virt. eigenvalues --   -0.30960  -0.30960  -0.29880  -0.23575  -0.23575
 Alpha virt. eigenvalues --   -0.23340  -0.23339  -0.17183  -0.15198  -0.13071

  Beta  occ. eigenvalues --  -10.99242 -10.99172  -1.43178  -1.19787  -1.14223
  Beta virt. eigenvalues --   -0.85707  -0.85707  -0.61747  -0.61747  -0.49208
  Beta virt. eigenvalues --   -0.41349  -0.36695  -0.29911  -0.29911  -0.29433
  Beta virt. eigenvalues --   -0.22789  -0.22789  -0.20901  -0.20901  -0.16946

 Mulliken charges and spin densities:
               1          2
     1  C    0.487255   1.026713
     2  C    0.487255   1.026713
     3  H    0.512745  -0.026713
     4  H    0.512745  -0.026713
 Sum of Mulliken charges =   2.00000   2.00000

 Dipole moment (field-independent basis, Debye):
    X=              0.0000    Y=             -0.0000    Z=             -0.0000  Tot=              0.0000
 Quadrupole moment (field-independent basis, Debye-Ang):
   XX=             -8.1371   YY=             -8.1371   ZZ=              6.8628
   XY=             -0.0000   XZ=             -0.0000   YZ=             -0.0000

  Exact polarizability:   9.285  -0.000   9.285  -0.000   0.000  21.593
 Approx polarizability:  12.234   0.000  12.234  -0.000  -0.000  32.306

                      1                      2                      3
                     PIU                    PIU                    PIG
 Frequencies --    655.0898               655.0898               666.3188
 Red. masses --      1.0848                 1.0848                 1.5421
 Frc consts  --      0.2743                 0.2743                 0.4034
 IR Inten    --     63.5706                63.5706                 0.0000

                      4                      5                      6
                     PIG                    SGG                    SGU
 Frequencies --    666.3188              1570.2818              2769.8294
 Red. masses --      1.5421                 4.0307                 1.0848
 Frc consts  --      0.4034                 5.8558                 4.9036
 IR Inten    --      0.0000                 0.0000              1186.9805

                      7
                     SGG
 Frequencies --   2889.5626
 Red. masses --      1.2085
 Frc consts  --      5.9451
 IR Inten    --      0.0000

 - Thermochemistry -
 -------------------
 Temperature   298.150 Kelvin.  Pressure   1.00000 Atm.
 Atom     1 has atomic number  6 and mass  12.00000

 Molecular mass:    26.01565 amu.
 Principal axes and moments of inertia in atomic units:
                           1         2         3
     Eigenvalues --     0.00000  61.30230  61.30230
           X           -0.00000   1.00000  -0.00000
           Y           -0.00000   0.00000   1.00000
           Z            1.00000   0.00000  -0.00000
 This molecule is a prolate symmetric top.
 Rotational symmetry number  2.
 Rotational temperature (Kelvin)      1.41290
 Rotational constant (GHZ):          29.440025
 Zero-point vibrational energy      59050.6 (Joules/Mol)
                                   14.11343 (Kcal/Mol)
 Vibrational temperatures:    942.53   942.53   958.68   958.68  2259.28
          (Kelvin)           3985.16  4157.43

 Zero-point correction=                           0.022491 (Hartree/Particle)
 Thermal correction to Energy=                    0.025373
 Thermal correction to Enthalpy=                  0.026318
 Thermal correction to Gibbs Free Energy=         0.002292
 Sum of electronic and zero-point Energies=            -76.179950
 Sum of electronic and thermal Energies=               -76.177068
 Sum of electronic and thermal Enthalpies=             -76.176124
 Sum of electronic and thermal Free Energies=          -76.200150

                     E (Thermal)             CV                S
                      KCal/Mol        Cal/Mol-Kelvin    Cal/Mol-Kelvin
 Total                   15.922              8.653             50.567
 Electronic               0.000              0.000              2.183
 Translational            0.889              2.981             35.704
 Rotational               0.592              1.987             11.245
 Vibrational             14.441              3.685              1.434

 Optimization completed.
    -- Stationary point found.
 Normal termination of Gaussian 09 at Sun Jun 19 00:30:49 2016.
