 Gaussian 09, Revision E.01,
 Gaussian 09:  EM64L-G09RevE.01 30-Nov-2015

 ---------------------------------------------
 #p b3lyp/6-311++G(3df,2p) freq symmetry=Loose
 ---------------------------------------------

 ---------
 b3lyp opt
 ---------
 Symbolic Z-matrix:
 Charge =  1 Multiplicity = 4

                         Standard orientation:
 ---------------------------------------------------------------------
 Center     Atomic      Atomic             Coordinates (Angstroms)
 Number     Number       Type             X           Y           Z
 ---------------------------------------------------------------------
      1          1           0        0.809894    1.441688    0.000000
      2          6           0        0.000000    0.711593    0.000000
      3          6           0       -0.000000   -0.711593    0.000000
      4          1           0       -0.809894   -1.441688    0.000000
 ---------------------------------------------------------------------

 SCF Done:  E(UB3LYP) =  -76.8178210414     A.U. after    9 cycles

 The electronic state is 4-BG.
 Alpha  occ. eigenvalues --  -10.60033 -10.59992  -1.12237  -0.90492  -0.77818
 Alpha  occ. eigenvalues --   -0.70559  -0.65356  -0.53497
 Alpha virt. eigenvalues --   -0.38215  -0.18438  -0.17191  -0.11881  -0.11369
 Alpha virt. eigenvalues --   -0.10235  -0.07684  -0.07013  -0.05352  -0.04509
 Alpha virt. eigenvalues --   -0.02100  -0.01636  -0.00483   0.01451   0.03815

  Beta  occ. eigenvalues --  -10.57477 -10.57444  -1.03961  -0.85852  -0.75203
  Beta virt. eigenvalues --   -0.49379  -0.48443  -0.32388  -0.28857  -0.16591
  Beta virt. eigenvalues --   -0.16417  -0.10342  -0.10229  -0.09429  -0.06291
  Beta virt. eigenvalues --   -0.04909  -0.04418  -0.03565  -0.00959  -0.00512

 Mulliken charges and spin densities:
               1          2
     1  H    0.265189   0.023409
     2  C    0.234811   1.476591
     3  C    0.234811   1.476591
     4  H    0.265189   0.023409
 Sum of Mulliken charges =   1.00000   3.00000

 Dipole moment (field-independent basis, Debye):
    X=             -0.0000    Y=             -0.0000    Z=              0.0000  Tot=              0.0000
 Quadrupole moment (field-independent basis, Debye-Ang):
   XX=             -9.0794   YY=             -4.6867   ZZ=             -9.8944
   XY=              3.0247   XZ=              0.0000   YZ=              0.0000

  Exact polarizability:  14.297   2.684  24.547   0.000   0.000  12.414
 Approx polarizability:  17.182   2.518  31.737  -0.000  -0.000  16.471

                      1                      2                      3
                     BU                     AU                     AG
 Frequencies --    724.0754               804.2414              1036.4589
 Red. masses --      1.0848                 1.0848                 1.3538
 Frc consts  --      0.3351                 0.4134                 0.8569
 IR Inten    --     46.3057                16.2699                 0.0000

                      4                      5                      6
                     AG                     BU                     AG
 Frequencies --   1343.7158              3129.8828              3137.8344
 Red. masses --      7.1925                 1.0848                 1.1031
 Frc consts  --      7.6515                 6.2613                 6.3993
 IR Inten    --      0.0000               150.4216                 0.0000

 - Thermochemistry -
 -------------------
 Temperature   298.150 Kelvin.  Pressure   1.00000 Atm.
 Atom     1 has atomic number  1 and mass   1.00783

 Molecular mass:    26.01565 amu.
 Principal axes and moments of inertia in atomic units:
                           1         2         3
     Eigenvalues --     3.43531  59.64515  63.08046
           X            0.15126   0.98849   0.00000
           Y            0.98849  -0.15126   0.00000
           Z            0.00000  -0.00000   1.00000
 This molecule is an asymmetric top.
 Rotational symmetry number  2.
 Rotational temperatures (Kelvin)     25.21278     1.45215     1.37307
 Rotational constants (GHZ):         525.34974    30.25797    28.61014
 Zero-point vibrational energy      60867.2 (Joules/Mol)
                                   14.54762 (Kcal/Mol)
 Vibrational temperatures:   1041.78  1157.12  1491.23  1933.30  4503.20
          (Kelvin)           4514.64

 Zero-point correction=                           0.023183 (Hartree/Particle)
 Thermal correction to Energy=                    0.026238
 Thermal correction to Enthalpy=                  0.027182
 Thermal correction to Gibbs Free Energy=         0.001108
 Sum of electronic and zero-point Energies=            -76.794638
 Sum of electronic and thermal Energies=               -76.791583
 Sum of electronic and thermal Enthalpies=             -76.790639
 Sum of electronic and thermal Free Energies=          -76.816713

                     E (Thermal)             CV                S
                      KCal/Mol        Cal/Mol-Kelvin    Cal/Mol-Kelvin
 Total                   16.464              7.856             54.877
 Electronic               0.000              0.000              2.755
 Translational            0.889              2.981             35.704
 Rotational               0.889              2.981             15.832
 Vibrational             14.687              1.895              0.586

 Optimization completed.
    -- Stationary point found.
 Normal termination of Gaussian 09 at Sun Jun 19 00:30:19 2016.
