 Gaussian 09, Revision E.01,
 Gaussian 09:  EM64L-G09RevE.01 30-Nov-2015

 ---------------------------------------------
 #p b3lyp/6-311++G(3df,2p) freq symmetry=Loose
 ---------------------------------------------

 ---------
 b3lyp opt
 ---------
 Symbolic Z-matrix:
 Charge =  0 Multiplicity = 3

                         Standard orientation:
 ---------------------------------------------------------------------
 Center     Atomic      Atomic             Coordinates (Angstroms)
 Number     Number       Type             X           Y           Z
 ---------------------------------------------------------------------
      1          1           0       -0.926759    1.264547    0.000000
      2          6           0        0.000000    0.684451    0.000000
      3          6           0       -0.000000   -0.684451    0.000000
      4          1           0        0.926759   -1.264547    0.000000
 ---------------------------------------------------------------------

 SCF Done:  E(UB3LYP) =  -77.2049138672     A.U. after   10 cycles

 The electronic state is 3-AU.
 Alpha  occ. eigenvalues --  -10.23880 -10.23821  -0.79827  -0.59173  -0.45012
 Alpha  occ. eigenvalues --   -0.35916  -0.34182  -0.20307
 Alpha virt. eigenvalues --   -0.05991   0.00274   0.01243   0.05368   0.05876
 Alpha virt. eigenvalues --    0.08446   0.09817   0.11112   0.11562   0.13012
 Alpha virt. eigenvalues --    0.15010   0.16718   0.17154   0.26387   0.31790

  Beta  occ. eigenvalues --  -10.22441 -10.22389  -0.74817  -0.56014  -0.43075
  Beta  occ. eigenvalues --   -0.28806
  Beta virt. eigenvalues --   -0.20216  -0.07925   0.00187   0.00563   0.01495
  Beta virt. eigenvalues --    0.05791   0.06796   0.08510   0.10645   0.12443
  Beta virt. eigenvalues --    0.12575   0.13604   0.15438   0.17307   0.18202

 Mulliken charges and spin densities:
               1          2
     1  H    0.175550   0.026281
     2  C   -0.175550   0.973719
     3  C   -0.175550   0.973719
     4  H    0.175550   0.026281
 Sum of Mulliken charges =  -0.00000   2.00000

 Dipole moment (field-independent basis, Debye):
    X=              0.0000    Y=              0.0000    Z=              0.0000  Tot=              0.0000
 Quadrupole moment (field-independent basis, Debye-Ang):
   XX=            -13.4871   YY=            -13.5171   ZZ=            -12.4914
   XY=             -3.3911   XZ=              0.0000   YZ=              0.0000

  Exact polarizability:  26.164   1.753  40.973  -0.000  -0.000  18.662
 Approx polarizability:  31.643   3.405  60.981  -0.000  -0.000  25.158

                      1                      2                      3
                     BU                     AU                     AG
 Frequencies --    808.8650               846.0111              1104.5410
 Red. masses --      1.0848                 1.0848                 1.3621
 Frc consts  --      0.4182                 0.4575                 0.9791
 IR Inten    --    270.3631                 3.9025                 0.0000

                      4                      5                      6
                     AG                     BU                     AG
 Frequencies --   1425.8735              3047.5311              3057.3296
 Red. masses --      7.1411                 1.0848                 1.0921
 Frc consts  --      8.5541                 5.9361                 6.0147
 IR Inten    --      0.0000                27.4924                 0.0000

 - Thermochemistry -
 -------------------
 Temperature   298.150 Kelvin.  Pressure   1.00000 Atm.
 Atom     1 has atomic number  1 and mass   1.00783

 Molecular mass:    26.01565 amu.
 Principal axes and moments of inertia in atomic units:
                           1         2         3
     Eigenvalues --     4.66800  53.17520  57.84320
           X           -0.17668   0.98427   0.00000
           Y            0.98427   0.17668   0.00000
           Z           -0.00000   0.00000   1.00000
 This molecule is an asymmetric top.
 Rotational symmetry number  2.
 Rotational temperatures (Kelvin)     18.55479     1.62884     1.49739
 Rotational constants (GHZ):         386.61959    33.93953    31.20058
 Zero-point vibrational energy      61548.8 (Joules/Mol)
                                   14.71051 (Kcal/Mol)
 Vibrational temperatures:   1163.77  1217.22  1589.19  2051.51  4384.71
          (Kelvin)           4398.81

 Zero-point correction=                           0.023443 (Hartree/Particle)
 Thermal correction to Energy=                    0.026448
 Thermal correction to Enthalpy=                  0.027393
 Thermal correction to Gibbs Free Energy=         0.001605
 Sum of electronic and zero-point Energies=            -77.181471
 Sum of electronic and thermal Energies=               -77.178465
 Sum of electronic and thermal Enthalpies=             -77.177521
 Sum of electronic and thermal Free Energies=          -77.203309

                     E (Thermal)             CV                S
                      KCal/Mol        Cal/Mol-Kelvin    Cal/Mol-Kelvin
 Total                   16.597              7.549             54.274
 Electronic               0.000              0.000              2.183
 Translational            0.889              2.981             35.704
 Rotational               0.889              2.981             15.936
 Vibrational             14.819              1.587              0.451

 Optimization completed.
    -- Stationary point found.
 Normal termination of Gaussian 09 at Sun Jun 19 00:30:19 2016.
