 Gaussian 09, Revision E.01,
 Gaussian 09:  EM64L-G09RevE.01 30-Nov-2015

 ---------------------------------------------
 #p b3lyp/6-311++G(3df,2p) freq symmetry=Loose
 ---------------------------------------------

 ---------
 b3lyp opt
 ---------
 Symbolic Z-matrix:
 Charge =  0 Multiplicity = 1

                         Standard orientation:
 ---------------------------------------------------------------------
 Center     Atomic      Atomic             Coordinates (Angstroms)
 Number     Number       Type             X           Y           Z
 ---------------------------------------------------------------------
      1          6           0        0.000000    0.000000    0.816182
      2          6           0       -0.000000    0.000000   -0.474163
      3          1           0        0.935709    0.000037   -1.026056
      4          1           0       -0.935709   -0.000037   -1.026056
 ---------------------------------------------------------------------

 SCF Done:  E(RB3LYP) =  -77.2928492829     A.U. after   10 cycles

 The electronic state is 1-A.
 Alpha  occ. eigenvalues --  -10.24090 -10.18523  -0.79581  -0.55140  -0.48068
 Alpha  occ. eigenvalues --   -0.30994  -0.30690
 Alpha virt. eigenvalues --   -0.11147  -0.00755  -0.00416   0.02166   0.04792
 Alpha virt. eigenvalues --    0.06231   0.08441   0.10463   0.11181   0.12496
 Alpha virt. eigenvalues --    0.13621   0.14079   0.16269   0.22147   0.26258

 Mulliken charges:
               1
     1  C   -0.333836
     2  C    0.016823
     3  H    0.158507
     4  H    0.158507
 Sum of Mulliken charges =  -0.00000

 Dipole moment (field-independent basis, Debye):
    X=             -0.0000    Y=              0.0000    Z=             -2.5214  Tot=              2.5214
 Quadrupole moment (field-independent basis, Debye-Ang):
   XX=            -10.6221   YY=            -14.5003   ZZ=            -14.4100
   XY=              0.0002   XZ=              0.0000   YZ=             -0.0000

  Exact polarizability:  21.951   0.000  20.628   0.000   0.000  30.373
 Approx polarizability:  31.670   0.000  26.725   0.000  -0.000  47.555

                      1                      2                      3
                      B                      B                      A
 Frequencies --    346.1331               758.7135              1217.1157
 Red. masses --      1.3393                 1.3418                 1.0965
 Frc consts  --      0.0945                 0.4551                 0.9570
 IR Inten    --      8.2947                76.3264                24.7126

                      4                      5                      6
                      A                      A                      B
 Frequencies --   1711.3113              3114.6976              3189.5337
 Red. masses --      6.7635                 1.0667                 1.1096
 Frc consts  --     11.6702                 6.0969                 6.6508
 IR Inten    --     89.2978                48.7710                19.4140

 - Thermochemistry -
 -------------------
 Temperature   298.150 Kelvin.  Pressure   1.00000 Atm.
 Atom     1 has atomic number  6 and mass  12.00000

 Molecular mass:    26.01565 amu.
 Principal axes and moments of inertia in atomic units:
                           1         2         3
     Eigenvalues --     6.30223  45.19008  51.49231
           X            0.00000   1.00000  -0.00004
           Y           -0.00000   0.00004   1.00000
           Z            1.00000  -0.00000   0.00000
 This molecule is an asymmetric top.
 Rotational symmetry number  2.
 Rotational temperatures (Kelvin)     13.74336     1.91666     1.68207
 Rotational constants (GHZ):         286.36560    39.93667    35.04875
 Zero-point vibrational energy      61832.0 (Joules/Mol)
                                   14.77821 (Kcal/Mol)
 Warning -- explicit consideration of   1 degrees of freedom as
           vibrations may cause significant error
 Vibrational temperatures:    498.01  1091.62  1751.16  2462.19  4481.35
          (Kelvin)           4589.02

 Zero-point correction=                           0.023551 (Hartree/Particle)
 Thermal correction to Energy=                    0.026858
 Thermal correction to Enthalpy=                  0.027802
 Thermal correction to Gibbs Free Energy=         0.002557
 Sum of electronic and zero-point Energies=            -77.269299
 Sum of electronic and thermal Energies=               -77.265992
 Sum of electronic and thermal Enthalpies=             -77.265048
 Sum of electronic and thermal Free Energies=          -77.290292

                     E (Thermal)             CV                S
                      KCal/Mol        Cal/Mol-Kelvin    Cal/Mol-Kelvin
 Total                   16.853              8.495             53.133
 Electronic               0.000              0.000              0.000
 Translational            0.889              2.981             35.704
 Rotational               0.889              2.981             15.957
 Vibrational             15.076              2.534              1.471
 Vibration     1          0.724              1.583              1.184

 Optimization completed.
    -- Stationary point found.
 Normal termination of Gaussian 09 at Tue Jul 19 03:05:08 2016.
