 Gaussian 09, Revision E.01,
 Gaussian 09:  EM64L-G09RevE.01 30-Nov-2015

 ---------------------------------------------
 #p b3lyp/6-311++G(3df,2p) freq symmetry=Loose
 ---------------------------------------------

 ---------
 b3lyp opt
 ---------
 Symbolic Z-matrix:
 Charge =  0 Multiplicity = 3

                         Standard orientation:
 ---------------------------------------------------------------------
 Center     Atomic      Atomic             Coordinates (Angstroms)
 Number     Number       Type             X           Y           Z
 ---------------------------------------------------------------------
      1          6           0        0.000000    0.828786    0.000000
      2          6           0       -0.000000   -0.480185   -0.000000
      3          1           0       -0.000000   -1.045805    0.932221
      4          1           0       -0.000000   -1.045805   -0.932221
 ---------------------------------------------------------------------

 SCF Done:  E(UB3LYP) =  -77.2169360698     A.U. after   12 cycles

 The electronic state is 3-A".
 Alpha  occ. eigenvalues --  -10.24674 -10.20330  -0.78978  -0.55857  -0.46743
 Alpha  occ. eigenvalues --   -0.39328  -0.30995  -0.22828
 Alpha virt. eigenvalues --   -0.02242   0.00214   0.02653   0.04225   0.06494
 Alpha virt. eigenvalues --    0.08478   0.09533   0.11690   0.12032   0.14538
 Alpha virt. eigenvalues --    0.14707   0.16070   0.21649   0.27416   0.31575

  Beta  occ. eigenvalues --  -10.21334 -10.20336  -0.75533  -0.51248  -0.44552
  Beta  occ. eigenvalues --   -0.29249
  Beta virt. eigenvalues --   -0.18182  -0.05274   0.00324   0.00529   0.02829
  Beta virt. eigenvalues --    0.05335   0.06452   0.08812   0.11236   0.11843
  Beta virt. eigenvalues --    0.12678   0.14804   0.14862   0.16827   0.23366

 Mulliken charges and spin densities:
               1          2
     1  C   -0.113531   2.116388
     2  C   -0.163697  -0.286289
     3  H    0.138614   0.084950
     4  H    0.138614   0.084950
 Sum of Mulliken charges =  -0.00000   2.00000

 Dipole moment (field-independent basis, Debye):
    X=              0.0000    Y=             -0.6687    Z=             -0.0000  Tot=              0.6687
 Quadrupole moment (field-independent basis, Debye-Ang):
   XX=            -14.1156   YY=            -11.4818   ZZ=            -12.2713
   XY=             -0.0000   XZ=              0.0000   YZ=              0.0000

  Exact polarizability:  24.726   0.000  31.832  -0.000  -0.000  21.625
 Approx polarizability:  26.470   0.000  50.143   0.000   0.000  26.879

                      1                      2                      3
                     A'                     A"                     A'
 Frequencies --    753.2417               991.0322              1398.8916
 Red. masses --      1.3442                 1.3282                 1.0714
 Frc consts  --      0.4493                 0.7686                 1.2353
 IR Inten    --      0.3296                 2.6655                 2.2148

                      4                      5                      6
                     A'                     A'                     A"
 Frequencies --   1581.9188              3019.2584              3085.8382
 Red. masses --      9.1975                 1.0468                 1.1151
 Frc consts  --     13.5609                 5.6224                 6.2563
 IR Inten    --      5.4271                 5.4491                 3.1010

 - Thermochemistry -
 -------------------
 Temperature   298.150 Kelvin.  Pressure   1.00000 Atm.
 Atom     1 has atomic number  6 and mass  12.00000

 Molecular mass:    26.01565 amu.
 Principal axes and moments of inertia in atomic units:
                           1         2         3
     Eigenvalues --     6.25534  46.59725  52.85259
           X            0.00000   0.00000   1.00000
           Y            1.00000  -0.00000  -0.00000
           Z            0.00000   1.00000  -0.00000
 This molecule is an asymmetric top.
 Rotational symmetry number  1.
 Rotational temperatures (Kelvin)     13.84639     1.85878     1.63878
 Rotational constants (GHZ):         288.51227    38.73063    34.14669
 Zero-point vibrational energy      64778.9 (Joules/Mol)
                                   15.48252 (Kcal/Mol)
 Vibrational temperatures:   1083.75  1425.87  2012.69  2276.03  4344.03
          (Kelvin)           4439.83

 Zero-point correction=                           0.024673 (Hartree/Particle)
 Thermal correction to Energy=                    0.027648
 Thermal correction to Enthalpy=                  0.028592
 Thermal correction to Gibbs Free Energy=         0.002154
 Sum of electronic and zero-point Energies=            -77.192263
 Sum of electronic and thermal Energies=               -77.189288
 Sum of electronic and thermal Enthalpies=             -77.188344
 Sum of electronic and thermal Free Energies=          -77.214782

                     E (Thermal)             CV                S
                      KCal/Mol        Cal/Mol-Kelvin    Cal/Mol-Kelvin
 Total                   17.349              7.242             55.644
 Electronic               0.000              0.000              2.183
 Translational            0.889              2.981             35.704
 Rotational               0.889              2.981             17.384
 Vibrational             15.572              1.281              0.372

 Optimization completed.
    -- Stationary point found.
 Normal termination of Gaussian 09 at Tue Jul 19 03:05:13 2016.
