 Gaussian 09, Revision E.01,
 Gaussian 09:  EM64L-G09RevE.01 30-Nov-2015

 ---------------------------------------------
 #p b3lyp/6-311++G(3df,2p) freq symmetry=Loose
 ---------------------------------------------

 ---------
 b3lyp opt
 ---------
 Symbolic Z-matrix:
 Charge =  1 Multiplicity = 2

                         Standard orientation:
 ---------------------------------------------------------------------
 Center     Atomic      Atomic             Coordinates (Angstroms)
 Number     Number       Type             X           Y           Z
 ---------------------------------------------------------------------
      1          6           0        0.025517    0.831808    0.000000
      2          6           0        0.025517   -0.492247   -0.000000
      3          1           0       -0.153101   -1.018681    0.952247
      4          1           0       -0.153101   -1.018681   -0.952247
 ---------------------------------------------------------------------

 SCF Done:  E(UB3LYP) =  -76.8775750655     A.U. after   19 cycles

 The electronic state is 2-A'.
 Alpha  occ. eigenvalues --  -10.64411 -10.55555  -1.14624  -0.87290  -0.78764
 Alpha  occ. eigenvalues --   -0.68946  -0.64553
 Alpha virt. eigenvalues --   -0.44192  -0.34495  -0.19159  -0.14836  -0.13313
 Alpha virt. eigenvalues --   -0.11648  -0.10320  -0.07571  -0.06144  -0.04694
 Alpha virt. eigenvalues --   -0.03532  -0.03179  -0.01898   0.00363   0.04611

  Beta  occ. eigenvalues --  -10.63208 -10.54910  -1.11427  -0.85253  -0.78271
  Beta  occ. eigenvalues --   -0.63088
  Beta virt. eigenvalues --   -0.52214  -0.42497  -0.29993  -0.18732  -0.14710
  Beta virt. eigenvalues --   -0.12931  -0.11108  -0.09990  -0.07153  -0.05967
  Beta virt. eigenvalues --   -0.04233  -0.03345  -0.02952  -0.01731   0.00750

 Mulliken charges and spin densities:
               1          2
     1  C    0.230209   0.648385
     2  C    0.234524   0.368031
     3  H    0.267633  -0.008208
     4  H    0.267633  -0.008208
 Sum of Mulliken charges =   1.00000   1.00000

 Dipole moment (field-independent basis, Debye):
    X=              0.3193    Y=             -1.3297    Z=              0.0000  Tot=              1.3675
 Quadrupole moment (field-independent basis, Debye-Ang):
   XX=            -10.6650   YY=             -6.7666   ZZ=             -7.3064
   XY=              1.0832   XZ=             -0.0000   YZ=             -0.0000

  Exact polarizability:  12.869   0.580  38.708  -0.000   0.000  15.866
 Approx polarizability:  17.144  -2.054  50.476  -0.000  -0.000  22.459

                      1                      2                      3
                     A"                     A'                     A'
 Frequencies --    455.9967               774.4296               902.5914
 Red. masses --      1.3168                 1.9710                 1.8515
 Frc consts  --      0.1613                 0.6965                 0.8887
 IR Inten    --      3.8732               499.6018               259.5034

                      4                      5                      6
                     A'                     A'                     A"
 Frequencies --   1271.4661              2963.3953              3043.2026
 Red. masses --      1.3389                 1.0479                 1.1091
 Frc consts  --      1.2752                 5.4218                 6.0516
 IR Inten    --      1.7390               136.1104               192.5974

 - Thermochemistry -
 -------------------
 Temperature   298.150 Kelvin.  Pressure   1.00000 Atm.
 Atom     1 has atomic number  6 and mass  12.00000

 Molecular mass:    26.01565 amu.
 Principal axes and moments of inertia in atomic units:
                           1         2         3
     Eigenvalues --     6.69636  47.15399  53.51160
           X            0.03012  -0.00000   0.99955
           Y            0.99955   0.00000  -0.03012
           Z           -0.00000   1.00000   0.00000
 This molecule is an asymmetric top.
 Rotational symmetry number  1.
 Rotational temperatures (Kelvin)     12.93447     1.83683     1.61860
 Rotational constants (GHZ):         269.51097    38.27335    33.72617
 Zero-point vibrational energy      56290.8 (Joules/Mol)
                                   13.45382 (Kcal/Mol)
 Warning -- explicit consideration of   1 degrees of freedom as
           vibrations may cause significant error
 Vibrational temperatures:    656.08  1114.23  1298.63  1829.35  4263.66
          (Kelvin)           4378.48

 Zero-point correction=                           0.021440 (Hartree/Particle)
 Thermal correction to Energy=                    0.024683
 Thermal correction to Enthalpy=                  0.025628
 Thermal correction to Gibbs Free Energy=        -0.000853
 Sum of electronic and zero-point Energies=            -76.856135
 Sum of electronic and thermal Energies=               -76.852892
 Sum of electronic and thermal Enthalpies=             -76.851947
 Sum of electronic and thermal Free Energies=          -76.878428

                     E (Thermal)             CV                S
                      KCal/Mol        Cal/Mol-Kelvin    Cal/Mol-Kelvin
 Total                   15.489              8.663             55.733
 Electronic               0.000              0.000              1.377
 Translational            0.889              2.981             35.704
 Rotational               0.889              2.981             17.476
 Vibrational             13.712              2.701              1.176
 Vibration     1          0.814              1.348              0.778

 Optimization completed.
    -- Stationary point found.
 Normal termination of Gaussian 09 at Tue Jul 19 03:06:31 2016.
