 Gaussian 09, Revision E.01,
 Gaussian 09:  EM64L-G09RevE.01 30-Nov-2015

 ------------------------------------------------------
 #p b3lyp/6-311++G(3df,2p) freq IOp(2/17=3) IOp(2/18=3)
 ------------------------------------------------------

 ---------
 b3lyp opt
 ---------
 Symbolic Z-matrix:
 Charge =  2 Multiplicity = 1

                         Standard orientation:
 ---------------------------------------------------------------------
 Center     Atomic      Atomic             Coordinates (Angstroms)
 Number     Number       Type             X           Y           Z
 ---------------------------------------------------------------------
      1          1           0        0.000000    0.000000    1.800962
      2          6           0        0.000000   -0.000000    0.673123
      3          6           0        0.000000   -0.000000   -0.673123
      4          1           0        0.000000    0.000000   -1.800962
 ---------------------------------------------------------------------

 SCF Done:  E(RB3LYP) =  -76.1539057807     A.U. after    8 cycles

 Unable to determine electronic state:  partially filled degenerate orbitals.
 Alpha  occ. eigenvalues --  -11.00715 -11.00643  -1.47226  -1.21526  -1.14954
 Alpha  occ. eigenvalues --   -0.97446
 Alpha virt. eigenvalues --   -0.90375  -0.66795  -0.66223  -0.51659  -0.41968
 Alpha virt. eigenvalues --   -0.37169  -0.30678  -0.30356  -0.29896  -0.23442
 Alpha virt. eigenvalues --   -0.23118  -0.22432  -0.22104  -0.17094  -0.15186

 Mulliken charges:
               1
     1  H    0.515470
     2  C    0.484530
     3  C    0.484530
     4  H    0.515470
 Sum of Mulliken charges =   2.00000

 Dipole moment (field-independent basis, Debye):
    X=              0.0000    Y=             -0.0000    Z=             -0.0000  Tot=              0.0000
 Quadrupole moment (field-independent basis, Debye-Ang):
   XX=             -6.7323   YY=             -9.7567   ZZ=              6.9658
   XY=             -0.0000   XZ=             -0.0000   YZ=              0.0000

  Exact polarizability:   9.422   0.000   9.573  -0.000   0.000  21.035
 Approx polarizability:  13.759   0.000  11.816  -0.000   0.000  34.266

                      1                      2                      3
                     PIG                    PIU                    PIU
 Frequencies --    465.3015               651.6587               694.1321
 Red. masses --      1.5362                 1.0848                 1.0848
 Frc consts  --      0.1960                 0.2714                 0.3080
 IR Inten    --      0.0000                16.0647               154.5486

                      4                      5                      6
                     PIG                    SGG                    SGU
 Frequencies --    985.6859              1539.0359              2771.9965
 Red. masses --      1.5362                 4.1145                 1.0848
 Frc consts  --      0.8794                 5.7421                 4.9112
 IR Inten    --      0.0000                 0.0000              1193.0510

                      7
                     SGG
 Frequencies --   2888.0059
 Red. masses --      1.2012
 Frc consts  --      5.9027
 IR Inten    --      0.0000

 - Thermochemistry -
 -------------------
 Temperature   298.150 Kelvin.  Pressure   1.00000 Atm.
 Atom     1 has atomic number  1 and mass   1.00783

 Molecular mass:    26.01565 amu.
 Principal axes and moments of inertia in atomic units:
                           1         2         3
     Eigenvalues --     0.00000  62.17920  62.17920
           X           -0.00000   1.00000  -0.00000
           Y            0.00000   0.00000   1.00000
           Z            1.00000   0.00000  -0.00000
 This molecule is a prolate symmetric top.
 Rotational symmetry number  2.
 Rotational temperature (Kelvin)      1.39297
 Rotational constant (GHZ):          29.024838
 Zero-point vibrational energy      59788.3 (Joules/Mol)
                                   14.28974 (Kcal/Mol)
 Warning -- explicit consideration of   1 degrees of freedom as
           vibrations may cause significant error
 Vibrational temperatures:    669.46   937.59   998.70  1418.18  2214.33
          (Kelvin)           3988.28  4155.19

 Zero-point correction=                           0.022772 (Hartree/Particle)
 Thermal correction to Energy=                    0.025676
 Thermal correction to Enthalpy=                  0.026620
 Thermal correction to Gibbs Free Energy=         0.003566
 Sum of electronic and zero-point Energies=            -76.131134
 Sum of electronic and thermal Energies=               -76.128230
 Sum of electronic and thermal Enthalpies=             -76.127286
 Sum of electronic and thermal Free Energies=          -76.150339

                     E (Thermal)             CV                S
                      KCal/Mol        Cal/Mol-Kelvin    Cal/Mol-Kelvin
 Total                   16.112              8.519             48.520
 Electronic               0.000              0.000              0.000
 Translational            0.889              2.981             35.704
 Rotational               0.592              1.987             11.273
 Vibrational             14.630              3.551              1.542
 Vibration     1          0.823              1.327              0.751

 Optimization completed.
    -- Stationary point found.
 Normal termination of Gaussian 09 at Thu Jan 31 04:12:48 2019.
