 Gaussian 09, Revision E.01,
 Gaussian 09:  EM64L-G09RevE.01 30-Nov-2015

 ---------------------------------------------
 #p b3lyp/6-311++G(3df,2p) freq symmetry=Loose
 ---------------------------------------------

 ---------
 b3lyp opt
 ---------
 Symbolic Z-matrix:
 Charge =  2 Multiplicity = 3

                         Standard orientation:
 ---------------------------------------------------------------------
 Center     Atomic      Atomic             Coordinates (Angstroms)
 Number     Number       Type             X           Y           Z
 ---------------------------------------------------------------------
      1          6           0        0.000000    0.000000    0.863732
      2          6           0       -0.000000    0.000000   -0.506252
      3          1           0       -0.998361    0.000000   -1.072439
      4          1           0        0.998361   -0.000000   -1.072439
 ---------------------------------------------------------------------

 SCF Done:  E(UB3LYP) =  -76.1335378980     A.U. after   12 cycles

 The electronic state is 3-B2.
 Alpha  occ. eigenvalues --  -11.09090 -10.95224  -1.50485  -1.20885  -1.10074
 Alpha  occ. eigenvalues --   -1.07889  -1.02492
 Alpha virt. eigenvalues --   -0.80924  -0.71535  -0.44289  -0.38578  -0.36456
 Alpha virt. eigenvalues --   -0.33654  -0.30787  -0.27364  -0.27222  -0.26725
 Alpha virt. eigenvalues --   -0.26069  -0.22550  -0.20494  -0.18655  -0.15980

  Beta  occ. eigenvalues --  -11.05724 -10.94362  -1.44411  -1.16446  -1.09319
  Beta virt. eigenvalues --   -0.85231  -0.84787  -0.76064  -0.61723  -0.43488
  Beta virt. eigenvalues --   -0.37993  -0.35109  -0.32135  -0.29864  -0.26461
  Beta virt. eigenvalues --   -0.25724  -0.25033  -0.23143  -0.21556  -0.20097

 Mulliken charges and spin densities:
               1          2
     1  C    0.887927   1.604430
     2  C    0.382219   0.420760
     3  H    0.364927  -0.012595
     4  H    0.364927  -0.012595
 Sum of Mulliken charges =   2.00000   2.00000

 Dipole moment (field-independent basis, Debye):
    X=             -0.0000    Y=             -0.0000    Z=             -0.2180  Tot=              0.2180
 Quadrupole moment (field-independent basis, Debye-Ang):
   XX=             -4.3386   YY=             -8.2053   ZZ=              0.7051
   XY=             -0.0000   XZ=              0.0000   YZ=              0.0000

  Exact polarizability:  12.788  -0.000   9.060   0.000   0.000  19.684
 Approx polarizability:  17.559  -0.000  12.090   0.000   0.000  37.284

                      1                      2                      3
                     B1                     B2                     A1
 Frequencies --    565.1910               913.3934              1074.4538
 Red. masses --      1.3343                 1.3341                 1.1635
 Frc consts  --      0.2511                 0.6558                 0.7914
 IR Inten    --     31.4444                71.3338               127.3324

                      4                      5                      6
                     A1                     A1                     B1
 Frequencies --   1263.2686              2548.4715              2591.2588
 Red. masses --      5.7295                 1.0380                 1.1100
 Frc consts  --      5.3872                 3.9720                 4.3913
 IR Inten    --      1.7058               575.0394               641.3106

 - Thermochemistry -
 -------------------
 Temperature   298.150 Kelvin.  Pressure   1.00000 Atm.
 Atom     1 has atomic number  6 and mass  12.00000

 Molecular mass:    26.01565 amu.
 Principal axes and moments of inertia in atomic units:
                           1         2         3
     Eigenvalues --     7.17444  50.60933  57.78377
           X            0.00000   1.00000   0.00000
           Y            0.00000  -0.00000   1.00000
           Z            1.00000   0.00000  -0.00000
 This molecule is an asymmetric top.
 Rotational symmetry number  2.
 Rotational temperatures (Kelvin)     12.07255     1.71142     1.49893
 Rotational constants (GHZ):         251.55137    35.66025    31.23266
 Zero-point vibrational energy      53569.0 (Joules/Mol)
                                   12.80330 (Kcal/Mol)
 Warning -- explicit consideration of   1 degrees of freedom as
           vibrations may cause significant error
 Vibrational temperatures:    813.18  1314.17  1545.90  1817.56  3666.68
          (Kelvin)           3728.24

 Zero-point correction=                           0.020403 (Hartree/Particle)
 Thermal correction to Energy=                    0.023508
 Thermal correction to Enthalpy=                  0.024452
 Thermal correction to Gibbs Free Energy=        -0.001655
 Sum of electronic and zero-point Energies=            -76.113135
 Sum of electronic and thermal Energies=               -76.110030
 Sum of electronic and thermal Enthalpies=             -76.109086
 Sum of electronic and thermal Free Energies=          -76.135193

                     E (Thermal)             CV                S
                      KCal/Mol        Cal/Mol-Kelvin    Cal/Mol-Kelvin
 Total                   14.752              8.022             54.948
 Electronic               0.000              0.000              2.183
 Translational            0.889              2.981             35.704
 Rotational               0.889              2.981             16.313
 Vibrational             12.974              2.061              0.747
 Vibration     1          0.921              1.107              0.514

 Optimization completed.
    -- Stationary point found.
 Normal termination of Gaussian 09 at Tue Jul 19 03:06:15 2016.
