 Gaussian 09, Revision E.01,
 Gaussian 09:  EM64L-G09RevE.01 30-Nov-2015

 ---------------------------------------------
 #p b3lyp/6-311++G(3df,2p) freq symmetry=Loose
 ---------------------------------------------

 ---------
 b3lyp opt
 ---------
 Symbolic Z-matrix:
 Charge =  1 Multiplicity = 4

                         Standard orientation:
 ---------------------------------------------------------------------
 Center     Atomic      Atomic             Coordinates (Angstroms)
 Number     Number       Type             X           Y           Z
 ---------------------------------------------------------------------
      1          6           0        0.000000    0.000000    0.877872
      2          6           0       -0.000000    0.000000   -0.523137
      3          1           0       -0.950247    0.000046   -1.064203
      4          1           0        0.950247   -0.000046   -1.064203
 ---------------------------------------------------------------------

 SCF Done:  E(UB3LYP) =  -76.8198264576     A.U. after   11 cycles

 The electronic state is 4-A.
 Alpha  occ. eigenvalues --  -10.62343 -10.58830  -1.13199  -0.88812  -0.78690
 Alpha  occ. eigenvalues --   -0.71353  -0.65925  -0.55826
 Alpha virt. eigenvalues --   -0.38096  -0.18622  -0.14283  -0.13619  -0.11476
 Alpha virt. eigenvalues --   -0.09945  -0.07871  -0.06742  -0.05035  -0.03296
 Alpha virt. eigenvalues --   -0.01714  -0.01144   0.00308   0.00676   0.02981

  Beta  occ. eigenvalues --  -10.58121 -10.57794  -1.06066  -0.82330  -0.75930
  Beta virt. eigenvalues --   -0.50044  -0.47887  -0.35160  -0.28108  -0.17726
  Beta virt. eigenvalues --   -0.13842  -0.12317  -0.10518  -0.09054  -0.06865
  Beta virt. eigenvalues --   -0.04902  -0.03964  -0.02414  -0.01238   0.00921

 Mulliken charges and spin densities:
               1          2
     1  C    0.339485   2.384076
     2  C    0.169946   0.524512
     3  H    0.245284   0.045706
     4  H    0.245284   0.045706
 Sum of Mulliken charges =   1.00000   3.00000

 Dipole moment (field-independent basis, Debye):
    X=              0.0000    Y=             -0.0000    Z=             -0.5947  Tot=              0.5947
 Quadrupole moment (field-independent basis, Debye-Ang):
   XX=             -8.8240   YY=             -9.7986   ZZ=             -5.4871
   XY=             -0.0000   XZ=             -0.0000   YZ=              0.0000

  Exact polarizability:  14.903  -0.000  12.054  -0.000   0.000  23.177
 Approx polarizability:  18.296  -0.000  16.176  -0.000   0.000  34.259

                      1                      2                      3
                      B                      B                      A
 Frequencies --    999.2538              1051.5155              1304.0097
 Red. masses --      1.2860                 1.3198                 6.3203
 Frc consts  --      0.7566                 0.8598                 6.3321
 IR Inten    --      3.9321                27.5440                 6.4340

                      4                      5                      6
                      A                      A                      B
 Frequencies --   1404.5619              3022.0167              3144.8696
 Red. masses --      1.1326                 1.0458                 1.1236
 Frc consts  --      1.3164                 5.6271                 6.5475
 IR Inten    --      9.5379                43.9368                71.9792

 - Thermochemistry -
 -------------------
 Temperature   298.150 Kelvin.  Pressure   1.00000 Atm.
 Atom     1 has atomic number  6 and mass  12.00000

 Molecular mass:    26.01565 amu.
 Principal axes and moments of inertia in atomic units:
                           1         2         3
     Eigenvalues --     6.49959  52.29233  58.79192
           X            0.00000   1.00000   0.00005
           Y            0.00000  -0.00005   1.00000
           Z            1.00000   0.00000  -0.00000
 This molecule is an asymmetric top.
 Rotational symmetry number  2.
 Rotational temperatures (Kelvin)     13.32604     1.65634     1.47323
 Rotational constants (GHZ):         277.67003    34.51254    30.69710
 Zero-point vibrational energy      65353.4 (Joules/Mol)
                                   15.61983 (Kcal/Mol)
 Vibrational temperatures:   1437.70  1512.89  1876.18  2020.85  4348.00
          (Kelvin)           4524.76

 Zero-point correction=                           0.024892 (Hartree/Particle)
 Thermal correction to Energy=                    0.027810
 Thermal correction to Enthalpy=                  0.028754
 Thermal correction to Gibbs Free Energy=         0.002651
 Sum of electronic and zero-point Energies=            -76.794935
 Sum of electronic and thermal Energies=               -76.792017
 Sum of electronic and thermal Enthalpies=             -76.791073
 Sum of electronic and thermal Free Energies=          -76.817175

                     E (Thermal)             CV                S
                      KCal/Mol        Cal/Mol-Kelvin    Cal/Mol-Kelvin
 Total                   17.451              6.914             54.938
 Electronic               0.000              0.000              2.755
 Translational            0.889              2.981             35.704
 Rotational               0.889              2.981             16.265
 Vibrational             15.673              0.953              0.214

 Optimization completed.
    -- Stationary point found.
 Normal termination of Gaussian 09 at Tue Jul 19 03:06:24 2016.
