 Gaussian 09, Revision E.01,
 Gaussian 09:  EM64L-G09RevE.01 30-Nov-2015

 ---------------------------------------------
 #p b3lyp/6-311++G(3df,2p) freq symmetry=Loose
 ---------------------------------------------

 ---------
 b3lyp opt
 ---------
 Symbolic Z-matrix:
 Charge =  3 Multiplicity = 4

                         Standard orientation:
 ---------------------------------------------------------------------
 Center     Atomic      Atomic             Coordinates (Angstroms)
 Number     Number       Type             X           Y           Z
 ---------------------------------------------------------------------
      1          6           0        0.014593    0.027392   -0.000170
      2          6           0       -1.446498   -0.106857    0.000052
      3          6           0        1.419549    0.033932    0.000035
      4          1           0        2.585263   -0.104541    0.000280
      5          1           0       -2.511127    0.377739    0.000221
 ---------------------------------------------------------------------

 SCF Done:  E(UB3LYP) =  -113.330387339     A.U. after   13 cycles

 The electronic state is 4-A.
 Alpha  occ. eigenvalues --  -11.25580 -11.23696 -11.22963  -1.72689  -1.60547
 Alpha  occ. eigenvalues --   -1.37448  -1.33388  -1.25924  -1.24551  -1.12245
 Alpha virt. eigenvalues --   -1.01636  -0.90954  -0.87013  -0.81360  -0.64132
 Alpha virt. eigenvalues --   -0.57700  -0.52524  -0.47572  -0.46402  -0.46022
 Alpha virt. eigenvalues --   -0.44258  -0.44246  -0.40202  -0.39743  -0.36358

  Beta  occ. eigenvalues --  -11.23404 -11.22151 -11.21253  -1.64645  -1.55051
  Beta  occ. eigenvalues --   -1.34671  -1.31713
  Beta virt. eigenvalues --   -1.08958  -1.07524  -0.96163  -0.93803  -0.79207
  Beta virt. eigenvalues --   -0.78887  -0.75297  -0.62112  -0.56606  -0.51084
  Beta virt. eigenvalues --   -0.46896  -0.45451  -0.44655  -0.42068  -0.41959

 Mulliken charges and spin densities:
               1          2
     1  C    0.708040   1.292046
     2  C    0.326645   0.876971
     3  C    0.909324   0.873923
     4  H    0.570339  -0.028517
     5  H    0.485653  -0.014424
 Sum of Mulliken charges =   3.00000   3.00000

 Dipole moment (field-independent basis, Debye):
    X=              0.2706    Y=              0.3108    Z=              0.0005  Tot=              0.4121
 Quadrupole moment (field-independent basis, Debye-Ang):
   XX=             30.6638   YY=            -11.4725   ZZ=            -10.6441
   XY=             -1.6017   XZ=              0.0003   YZ=              0.0002

  Exact polarizability:  46.378   0.970  12.735   0.000   0.000  12.810
 Approx polarizability:  78.117   4.562  17.193   0.000  -0.000  17.698

                      1                      2                      3
                      A                      A                      A
 Frequencies --    267.7329               268.3862               315.1445
 Red. masses --      2.8509                 2.1306                 1.9443
 Frc consts  --      0.1204                 0.0904                 0.1138
 IR Inten    --     39.4847                90.4341                66.8778

                      4                      5                      6
                      A                      A                      A
 Frequencies --    396.2455               764.4157               847.8276
 Red. masses --      1.3447                 1.3682                 4.2479
 Frc consts  --      0.1244                 0.4711                 1.7990
 IR Inten    --     13.2331                26.7937                21.6084

                      7                      8                      9
                      A                      A                      A
 Frequencies --   1211.5814              2386.8722              2444.5156
 Red. masses --      5.2890                 1.1302                 1.1188
 Frc consts  --      4.5744                 3.7937                 3.9390
 IR Inten    --    199.8654              2143.0012                70.7374

 - Thermochemistry -
 -------------------
 Temperature   298.150 Kelvin.  Pressure   1.00000 Atm.
 Atom     1 has atomic number  6 and mass  12.00000

 Molecular mass:    38.01565 amu.
 Principal axes and moments of inertia in atomic units:
                           1         2         3
     Eigenvalues --     1.03274 222.85807 223.89081
           X            0.99981  -0.01946  -0.00000
           Y            0.01946   0.99981   0.00019
           Z           -0.00000  -0.00019   1.00000
 This molecule is an asymmetric top.
 Rotational symmetry number  1.
 Rotational temperatures (Kelvin)     83.86782     0.38865     0.38686
 Rotational constants (GHZ):        1747.52389     8.09816     8.06081
 Zero-point vibrational energy      53250.1 (Joules/Mol)
                                   12.72708 (Kcal/Mol)
 Warning -- explicit consideration of   4 degrees of freedom as
           vibrations may cause significant error
 Vibrational temperatures:    385.21   386.15   453.42   570.11  1099.82
          (Kelvin)           1219.83  1743.19  3434.17  3517.11

 Zero-point correction=                           0.020282 (Hartree/Particle)
 Thermal correction to Energy=                    0.024923
 Thermal correction to Enthalpy=                  0.025868
 Thermal correction to Gibbs Free Energy=        -0.004613
 Sum of electronic and zero-point Energies=           -113.310105
 Sum of electronic and thermal Energies=              -113.305464
 Sum of electronic and thermal Enthalpies=            -113.304520
 Sum of electronic and thermal Free Energies=         -113.335001

                     E (Thermal)             CV                S
                      KCal/Mol        Cal/Mol-Kelvin    Cal/Mol-Kelvin
 Total                   15.640             14.037             64.152
 Electronic               0.000              0.000              2.755
 Translational            0.889              2.981             36.835
 Rotational               0.889              2.981             18.583
 Vibrational             13.862              8.075              5.979
 Vibration     1          0.673              1.732              1.611
 Vibration     2          0.673              1.731              1.607
 Vibration     3          0.703              1.645              1.335
 Vibration     4          0.763              1.478              0.977

 Optimization completed.
    -- Stationary point found.
 Normal termination of Gaussian 09 at Sun Jun 19 00:38:40 2016.
