 Gaussian 09, Revision E.01,
 Gaussian 09:  EM64L-G09RevE.01 30-Nov-2015

 ---------------------------------------------
 #p b3lyp/6-311++G(3df,2p) freq symmetry=Loose
 ---------------------------------------------

 ---------
 b3lyp opt
 ---------
 Symbolic Z-matrix:
 Charge =  2 Multiplicity = 3

                         Standard orientation:
 ---------------------------------------------------------------------
 Center     Atomic      Atomic             Coordinates (Angstroms)
 Number     Number       Type             X           Y           Z
 ---------------------------------------------------------------------
      1          6           0        0.000000   -0.000000    0.000000
      2          6           0        0.000000    0.000000    1.316182
      3          6           0        0.000000    0.000000   -1.316182
      4          1           0       -0.000000   -0.000000   -2.422406
      5          1           0       -0.000000   -0.000000    2.422406
 ---------------------------------------------------------------------

 SCF Done:  E(UB3LYP) =  -114.325630862     A.U. after   12 cycles

 Unable to determine electronic state:  an orbital has unidentified symmetry.
 Alpha  occ. eigenvalues --  -10.88949 -10.88943 -10.86655  -1.43048  -1.32217
 Alpha  occ. eigenvalues --   -1.11274  -1.08302  -0.96268  -0.95140  -0.81324
 Alpha virt. eigenvalues --   -0.73854  -0.52821  -0.52146  -0.44300  -0.37270
 Alpha virt. eigenvalues --   -0.36222  -0.27905  -0.27841  -0.27550  -0.27230
 Alpha virt. eigenvalues --   -0.22634  -0.22609  -0.20355  -0.20171  -0.16531

  Beta  occ. eigenvalues --  -10.87535 -10.87532 -10.86086  -1.38483  -1.27791
  Beta  occ. eigenvalues --   -1.09359  -1.07069  -0.90558
  Beta virt. eigenvalues --   -0.82629  -0.68061  -0.67007  -0.47382  -0.46825
  Beta virt. eigenvalues --   -0.41217  -0.35994  -0.35694  -0.27496  -0.27216
  Beta virt. eigenvalues --   -0.26764  -0.26353  -0.22243  -0.21777  -0.18966

 Mulliken charges and spin densities:
               1          2
     1  C    0.104296   0.422731
     2  C    0.459520   0.811906
     3  C    0.459520   0.811906
     4  H    0.488332  -0.023271
     5  H    0.488332  -0.023271
 Sum of Mulliken charges =   2.00000   2.00000

 Dipole moment (field-independent basis, Debye):
    X=             -0.0000    Y=             -0.0000    Z=              0.0000  Tot=              0.0000
 Quadrupole moment (field-independent basis, Debye-Ang):
   XX=            -11.7199   YY=            -14.7780   ZZ=             15.1434
   XY=              0.0000   XZ=             -0.0000   YZ=             -0.0000

  Exact polarizability:  13.630  -0.000  14.313  -0.000   0.000  43.849
 Approx polarizability:  19.412   0.000  18.185  -0.000  -0.000  80.999

                      1                      2                      3
                     ?A                     ?A                     PIG
 Frequencies --    203.5409               279.0332               282.9178
 Red. masses --      3.5354                 2.7949                 1.2643
 Frc consts  --      0.0863                 0.1282                 0.0596
 IR Inten    --     30.1478                21.2026                 0.0000

                      4                      5                      6
                     ?A                     PIG                    ?A
 Frequencies --    376.1622               827.0250               863.2916
 Red. masses --      1.3431                 1.2643                 1.4935
 Frc consts  --      0.1120                 0.5095                 0.6558
 IR Inten    --    104.1586                 0.0000                 8.6216

                      7                      8                      9
                     SGG                    SGU                    SGU
 Frequencies --   1170.1780              1545.9024              3011.5243
 Red. masses --      5.3371                 7.2377                 1.1246
 Frc consts  --      4.3059                10.1909                 6.0092
 IR Inten    --      0.0000               409.1259               912.5254

                     10
                     SGG
 Frequencies --   3031.8393
 Red. masses --      1.1259
 Frc consts  --      6.0975
 IR Inten    --      0.0000

 - Thermochemistry -
 -------------------
 Temperature   298.150 Kelvin.  Pressure   1.00000 Atm.
 Atom     1 has atomic number  6 and mass  12.00000

 Molecular mass:    38.01565 amu.
 Principal axes and moments of inertia in atomic units:
                           1         2         3
     Eigenvalues --     0.00000 190.70899 190.70899
           X           -0.00000   1.00000  -0.00000
           Y           -0.00000   0.00000   1.00000
           Z            1.00000   0.00000  -0.00000
 This molecule is a prolate symmetric top.
 Rotational symmetry number  2.
 Rotational temperature (Kelvin)      0.45417
 Rotational constant (GHZ):           9.463325
 Zero-point vibrational energy      69332.1 (Joules/Mol)
                                   16.57076 (Kcal/Mol)
 Warning -- explicit consideration of   4 degrees of freedom as
           vibrations may cause significant error
 Vibrational temperatures:    292.85   401.47   407.06   541.21  1189.90
          (Kelvin)           1242.08  1683.62  2224.21  4332.91  4362.14

 Zero-point correction=                           0.026407 (Hartree/Particle)
 Thermal correction to Energy=                    0.030701
 Thermal correction to Enthalpy=                  0.031645
 Thermal correction to Gibbs Free Energy=         0.003549
 Sum of electronic and zero-point Energies=           -114.299224
 Sum of electronic and thermal Energies=              -114.294930
 Sum of electronic and thermal Enthalpies=            -114.293986
 Sum of electronic and thermal Free Energies=         -114.322082

                     E (Thermal)             CV                S
                      KCal/Mol        Cal/Mol-Kelvin    Cal/Mol-Kelvin
 Total                   19.265             13.190             59.134
 Electronic               0.000              0.000              2.183
 Translational            0.889              2.981             36.835
 Rotational               0.592              1.987             13.501
 Vibrational             17.784              8.222              6.615
 Vibration     1          0.639              1.835              2.101
 Vibration     2          0.679              1.712              1.540
 Vibration     3          0.682              1.705              1.516
 Vibration     4          0.747              1.521              1.055

 Normal termination of Gaussian 09 at Tue Jul 19 03:16:33 2016.
