 Gaussian 09, Revision E.01,
 Gaussian 09:  EM64L-G09RevE.01 30-Nov-2015

 ---------------------------------------------
 #p b3lyp/6-311++G(3df,2p) freq symmetry=Loose
 ---------------------------------------------

 ---------
 b3lyp opt
 ---------
 Symbolic Z-matrix:
 Charge =  2 Multiplicity = 1

                         Standard orientation:
 ---------------------------------------------------------------------
 Center     Atomic      Atomic             Coordinates (Angstroms)
 Number     Number       Type             X           Y           Z
 ---------------------------------------------------------------------
      1          6           0       -1.329486   -0.355933   -0.000101
      2          6           0       -0.077796    0.362350    0.000016
      3          6           0        1.096440   -0.153138    0.000057
      4          1           0        2.106323   -0.617774    0.000091
      5          1           0       -0.241269    1.498099    0.000072
 ---------------------------------------------------------------------

 SCF Done:  E(RB3LYP) =  -114.323803359     A.U. after   12 cycles

 The electronic state is 1-A.
 Alpha  occ. eigenvalues --  -10.95595 -10.91988 -10.80138  -1.43372  -1.26699
 Alpha  occ. eigenvalues --   -1.12271  -1.06127  -0.92709  -0.90009
 Alpha virt. eigenvalues --   -0.71943  -0.71629  -0.69693  -0.52539  -0.40850
 Alpha virt. eigenvalues --   -0.36298  -0.33778  -0.29377  -0.28901  -0.27724
 Alpha virt. eigenvalues --   -0.24177  -0.23293  -0.21932  -0.21595  -0.19606

 Mulliken charges:
               1
     1  C    0.476983
     2  C    0.187198
     3  C    0.549602
     4  H    0.481946
     5  H    0.304272
 Sum of Mulliken charges =   2.00000

 Dipole moment (field-independent basis, Debye):
    X=              2.0778    Y=              0.3984    Z=              0.0001  Tot=              2.1157
 Quadrupole moment (field-independent basis, Debye-Ang):
   XX=              2.5978   YY=             -7.4982   ZZ=            -13.9006
   XY=             -2.7071   XZ=              0.0008   YZ=              0.0002

  Exact polarizability:  39.468   0.023  21.142   0.002   0.000  15.834
 Approx polarizability: 103.226   2.247  35.456   0.005   0.001  22.826

                      1                      2                      3
                      A                      A                      A
 Frequencies --    325.1714               511.5189               747.8472
 Red. masses --      3.1823                 1.4916                 1.1459
 Frc consts  --      0.1983                 0.2299                 0.3776
 IR Inten    --     13.2403                67.0131                40.2053

                      4                      5                      6
                      A                      A                      A
 Frequencies --    805.5481               948.0132              1114.2411
 Red. masses --      1.3754                 1.9319                 3.2778
 Frc consts  --      0.5259                 1.0230                 2.3977
 IR Inten    --     21.2613                86.0015               144.3315

                      7                      8                      9
                      A                      A                      A
 Frequencies --   1712.5094              2570.7898              2994.3242
 Red. masses --      5.5282                 1.0842                 1.1575
 Frc consts  --      9.5520                 4.2219                 6.1148
 IR Inten    --    589.2648               697.2998               325.0185

 - Thermochemistry -
 -------------------
 Temperature   298.150 Kelvin.  Pressure   1.00000 Atm.
 Atom     1 has atomic number  6 and mass  12.00000

 Molecular mass:    38.01565 amu.
 Principal axes and moments of inertia in atomic units:
                           1         2         3
     Eigenvalues --    21.16994 143.64458 164.81453
           X            0.99890  -0.04691  -0.00006
           Y            0.04691   0.99890  -0.00006
           Z            0.00006   0.00005   1.00000
 This molecule is an asymmetric top.
 Rotational symmetry number  1.
 Rotational temperatures (Kelvin)      4.09136     0.60297     0.52552
 Rotational constants (GHZ):          85.25017    12.56394    10.95013
 Zero-point vibrational energy      70160.8 (Joules/Mol)
                                   16.76882 (Kcal/Mol)
 Warning -- explicit consideration of   2 degrees of freedom as
           vibrations may cause significant error
 Vibrational temperatures:    467.85   735.96  1075.98  1159.00  1363.98
          (Kelvin)           1603.14  2463.92  3698.79  4308.16

 Zero-point correction=                           0.026723 (Hartree/Particle)
 Thermal correction to Energy=                    0.030403
 Thermal correction to Enthalpy=                  0.031347
 Thermal correction to Gibbs Free Energy=         0.002731
 Sum of electronic and zero-point Energies=           -114.297081
 Sum of electronic and thermal Energies=              -114.293400
 Sum of electronic and thermal Enthalpies=            -114.292456
 Sum of electronic and thermal Free Energies=         -114.321073

                     E (Thermal)             CV                S
                      KCal/Mol        Cal/Mol-Kelvin    Cal/Mol-Kelvin
 Total                   19.078             10.936             60.229
 Electronic               0.000              0.000              0.000
 Translational            0.889              2.981             36.835
 Rotational               0.889              2.981             20.844
 Vibrational             17.301              4.974              2.550
 Vibration     1          0.709              1.625              1.284
 Vibration     2          0.867              1.224              0.630

 Optimization completed.
    -- Stationary point found.
 Normal termination of Gaussian 09 at Tue Jul 19 03:11:06 2016.
