 Gaussian 09, Revision E.01,
 Gaussian 09:  EM64L-G09RevE.01 30-Nov-2015

 ------------------------------------------------------
 #p b3lyp/6-311++G(3df,2p) freq IOp(2/17=3) IOp(2/18=3)
 ------------------------------------------------------

 ---------
 b3lyp opt
 ---------
 Symbolic Z-matrix:
 Charge =  2 Multiplicity = 1

                         Standard orientation:
 ---------------------------------------------------------------------
 Center     Atomic      Atomic             Coordinates (Angstroms)
 Number     Number       Type             X           Y           Z
 ---------------------------------------------------------------------
      1          6           0        1.374581   -0.068924    0.000000
      2          6           0        0.000000    0.370607    0.000000
      3          6           0       -1.039865   -0.379885    0.000000
      4          1           0       -1.929714   -1.046158    0.000000
      5          1           0       -0.078580    1.515366    0.000000
 ---------------------------------------------------------------------

 SCF Done:  E(RB3LYP) =  -114.323803473     A.U. after   12 cycles

 The electronic state is 1-A'.
 Alpha  occ. eigenvalues --  -10.95595 -10.91988 -10.80138  -1.43372  -1.26699
 Alpha  occ. eigenvalues --   -1.12271  -1.06127  -0.92709  -0.90009
 Alpha virt. eigenvalues --   -0.71943  -0.71629  -0.69693  -0.52539  -0.40850
 Alpha virt. eigenvalues --   -0.36297  -0.33779  -0.29379  -0.28902  -0.27720
 Alpha virt. eigenvalues --   -0.24178  -0.23296  -0.21931  -0.21595  -0.19608

 Mulliken charges:
               1
     1  C    0.477030
     2  C    0.187058
     3  C    0.549714
     4  H    0.481959
     5  H    0.304239
 Sum of Mulliken charges =   2.00000

 Dipole moment (field-independent basis, Debye):
    X=             -2.1152    Y=             -0.0467    Z=              0.0000  Tot=              2.1157
 Quadrupole moment (field-independent basis, Debye-Ang):
   XX=              1.0417   YY=             -5.9422   ZZ=            -13.9006
   XY=              4.5406   XZ=              0.0000   YZ=              0.0000

  Exact polarizability:  38.669   3.740  21.941   0.000   0.000  15.834
 Approx polarizability: 101.162  11.860  37.520  -0.000  -0.000  22.826

                      1                      2                      3
                     A'                     A"                     A'
 Frequencies --    325.1657               511.3405               747.9462
 Red. masses --      3.1816                 1.4917                 1.1461
 Frc consts  --      0.1982                 0.2298                 0.3778
 IR Inten    --     13.2781                66.9738                40.2164

                      4                      5                      6
                     A"                     A'                     A'
 Frequencies --    805.6159               947.9689              1114.1879
 Red. masses --      1.3753                 1.9322                 3.2764
 Frc consts  --      0.5259                 1.0231                 2.3964
 IR Inten    --     21.2756                86.0789               144.2869

                      7                      8                      9
                     A'                     A'                     A'
 Frequencies --   1712.3773              2570.9496              2995.5052
 Red. masses --      5.5310                 1.0842                 1.1574
 Frc consts  --      9.5555                 4.2224                 6.1189
 IR Inten    --    589.2466               697.0673               325.4570

 - Thermochemistry -
 -------------------
 Temperature   298.150 Kelvin.  Pressure   1.00000 Atm.
 Atom     1 has atomic number  6 and mass  12.00000

 Molecular mass:    38.01565 amu.
 Principal axes and moments of inertia in atomic units:
                           1         2         3
     Eigenvalues --    21.16994 143.64458 164.81453
           X            0.98649  -0.16382   0.00000
           Y            0.16382   0.98649   0.00000
           Z            0.00000   0.00000   1.00000
 This molecule is an asymmetric top.
 Rotational symmetry number  1.
 Rotational temperatures (Kelvin)      4.09136     0.60297     0.52552
 Rotational constants (GHZ):          85.25017    12.56394    10.95013
 Zero-point vibrational energy      70167.3 (Joules/Mol)
                                   16.77039 (Kcal/Mol)
 Warning -- explicit consideration of   2 degrees of freedom as
           vibrations may cause significant error
 Vibrational temperatures:    467.84   735.70  1076.13  1159.10  1363.91
          (Kelvin)           1603.07  2463.73  3699.02  4309.86

 Zero-point correction=                           0.026725 (Hartree/Particle)
 Thermal correction to Energy=                    0.030406
 Thermal correction to Enthalpy=                  0.031350
 Thermal correction to Gibbs Free Energy=         0.002733
 Sum of electronic and zero-point Energies=           -114.297078
 Sum of electronic and thermal Energies=              -114.293398
 Sum of electronic and thermal Enthalpies=            -114.292454
 Sum of electronic and thermal Free Energies=         -114.321070

                     E (Thermal)             CV                S
                      KCal/Mol        Cal/Mol-Kelvin    Cal/Mol-Kelvin
 Total                   19.080             10.936             60.229
 Electronic               0.000              0.000              0.000
 Translational            0.889              2.981             36.835
 Rotational               0.889              2.981             20.844
 Vibrational             17.302              4.974              2.550
 Vibration     1          0.709              1.625              1.284
 Vibration     2          0.866              1.225              0.630

 Optimization completed.
    -- Stationary point found.
 Normal termination of Gaussian 09 at Thu Jan 31 04:14:05 2019.
