 Gaussian 09, Revision E.01,
 Gaussian 09:  EM64L-G09RevE.01 30-Nov-2015

 ---------------------------------------------
 #p b3lyp/6-311++G(3df,2p) freq symmetry=Loose
 ---------------------------------------------

 ---------
 b3lyp opt
 ---------
 Symbolic Z-matrix:
 Charge =  2 Multiplicity = 3

                         Standard orientation:
 ---------------------------------------------------------------------
 Center     Atomic      Atomic             Coordinates (Angstroms)
 Number     Number       Type             X           Y           Z
 ---------------------------------------------------------------------
      1          6           0        0.000000    0.000000    0.709066
      2          6           0        0.000000    0.652144   -0.601699
      3          6           0       -0.000000   -0.652144   -0.601699
      4          1           0        0.398055   -0.776044    1.482993
      5          1           0       -0.398055    0.776044    1.482993
 ---------------------------------------------------------------------

 SCF Done:  E(UB3LYP) =  -114.242706012     A.U. after   13 cycles

 The electronic state is 3-B.
 Alpha  occ. eigenvalues --  -10.93763 -10.93655 -10.89152  -1.57830  -1.24474
 Alpha  occ. eigenvalues --   -1.15416  -1.05284  -1.01167  -0.96048  -0.94668
 Alpha virt. eigenvalues --   -0.70506  -0.61902  -0.57784  -0.43746  -0.36115
 Alpha virt. eigenvalues --   -0.34986  -0.30542  -0.29544  -0.26966  -0.25257
 Alpha virt. eigenvalues --   -0.24899  -0.23814  -0.22189  -0.19828  -0.19295

  Beta  occ. eigenvalues --  -10.91539 -10.91449 -10.89192  -1.55844  -1.22165
  Beta  occ. eigenvalues --   -1.09557  -1.02460  -0.99095
  Beta virt. eigenvalues --   -0.78110  -0.75231  -0.68276  -0.56228  -0.54190
  Beta virt. eigenvalues --   -0.42456  -0.33910  -0.33854  -0.30407  -0.28710
  Beta virt. eigenvalues --   -0.26080  -0.23885  -0.23837  -0.23197  -0.21804

 Mulliken charges and spin densities:
               1          2
     1  C    0.017621  -0.125621
     2  C    0.616301   0.960803
     3  C    0.616301   0.960803
     4  H    0.374889   0.102008
     5  H    0.374889   0.102008
 Sum of Mulliken charges =   2.00000   2.00000

 Dipole moment (field-independent basis, Debye):
    X=              0.0000    Y=             -0.0000    Z=              2.4797  Tot=              2.4797
 Quadrupole moment (field-independent basis, Debye-Ang):
   XX=            -12.5697   YY=             -7.4766   ZZ=             -1.7960
   XY=             -1.2505   XZ=              0.0000   YZ=              0.0000

  Exact polarizability:  14.287  -0.191  20.977  -0.000   0.000  28.414
 Approx polarizability:  20.698   0.539  40.162  -0.000  -0.000  53.937

                      1                      2                      3
                      B                      A                      B
 Frequencies --    249.9895               254.4121               694.7413
 Red. masses --      1.5932                 1.1616                 3.5409
 Frc consts  --      0.0587                 0.0443                 1.0070
 IR Inten    --    108.3262                58.1255                27.2392

                      4                      5                      6
                      B                      A                      A
 Frequencies --    861.9178               879.5642              1101.4843
 Red. masses --      1.4201                 1.6503                 2.1334
 Frc consts  --      0.6216                 0.7522                 1.5250
 IR Inten    --     93.9792               185.9886                38.4704

                      7                      8                      9
                      A                      B                      A
 Frequencies --   1662.6444              2323.5073              2463.2542
 Red. masses --      9.4733                 1.0868                 1.0691
 Frc consts  --     15.4294                 3.4569                 3.8219
 IR Inten    --      8.2983               486.8332               751.7795

 - Thermochemistry -
 -------------------
 Temperature   298.150 Kelvin.  Pressure   1.00000 Atm.
 Atom     1 has atomic number  6 and mass  12.00000

 Molecular mass:    38.01565 amu.
 Principal axes and moments of inertia in atomic units:
                           1         2         3
     Eigenvalues --    41.92537  68.60733 108.50031
           X            0.00000  -0.05582   0.99844
           Y           -0.00000   0.99844   0.05582
           Z            1.00000   0.00000  -0.00000
 This molecule is an asymmetric top.
 Rotational symmetry number  2.
 Rotational temperatures (Kelvin)      2.06590     1.26246     0.79828
 Rotational constants (GHZ):          43.04652    26.30537    16.63351
 Zero-point vibrational energy      62753.2 (Joules/Mol)
                                   14.99837 (Kcal/Mol)
 Warning -- explicit consideration of   2 degrees of freedom as
           vibrations may cause significant error
 Vibrational temperatures:    359.68   366.04   999.58  1240.11  1265.50
          (Kelvin)           1584.79  2392.17  3343.00  3544.07

 Zero-point correction=                           0.023901 (Hartree/Particle)
 Thermal correction to Energy=                    0.027964
 Thermal correction to Enthalpy=                  0.028908
 Thermal correction to Gibbs Free Energy=        -0.000616
 Sum of electronic and zero-point Energies=           -114.218805
 Sum of electronic and thermal Energies=              -114.214742
 Sum of electronic and thermal Enthalpies=            -114.213798
 Sum of electronic and thermal Free Energies=         -114.243322

                     E (Thermal)             CV                S
                      KCal/Mol        Cal/Mol-Kelvin    Cal/Mol-Kelvin
 Total                   17.547             11.728             62.139
 Electronic               0.000              0.000              2.183
 Translational            0.889              2.981             36.835
 Rotational               0.889              2.981             18.996
 Vibrational             15.770              5.766              4.125
 Vibration     1          0.663              1.763              1.731
 Vibration     2          0.665              1.755              1.700

 Normal termination of Gaussian 09 at Tue Jul 19 03:18:01 2016.
