 Gaussian 09, Revision E.01,
 Gaussian 09:  EM64L-G09RevE.01 30-Nov-2015

 ---------------------------------------------
 #p b3lyp/6-311++G(3df,2p) freq symmetry=Loose
 ---------------------------------------------

 ---------
 b3lyp opt
 ---------
 Symbolic Z-matrix:
 Charge =  2 Multiplicity = 1

                         Standard orientation:
 ---------------------------------------------------------------------
 Center     Atomic      Atomic             Coordinates (Angstroms)
 Number     Number       Type             X           Y           Z
 ---------------------------------------------------------------------
      1          6           0        1.295236   -0.000000   -0.335132
      2          6           0       -0.000000    0.000000    0.332514
      3          6           0       -1.295236    0.000000   -0.335132
      4          1           0        0.000000   -0.935423    1.013268
      5          1           0        0.000000    0.935423    1.013268
 ---------------------------------------------------------------------

 SCF Done:  E(RB3LYP) =  -114.222021523     A.U. after   10 cycles

 The electronic state is 1-A1.
 Alpha  occ. eigenvalues --  -10.96798 -10.96795 -10.80309  -1.43601  -1.25861
 Alpha  occ. eigenvalues --   -1.08466  -1.04263  -0.92025  -0.89213
 Alpha virt. eigenvalues --   -0.72448  -0.71555  -0.70869  -0.68020  -0.41457
 Alpha virt. eigenvalues --   -0.37981  -0.34328  -0.30735  -0.30295  -0.27666
 Alpha virt. eigenvalues --   -0.26309  -0.23769  -0.22003  -0.21978  -0.20938

 Mulliken charges:
               1
     1  C    0.526730
     2  C    0.220520
     3  C    0.526730
     4  H    0.363009
     5  H    0.363009
 Sum of Mulliken charges =   2.00000

 Dipole moment (field-independent basis, Debye):
    X=             -0.0000    Y=             -0.0000    Z=              1.3534  Tot=              1.3534
 Quadrupole moment (field-independent basis, Debye-Ang):
   XX=             -5.8856   YY=             -9.8464   ZZ=             -9.3897
   XY=             -0.0000   XZ=              0.0000   YZ=             -0.0000

  Exact polarizability:  37.445   0.000  20.841  -0.000   0.000  21.741
 Approx polarizability:  86.284  -0.000  33.827   0.000  -0.000  36.986

                      1                      2                      3
                     A1                     B2                     B1
 Frequencies --    396.5237               517.5059               748.0171
 Red. masses --      8.6159                 1.8339                 1.2393
 Frc consts  --      0.7982                 0.2894                 0.4086
 IR Inten    --      7.8182                 3.0857                 6.9207

                      4                      5                      6
                     A2                     A1                     A1
 Frequencies --    764.2065               936.7339              1106.7723
 Red. masses --      1.0481                 4.8210                 1.2069
 Frc consts  --      0.3606                 2.4924                 0.8710
 IR Inten    --      0.0000                21.0605               131.6127

                      7                      8                      9
                     B1                     A1                     B2
 Frequencies --   1239.6184              2496.8188              2502.7571
 Red. masses --      5.6989                 1.0517                 1.0924
 Frc consts  --      5.1597                 3.8628                 4.0317
 IR Inten    --    752.7393               473.3509               421.7523

 - Thermochemistry -
 -------------------
 Temperature   298.150 Kelvin.  Pressure   1.00000 Atm.
 Atom     1 has atomic number  6 and mass  12.00000

 Molecular mass:    38.01565 amu.
 Principal axes and moments of inertia in atomic units:
                           1         2         3
     Eigenvalues --    27.67285 150.08107 165.15716
           X            1.00000   0.00000   0.00000
           Y           -0.00000  -0.00000   1.00000
           Z           -0.00000   1.00000   0.00000
 This molecule is an asymmetric top.
 Rotational symmetry number  2.
 Rotational temperatures (Kelvin)      3.12992     0.57711     0.52443
 Rotational constants (GHZ):          65.21704    12.02511    10.92742
 Zero-point vibrational energy      64053.8 (Joules/Mol)
                                   15.30922 (Kcal/Mol)
 Warning -- explicit consideration of   2 degrees of freedom as
           vibrations may cause significant error
 Vibrational temperatures:    570.51   744.57  1076.23  1099.52  1347.75
          (Kelvin)           1592.40  1783.53  3592.36  3600.90

 Zero-point correction=                           0.024397 (Hartree/Particle)
 Thermal correction to Energy=                    0.028023
 Thermal correction to Enthalpy=                  0.028968
 Thermal correction to Gibbs Free Energy=         0.000976
 Sum of electronic and zero-point Energies=           -114.197625
 Sum of electronic and thermal Energies=              -114.193998
 Sum of electronic and thermal Enthalpies=            -114.193054
 Sum of electronic and thermal Free Energies=         -114.221046

                     E (Thermal)             CV                S
                      KCal/Mol        Cal/Mol-Kelvin    Cal/Mol-Kelvin
 Total                   17.585             11.012             58.914
 Electronic               0.000              0.000              0.000
 Translational            0.889              2.981             36.835
 Rotational               0.889              2.981             19.778
 Vibrational             15.808              5.050              2.300
 Vibration     1          0.763              1.478              0.976
 Vibration     2          0.873              1.211              0.616

 Optimization completed.
    -- Stationary point found.
 Normal termination of Gaussian 09 at Tue Jul 19 03:15:43 2016.
