 Gaussian 09, Revision E.01,
 Gaussian 09:  EM64L-G09RevE.01 30-Nov-2015

 ---------------------------------------------
 #p b3lyp/6-311++G(3df,2p) freq symmetry=Loose
 ---------------------------------------------

 ---------
 b3lyp opt
 ---------
 Symbolic Z-matrix:
 Charge =  1 Multiplicity = 2

                         Standard orientation:
 ---------------------------------------------------------------------
 Center     Atomic      Atomic             Coordinates (Angstroms)
 Number     Number       Type             X           Y           Z
 ---------------------------------------------------------------------
      1          6           0        0.000000   -0.000000    0.866673
      2          6           0       -0.000000    0.695782   -0.286250
      3          6           0       -0.000000   -0.695782   -0.286250
      4          1           0       -0.000019   -1.599415   -0.882519
      5          1           0        0.000019    1.599415   -0.882519
 ---------------------------------------------------------------------

 SCF Done:  E(UB3LYP) =  -115.060636674     A.U. after   11 cycles

 The electronic state is 2-A.
 Alpha  occ. eigenvalues --  -10.55623 -10.54521 -10.54471  -1.25549  -0.88887
 Alpha  occ. eigenvalues --   -0.86664  -0.76006  -0.69038  -0.68179  -0.58290
 Alpha virt. eigenvalues --   -0.32686  -0.30858  -0.16616  -0.15834  -0.14698
 Alpha virt. eigenvalues --   -0.11753  -0.11668  -0.11201  -0.07754  -0.06353
 Alpha virt. eigenvalues --   -0.04876  -0.04714  -0.04040  -0.02659  -0.01343

  Beta  occ. eigenvalues --  -10.54308 -10.54249 -10.53989  -1.24460  -0.88125
  Beta  occ. eigenvalues --   -0.85452  -0.71527  -0.68374  -0.66991
  Beta virt. eigenvalues --   -0.42595  -0.32658  -0.28383  -0.16434  -0.15608
  Beta virt. eigenvalues --   -0.14291  -0.11650  -0.10981  -0.10345  -0.07041
  Beta virt. eigenvalues --   -0.05642  -0.04902  -0.04359  -0.03762  -0.02397

 Mulliken charges and spin densities:
               1          2
     1  C    0.185881   0.947523
     2  C    0.098217   0.023060
     3  C    0.098217   0.023060
     4  H    0.308843   0.003178
     5  H    0.308843   0.003178
 Sum of Mulliken charges =   1.00000   1.00000

 Dipole moment (field-independent basis, Debye):
    X=              0.0000    Y=              0.0000    Z=             -1.4262  Tot=              1.4262
 Quadrupole moment (field-independent basis, Debye-Ang):
   XX=            -14.8837   YY=             -8.2059   ZZ=            -12.3254
   XY=              0.0001   XZ=             -0.0000   YZ=             -0.0000

  Exact polarizability:  16.159   0.000  26.306  -0.000   0.000  25.072
 Approx polarizability:  23.426  -0.000  40.421  -0.000   0.000  42.441

                      1                      2                      3
                      B                      A                      B
 Frequencies --    837.9382               891.8260               987.0641
 Red. masses --      1.2235                 1.0860                 1.3136
 Frc consts  --      0.5061                 0.5089                 0.7541
 IR Inten    --     44.8961                51.4437                 8.0577

                      4                      5                      6
                      A                      A                      B
 Frequencies --    999.3139              1203.5405              1319.0980
 Red. masses --      1.4028                 7.0233                 7.2392
 Frc consts  --      0.8254                 5.9939                 7.4216
 IR Inten    --      0.0000                89.1912                15.3685

                      7                      8                      9
                      A                      B                      A
 Frequencies --   1660.7605              3218.6609              3242.7955
 Red. masses --      6.2698                 1.1038                 1.1360
 Frc consts  --     10.1887                 6.7375                 7.0382
 IR Inten    --      1.0598               138.5334                49.0540

 - Thermochemistry -
 -------------------
 Temperature   298.150 Kelvin.  Pressure   1.00000 Atm.
 Atom     1 has atomic number  6 and mass  12.00000

 Molecular mass:    38.01565 amu.
 Principal axes and moments of inertia in atomic units:
                           1         2         3
     Eigenvalues --    44.52834  59.90461 104.43295
           X            0.00000   0.00000   1.00000
           Y            1.00000   0.00000  -0.00000
           Z           -0.00000   1.00000  -0.00000
 This molecule is an asymmetric top.
 Rotational symmetry number  2.
 Rotational temperatures (Kelvin)      1.94514     1.44586     0.82937
 Rotational constants (GHZ):          40.53017    30.12692    17.28134
 Zero-point vibrational energy      85897.8 (Joules/Mol)
                                   20.53008 (Kcal/Mol)
 Vibrational temperatures:   1205.60  1283.14  1420.16  1437.79  1731.62
          (Kelvin)           1897.89  2389.46  4630.93  4665.65

 Zero-point correction=                           0.032717 (Hartree/Particle)
 Thermal correction to Energy=                    0.035778
 Thermal correction to Enthalpy=                  0.036722
 Thermal correction to Gibbs Free Energy=         0.009316
 Sum of electronic and zero-point Energies=           -115.027920
 Sum of electronic and thermal Energies=              -115.024858
 Sum of electronic and thermal Enthalpies=            -115.023914
 Sum of electronic and thermal Free Energies=         -115.051321

                     E (Thermal)             CV                S
                      KCal/Mol        Cal/Mol-Kelvin    Cal/Mol-Kelvin
 Total                   22.451              8.217             57.682
 Electronic               0.000              0.000              1.377
 Translational            0.889              2.981             36.835
 Rotational               0.889              2.981             18.883
 Vibrational             20.674              2.255              0.587

 Optimization completed.
    -- Stationary point found.
 Normal termination of Gaussian 09 at Tue Jul 19 03:10:20 2016.
