 Gaussian 09, Revision E.01,
 Gaussian 09:  EM64L-G09RevE.01 30-Nov-2015

 ---------------------------------------------
 #p b3lyp/6-311++G(3df,2p) freq symmetry=Loose
 ---------------------------------------------

 ---------
 b3lyp opt
 ---------
 Symbolic Z-matrix:
 Charge =  1 Multiplicity = 2

                         Standard orientation:
 ---------------------------------------------------------------------
 Center     Atomic      Atomic             Coordinates (Angstroms)
 Number     Number       Type             X           Y           Z
 ---------------------------------------------------------------------
      1          6           0        0.000000    0.000000    1.258395
      2          1           0        0.000000    0.000000    2.334129
      3          6           0        0.000000    0.000000   -0.000082
      4          6           0        0.000000    0.000000   -1.258294
      5          1           0        0.000000    0.000000   -2.334247
 ---------------------------------------------------------------------

 SCF Done:  E(UB3LYP) =  -115.053390653     A.U. after   12 cycles

 Unable to determine electronic state:  an orbital has unidentified symmetry.
 Alpha  occ. eigenvalues --  -10.54382 -10.54370 -10.48275  -1.10218  -1.00404
 Alpha  occ. eigenvalues --   -0.83629  -0.80372  -0.65033  -0.63012  -0.51360
 Alpha virt. eigenvalues --   -0.42832  -0.19575  -0.18559  -0.16414  -0.15086
 Alpha virt. eigenvalues --   -0.14595  -0.09802  -0.09496  -0.08851  -0.06266
 Alpha virt. eigenvalues --   -0.05978  -0.05382  -0.01191   0.00268   0.00387

  Beta  occ. eigenvalues --  -10.53354 -10.53345 -10.48647  -1.09031  -0.97796
  Beta  occ. eigenvalues --   -0.82545  -0.79676  -0.62719  -0.61092
  Beta virt. eigenvalues --   -0.41342  -0.38310  -0.18376  -0.17084  -0.16003
  Beta virt. eigenvalues --   -0.14677  -0.14203  -0.09314  -0.08568  -0.08419
  Beta virt. eigenvalues --   -0.05875  -0.05503  -0.04972  -0.01017   0.00185

 Mulliken charges and spin densities:
               1          2
     1  C    0.209419   0.603377
     2  H    0.402124  -0.016636
     3  C   -0.222908  -0.172742
     4  C    0.209363   0.602641
     5  H    0.402002  -0.016640
 Sum of Mulliken charges =   1.00000   1.00000

 Dipole moment (field-independent basis, Debye):
    X=              0.0000    Y=              0.0000    Z=              0.0006  Tot=              0.0006
 Quadrupole moment (field-independent basis, Debye-Ang):
   XX=            -16.6426   YY=            -15.0228   ZZ=              2.9989
   XY=              0.0000   XZ=              0.0000   YZ=              0.0000

  Exact polarizability:  17.874  -0.001  16.921  -0.000   0.002  49.863
 Approx polarizability:  23.110  -0.000  23.078  -0.000  -0.000 112.673

                      1                      2                      3
                     ?A                     ?A                     ?A
 Frequencies --    244.2438               270.4012               285.2288
 Red. masses --      1.8870                 2.9297                 1.2708
 Frc consts  --      0.0663                 0.1262                 0.0609
 IR Inten    --     67.7785                28.5186                 0.1550

                      4                      5                      6
                     ?A                     ?A                     ?A
 Frequencies --    381.9223               891.7743               895.8875
 Red. masses --      2.0040                 1.2706                 1.4545
 Frc consts  --      0.1722                 0.5954                 0.6878
 IR Inten    --     53.4460                 0.1288                 9.6891

                      7                      8                      9
                     SG                     SG                     SG
 Frequencies --   1308.0336              1930.3512              3320.2941
 Red. masses --      5.3460                 6.8905                 1.1330
 Frc consts  --      5.3892                15.1278                 7.3593
 IR Inten    --      0.0003               415.6508               295.4603

                     10
                     SG
 Frequencies --   3324.2691
 Red. masses --      1.1259
 Frc consts  --      7.3308
 IR Inten    --     19.9254

 - Thermochemistry -
 -------------------
 Temperature   298.150 Kelvin.  Pressure   1.00000 Atm.
 Atom     1 has atomic number  6 and mass  12.00000

 Molecular mass:    38.01565 amu.
 Principal axes and moments of inertia in atomic units:
                           1         2         3
     Eigenvalues --     0.00000 174.92674 174.92674
           X            0.00000  -0.00000   1.00000
           Y            0.00000   1.00000   0.00000
           Z            1.00000   0.00000   0.00000
 This molecule is a prolate symmetric top.
 Rotational symmetry number  1.
 Rotational temperature (Kelvin)      0.49514
 Rotational constant (GHZ):          10.317126
 Zero-point vibrational energy      76874.5 (Joules/Mol)
                                   18.37344 (Kcal/Mol)
 Warning -- explicit consideration of   4 degrees of freedom as
           vibrations may cause significant error
 Vibrational temperatures:    351.41   389.05   410.38   549.50  1283.06
          (Kelvin)           1288.98  1881.97  2777.34  4777.16  4782.88

 Zero-point correction=                           0.029280 (Hartree/Particle)
 Thermal correction to Energy=                    0.033482
 Thermal correction to Enthalpy=                  0.034426
 Thermal correction to Gibbs Free Energy=         0.006330
 Sum of electronic and zero-point Energies=           -115.024111
 Sum of electronic and thermal Energies=              -115.019909
 Sum of electronic and thermal Enthalpies=            -115.018964
 Sum of electronic and thermal Free Energies=         -115.047060

                     E (Thermal)             CV                S
                      KCal/Mol        Cal/Mol-Kelvin    Cal/Mol-Kelvin
 Total                   21.010             12.855             59.132
 Electronic               0.000              0.000              1.377
 Translational            0.889              2.981             36.835
 Rotational               0.592              1.987             14.706
 Vibrational             19.529              7.887              6.214
 Vibration     1          0.660              1.772              1.772
 Vibration     2          0.674              1.728              1.594
 Vibration     3          0.683              1.701              1.502
 Vibration     4          0.751              1.509              1.032

 Optimization completed.
    -- Stationary point found.
 Normal termination of Gaussian 09 at Sun Jun 19 00:33:21 2016.
