 Gaussian 09, Revision E.01,
 Gaussian 09:  EM64L-G09RevE.01 30-Nov-2015

 ---------------------------------------------
 #p b3lyp/6-311++G(3df,2p) freq symmetry=Loose
 ---------------------------------------------

 ---------
 b3lyp opt
 ---------
 Symbolic Z-matrix:
 Charge =  1 Multiplicity = 4

                         Standard orientation:
 ---------------------------------------------------------------------
 Center     Atomic      Atomic             Coordinates (Angstroms)
 Number     Number       Type             X           Y           Z
 ---------------------------------------------------------------------
      1          6           0       -1.487534    0.000326    0.000043
      2          6           0       -0.191404   -0.000613   -0.000064
      3          6           0        1.117369    0.000238    0.000003
      4          1           0        1.684642   -0.935908    0.000056
      5          1           0        1.684774    0.936197    0.000057
 ---------------------------------------------------------------------

 SCF Done:  E(UB3LYP) =  -114.942861633     A.U. after   13 cycles

 The electronic state is 4-A.
 Alpha  occ. eigenvalues --  -10.59929 -10.55560 -10.48186  -1.13206  -1.02648
 Alpha  occ. eigenvalues --   -0.79220  -0.74318  -0.71268  -0.66295  -0.62540
 Alpha  occ. eigenvalues --   -0.51632
 Alpha virt. eigenvalues --   -0.31797  -0.22961  -0.17688  -0.12343  -0.12166
 Alpha virt. eigenvalues --   -0.10168  -0.08817  -0.07741  -0.07057  -0.05774
 Alpha virt. eigenvalues --   -0.03491  -0.02715  -0.00914   0.00502   0.00537

  Beta  occ. eigenvalues --  -10.55884 -10.55150 -10.47236  -1.08675  -0.97250
  Beta  occ. eigenvalues --   -0.76734  -0.71519  -0.61513
  Beta virt. eigenvalues --   -0.47819  -0.46257  -0.36757  -0.23483  -0.17811
  Beta virt. eigenvalues --   -0.17061  -0.11566  -0.11447  -0.08808  -0.07903
  Beta virt. eigenvalues --   -0.06817  -0.06344  -0.04952  -0.02433  -0.01865

 Mulliken charges and spin densities:
               1          2
     1  C    0.218521   1.896737
     2  C    0.692549   0.336434
     3  C   -0.433313   0.704206
     4  H    0.261015   0.031359
     5  H    0.261229   0.031264
 Sum of Mulliken charges =   1.00000   3.00000

 Dipole moment (field-independent basis, Debye):
    X=              0.0274    Y=              0.0001    Z=              0.0001  Tot=              0.0274
 Quadrupole moment (field-independent basis, Debye-Ang):
   XX=             -3.6172   YY=            -12.7306   ZZ=            -16.7519
   XY=             -0.0002   XZ=              0.0000   YZ=              0.0000

  Exact polarizability:  46.426  -0.003  19.509  -0.000  -0.000  18.246
 Approx polarizability:  84.062  -0.008  26.932  -0.001   0.000  23.211

                      1                      2                      3
                      A                      A                      A
 Frequencies --    354.4999               397.0107               730.4249
 Red. masses --      2.1764                 6.8239                 1.3168
 Frc consts  --      0.1611                 0.6337                 0.4139
 IR Inten    --      7.1081                 7.3191                67.3655

                      4                      5                      6
                      A                      A                      A
 Frequencies --    814.8125              1134.0728              1288.2648
 Red. masses --      1.9647                 2.9867                 1.3723
 Frc consts  --      0.7685                 2.2632                 1.3419
 IR Inten    --      4.9309                 1.6580                91.2517

                      7                      8                      9
                      A                      A                      A
 Frequencies --   1752.0261              3020.9468              3092.8729
 Red. masses --     11.1498                 1.0529                 1.1094
 Frc consts  --     20.1650                 5.6614                 6.2524
 IR Inten    --     13.2100               255.4199               136.0116

 - Thermochemistry -
 -------------------
 Temperature   298.150 Kelvin.  Pressure   1.00000 Atm.
 Atom     1 has atomic number  6 and mass  12.00000

 Molecular mass:    38.01565 amu.
 Principal axes and moments of inertia in atomic units:
                           1         2         3
     Eigenvalues --     6.30689 169.27481 175.58170
           X            1.00000   0.00001   0.00001
           Y           -0.00001   1.00000  -0.00000
           Z           -0.00001   0.00000   1.00000
 This molecule is an asymmetric top.
 Rotational symmetry number  1.
 Rotational temperatures (Kelvin)     13.73321     0.51168     0.49330
 Rotational constants (GHZ):         286.15403    10.66161    10.27864
 Zero-point vibrational energy      75274.6 (Joules/Mol)
                                   17.99106 (Kcal/Mol)
 Warning -- explicit consideration of   2 degrees of freedom as
           vibrations may cause significant error
 Vibrational temperatures:    510.05   571.21  1050.92  1172.33  1631.68
          (Kelvin)           1853.52  2520.77  4346.46  4449.95

 Zero-point correction=                           0.028671 (Hartree/Particle)
 Thermal correction to Energy=                    0.032382
 Thermal correction to Enthalpy=                  0.033326
 Thermal correction to Gibbs Free Energy=         0.003806
 Sum of electronic and zero-point Energies=           -114.914191
 Sum of electronic and thermal Energies=              -114.910479
 Sum of electronic and thermal Enthalpies=            -114.909535
 Sum of electronic and thermal Free Energies=         -114.939056

                     E (Thermal)             CV                S
                      KCal/Mol        Cal/Mol-Kelvin    Cal/Mol-Kelvin
 Total                   20.320             10.840             62.131
 Electronic               0.000              0.000              2.755
 Translational            0.889              2.981             36.835
 Rotational               0.889              2.981             19.867
 Vibrational             18.543              4.878              2.674
 Vibration     1          0.730              1.566              1.146
 Vibration     2          0.764              1.477              0.974

 Optimization completed.
    -- Stationary point found.
 Normal termination of Gaussian 09 at Sun Jun 19 00:34:04 2016.
