 Gaussian 09, Revision E.01,
 Gaussian 09:  EM64L-G09RevE.01 30-Nov-2015

 ---------------------------------------------
 #p b3lyp/6-311++G(3df,2p) freq symmetry=Loose
 ---------------------------------------------

 ---------
 b3lyp opt
 ---------
 Symbolic Z-matrix:
 Charge =  2 Multiplicity = 1

                         Standard orientation:
 ---------------------------------------------------------------------
 Center     Atomic      Atomic             Coordinates (Angstroms)
 Number     Number       Type             X           Y           Z
 ---------------------------------------------------------------------
      1          6           0       -0.000000    0.000000   -0.000003
      2          6           0        0.000000    0.000000   -1.263798
      3          6           0        0.000000   -0.000000    1.263799
      4          1           0        0.000000    0.000000    2.372951
      5          1           0        0.000000    0.000000   -2.372934
 ---------------------------------------------------------------------

 SCF Done:  E(RB3LYP) =  -114.431554419     A.U. after    9 cycles

 The electronic state is 1-SG.
 Alpha  occ. eigenvalues --  -10.91030 -10.91022 -10.79463  -1.41316  -1.31014
 Alpha  occ. eigenvalues --   -1.11911  -1.09418  -0.92996  -0.92996
 Alpha virt. eigenvalues --   -0.72782  -0.72782  -0.47204  -0.47204  -0.40798
 Alpha virt. eigenvalues --   -0.37311  -0.35784  -0.27618  -0.27505  -0.27505
 Alpha virt. eigenvalues --   -0.25209  -0.22672  -0.22672  -0.19361  -0.19361

 Mulliken charges:
               1
     1  C    0.217791
     2  C    0.408077
     3  C    0.408056
     4  H    0.483036
     5  H    0.483039
 Sum of Mulliken charges =   2.00000

 Dipole moment (field-independent basis, Debye):
    X=              0.0000    Y=              0.0000    Z=              0.0001  Tot=              0.0001
 Quadrupole moment (field-independent basis, Debye-Ang):
   XX=            -13.2043   YY=            -13.2043   ZZ=             16.1473
   XY=              0.0000   XZ=             -0.0000   YZ=             -0.0000

  Exact polarizability:  13.581   0.000  13.581  -0.001  -0.000  44.284
 Approx polarizability:  18.334  -0.000  18.334   0.000  -0.000 131.643

                      1                      2                      3
                     PI                     PI                     PI
 Frequencies --    222.9675               222.9739               861.0139
 Red. masses --      2.9521                 2.9521                 1.2745
 Frc consts  --      0.0865                 0.0865                 0.5567
 IR Inten    --     54.9033                54.9047                 0.0005

                      4                      5                      6
                     PI                     PI                     PI
 Frequencies --    861.0147               866.7505               866.7550
 Red. masses --      1.2745                 1.4521                 1.4522
 Frc consts  --      0.5567                 0.6428                 0.6428
 IR Inten    --      0.0005                20.8733                20.8753

                      7                      8                      9
                     SG                     SG                     SG
 Frequencies --   1287.1778              2152.2059              3016.3336
 Red. masses --      5.1351                 4.3655                 1.1353
 Frc consts  --      5.0127                11.9138                 6.0858
 IR Inten    --      0.0001              1481.8655                 0.0059

                     10
                     SG
 Frequencies --   3051.6930
 Red. masses --      1.2526
 Frc consts  --      6.8732
 IR Inten    --    443.6204

 - Thermochemistry -
 -------------------
 Temperature   298.150 Kelvin.  Pressure   1.00000 Atm.
 Atom     1 has atomic number  6 and mass  12.00000

 Molecular mass:    38.01565 amu.
 Principal axes and moments of inertia in atomic units:
                           1         2         3
     Eigenvalues --     0.00000 177.41878 177.41878
           X            0.00000  -0.04611   0.99894
           Y           -0.00000   0.99894   0.04611
           Z            1.00000   0.00000   0.00000
 This molecule is a prolate symmetric top.
 Rotational symmetry number  1.
 Rotational temperature (Kelvin)      0.48819
 Rotational constant (GHZ):          10.172211
 Zero-point vibrational energy      80202.9 (Joules/Mol)
                                   19.16896 (Kcal/Mol)
 Warning -- explicit consideration of   2 degrees of freedom as
           vibrations may cause significant error
 Vibrational temperatures:    320.80   320.81  1238.81  1238.81  1247.06
          (Kelvin)           1247.07  1851.96  3096.54  4339.83  4390.70

 Zero-point correction=                           0.030548 (Hartree/Particle)
 Thermal correction to Energy=                    0.034219
 Thermal correction to Enthalpy=                  0.035163
 Thermal correction to Gibbs Free Energy=         0.008502
 Sum of electronic and zero-point Energies=           -114.401007
 Sum of electronic and thermal Energies=              -114.397336
 Sum of electronic and thermal Enthalpies=            -114.396391
 Sum of electronic and thermal Free Energies=         -114.423053

                     E (Thermal)             CV                S
                      KCal/Mol        Cal/Mol-Kelvin    Cal/Mol-Kelvin
 Total                   21.473             10.947             56.113
 Electronic               0.000              0.000              0.000
 Translational            0.889              2.981             36.835
 Rotational               0.592              1.987             14.734
 Vibrational             19.991              5.978              4.544
 Vibration     1          0.649              1.806              1.935
 Vibration     2          0.649              1.806              1.935

 Optimization completed.
    -- Stationary point found.
 Normal termination of Gaussian 09 at Tue Jul 19 03:09:09 2016.
