 Gaussian 09, Revision E.01,
 Gaussian 09:  EM64L-G09RevE.01 30-Nov-2015

 ---------------------------------------------
 #p b3lyp/6-311++G(3df,2p) freq symmetry=Loose
 ---------------------------------------------

 ---------
 b3lyp opt
 ---------
 Symbolic Z-matrix:
 Charge =  1 Multiplicity = 4

                         Standard orientation:
 ---------------------------------------------------------------------
 Center     Atomic      Atomic             Coordinates (Angstroms)
 Number     Number       Type             X           Y           Z
 ---------------------------------------------------------------------
      1          6           0       -0.000000   -0.000000    0.736543
      2          6           0       -0.000000   -0.680422   -0.593941
      3          6           0        0.000000    0.680422   -0.593941
      4          1           0       -0.916689   -0.000000    1.354017
      5          1           0        0.916689   -0.000000    1.354017
 ---------------------------------------------------------------------

 SCF Done:  E(UB3LYP) =  -114.907734940     A.U. after   11 cycles

 The electronic state is 4-A2.
 Alpha  occ. eigenvalues --  -10.59900 -10.59829 -10.52323  -1.24375  -0.92680
 Alpha  occ. eigenvalues --   -0.81661  -0.77697  -0.73328  -0.64784  -0.59996
 Alpha  occ. eigenvalues --   -0.57283
 Alpha virt. eigenvalues --   -0.35292  -0.17917  -0.17492  -0.14276  -0.13938
 Alpha virt. eigenvalues --   -0.12078  -0.09697  -0.07525  -0.07089  -0.05960
 Alpha virt. eigenvalues --   -0.04812  -0.03209  -0.01965  -0.01781  -0.00664

  Beta  occ. eigenvalues --  -10.57462 -10.57409 -10.51803  -1.20020  -0.88505
  Beta  occ. eigenvalues --   -0.73619  -0.72335  -0.68220
  Beta virt. eigenvalues --   -0.46814  -0.46447  -0.41431  -0.26799  -0.17052
  Beta virt. eigenvalues --   -0.14106  -0.13813  -0.12991  -0.09526  -0.09199
  Beta virt. eigenvalues --   -0.06763  -0.06292  -0.05121  -0.03885  -0.02323

 Mulliken charges and spin densities:
               1          2
     1  C   -0.162363   0.172506
     2  C    0.347433   1.306679
     3  C    0.347433   1.306679
     4  H    0.233748   0.107068
     5  H    0.233748   0.107068
 Sum of Mulliken charges =   1.00000   3.00000

 Dipole moment (field-independent basis, Debye):
    X=              0.0000    Y=             -0.0000    Z=              1.1191  Tot=              1.1191
 Quadrupole moment (field-independent basis, Debye-Ang):
   XX=            -13.1354   YY=            -13.9471   ZZ=            -10.9189
   XY=             -0.0000   XZ=              0.0000   YZ=              0.0000

  Exact polarizability:  19.469  -0.000  26.316  -0.000  -0.000  30.939
 Approx polarizability:  28.019   0.000  52.208   0.000   0.000  48.566

                      1                      2                      3
                     B1                     B2                     A2
 Frequencies --    705.5284               727.8854               855.3185
 Red. masses --      1.3041                 7.4225                 1.1468
 Frc consts  --      0.3825                 2.3170                 0.4943
 IR Inten    --      4.5195                15.1912                 0.0000

                      4                      5                      6
                     B2                     A1                     A1
 Frequencies --    971.8354              1020.3675              1268.1403
 Red. masses --      1.3038                 8.7804                 1.0606
 Frc consts  --      0.7255                 5.3861                 1.0049
 IR Inten    --    111.0040                13.4596                66.9694

                      7                      8                      9
                     A1                     A1                     B1
 Frequencies --   1463.0034              2891.2862              2934.5648
 Red. masses --     11.1285                 1.0457                 1.1003
 Frc consts  --     14.0339                 5.1502                 5.5827
 IR Inten    --      0.0086               170.1624                77.6515

 - Thermochemistry -
 -------------------
 Temperature   298.150 Kelvin.  Pressure   1.00000 Atm.
 Atom     1 has atomic number  6 and mass  12.00000

 Molecular mass:    38.01565 amu.
 Principal axes and moments of inertia in atomic units:
                           1         2         3
     Eigenvalues --    45.72809  72.04850 105.67933
           X            0.00000  -0.00000   1.00000
           Y            0.00000   1.00000   0.00000
           Z            1.00000   0.00000   0.00000
 This molecule is an asymmetric top.
 Rotational symmetry number  2.
 Rotational temperatures (Kelvin)      1.89411     1.20216     0.81959
 Rotational constants (GHZ):          39.46680    25.04898    17.07752
 Zero-point vibrational energy      76787.9 (Joules/Mol)
                                   18.35274 (Kcal/Mol)
 Vibrational temperatures:   1015.10  1047.26  1230.61  1398.25  1468.08
          (Kelvin)           1824.57  2104.93  4159.91  4222.18

 Zero-point correction=                           0.029247 (Hartree/Particle)
 Thermal correction to Energy=                    0.032449
 Thermal correction to Enthalpy=                  0.033394
 Thermal correction to Gibbs Free Energy=         0.005042
 Sum of electronic and zero-point Energies=           -114.878488
 Sum of electronic and thermal Energies=              -114.875286
 Sum of electronic and thermal Enthalpies=            -114.874341
 Sum of electronic and thermal Free Energies=         -114.902693

                     E (Thermal)             CV                S
                      KCal/Mol        Cal/Mol-Kelvin    Cal/Mol-Kelvin
 Total                   20.362              9.136             59.671
 Electronic               0.000              0.000              2.755
 Translational            0.889              2.981             36.835
 Rotational               0.889              2.981             19.104
 Vibrational             18.585              3.174              0.977

 Optimization completed.
    -- Stationary point found.
 Normal termination of Gaussian 09 at Tue Jul 19 03:16:22 2016.
