 Gaussian 09, Revision E.01,
 Gaussian 09:  EM64L-G09RevE.01 30-Nov-2015

 ---------------------------------------------
 #p b3lyp/6-311++G(3df,2p) freq symmetry=Loose
 ---------------------------------------------

 ---------
 b3lyp opt
 ---------
 Symbolic Z-matrix:
 Charge =  3 Multiplicity = 4

                         Standard orientation:
 ---------------------------------------------------------------------
 Center     Atomic      Atomic             Coordinates (Angstroms)
 Number     Number       Type             X           Y           Z
 ---------------------------------------------------------------------
      1          6           0        1.514330   -0.321435   -0.000191
      2          6           0       -1.210039   -0.201614    0.000118
      3          6           0        0.077487    0.352077    0.000018
      4          1           0        0.057379    1.538944    0.000109
      5          1           0       -2.348045   -0.513107    0.000220
 ---------------------------------------------------------------------

 SCF Done:  E(UB3LYP) =  -113.259794783     A.U. after   20 cycles

 The electronic state is 4-A.
 Alpha  occ. eigenvalues --  -11.27506 -11.25719 -11.19343  -1.71617  -1.54843
 Alpha  occ. eigenvalues --   -1.39602  -1.32651  -1.24782  -1.22881  -1.11216
 Alpha virt. eigenvalues --   -1.01741  -1.01184  -0.88671  -0.73893  -0.64694
 Alpha virt. eigenvalues --   -0.61172  -0.54428  -0.48930  -0.47770  -0.47527
 Alpha virt. eigenvalues --   -0.45716  -0.45325  -0.39955  -0.39517  -0.38078

  Beta  occ. eigenvalues --  -11.26516 -11.21633 -11.18096  -1.66636  -1.48544
  Beta  occ. eigenvalues --   -1.36858  -1.30646
  Beta virt. eigenvalues --   -1.08266  -1.03668  -0.96370  -0.94140  -0.87481
  Beta virt. eigenvalues --   -0.80238  -0.69579  -0.60736  -0.58918  -0.53180
  Beta virt. eigenvalues --   -0.46961  -0.46733  -0.46338  -0.43974  -0.43823

 Mulliken charges and spin densities:
               1          2
     1  C    0.943767   1.770307
     2  C    0.721997   0.544720
     3  C    0.392177   0.701966
     4  H    0.385667  -0.008189
     5  H    0.556392  -0.008804
 Sum of Mulliken charges =   3.00000   3.00000

 Dipole moment (field-independent basis, Debye):
    X=             -1.8274    Y=             -0.0875    Z=              0.0002  Tot=              1.8295
 Quadrupole moment (field-independent basis, Debye-Ang):
   XX=             18.7230   YY=             -5.4648   ZZ=            -10.8075
   XY=              0.9367   XZ=             -0.0032   YZ=              0.0003

  Exact polarizability:  36.457   1.424  17.585  -0.002   0.000  13.071
 Approx polarizability:  62.375   5.314  26.457  -0.004   0.000  18.205

                      1                      2                      3
                      A                      A                      A
 Frequencies --    211.5199               589.7166               593.5889
 Red. masses --      2.7459                 1.3314                 7.8341
 Frc consts  --      0.0724                 0.2728                 1.6263
 IR Inten    --     35.7504                85.9833                67.3965

                      4                      5                      6
                      A                      A                      A
 Frequencies --    785.6572               872.8947               990.5727
 Red. masses --      1.5456                 1.4292                 1.3679
 Frc consts  --      0.5621                 0.6416                 0.7908
 IR Inten    --      2.5134                17.7439                 4.7397

                      7                      8                      9
                      A                      A                      A
 Frequencies --   1230.3801              2198.4555              2370.3577
 Red. masses --      3.9491                 1.0731                 1.1401
 Frc consts  --      3.5223                 3.0557                 3.7742
 IR Inten    --    448.9258               916.4563               776.1517

 - Thermochemistry -
 -------------------
 Temperature   298.150 Kelvin.  Pressure   1.00000 Atm.
 Atom     1 has atomic number  6 and mass  12.00000

 Molecular mass:    38.01565 amu.
 Principal axes and moments of inertia in atomic units:
                           1         2         3
     Eigenvalues --    20.73625 180.76011 201.49637
           X            0.99963   0.02728   0.00011
           Y           -0.02728   0.99963  -0.00008
           Z           -0.00011   0.00007   1.00000
 This molecule is an asymmetric top.
 Rotational symmetry number  1.
 Rotational temperatures (Kelvin)      4.17693     0.47916     0.42985
 Rotational constants (GHZ):          87.03313     9.98418     8.95669
 Zero-point vibrational energy      58875.1 (Joules/Mol)
                                   14.07148 (Kcal/Mol)
 Warning -- explicit consideration of   3 degrees of freedom as
           vibrations may cause significant error
 Vibrational temperatures:    304.33   848.47   854.04  1130.38  1255.90
          (Kelvin)           1425.21  1770.24  3163.08  3410.41

 Zero-point correction=                           0.022424 (Hartree/Particle)
 Thermal correction to Energy=                    0.026325
 Thermal correction to Enthalpy=                  0.027269
 Thermal correction to Gibbs Free Energy=        -0.003286
 Sum of electronic and zero-point Energies=           -113.237370
 Sum of electronic and thermal Energies=              -113.233470
 Sum of electronic and thermal Enthalpies=            -113.232526
 Sum of electronic and thermal Free Energies=         -113.263081

                     E (Thermal)             CV                S
                      KCal/Mol        Cal/Mol-Kelvin    Cal/Mol-Kelvin
 Total                   16.519             11.679             64.309
 Electronic               0.000              0.000              2.755
 Translational            0.889              2.981             36.835
 Rotational               0.889              2.981             21.251
 Vibrational             14.742              5.717              3.468
 Vibration     1          0.643              1.823              2.031
 Vibration     2          0.947              1.054              0.468
 Vibration     3          0.951              1.045              0.461

 Normal termination of Gaussian 09 at Tue Jul 19 04:31:02 2016.
