 Gaussian 09, Revision E.01,
 Gaussian 09:  EM64L-G09RevE.01 30-Nov-2015

 ---------------------------------------------
 #p b3lyp/6-311++G(3df,2p) freq symmetry=Loose
 ---------------------------------------------

 ---------
 b3lyp opt
 ---------
 Symbolic Z-matrix:
 Charge =  0 Multiplicity = 1

                         Standard orientation:
 ---------------------------------------------------------------------
 Center     Atomic      Atomic             Coordinates (Angstroms)
 Number     Number       Type             X           Y           Z
 ---------------------------------------------------------------------
      1          6           0        0.660076   -0.000000   -0.321072
      2          6           0       -0.660076    0.000000   -0.321072
      3          6           0        0.000000    0.000000    0.928615
      4          1           0        1.593794   -0.000000   -0.859413
      5          1           0       -1.593794    0.000000   -0.859413
 ---------------------------------------------------------------------

 SCF Done:  E(RB3LYP) =  -115.395703726     A.U. after   10 cycles

 The electronic state is 1-A1.
 Alpha  occ. eigenvalues --  -10.23330 -10.23240 -10.19740  -0.93311  -0.60759
 Alpha  occ. eigenvalues --   -0.58760  -0.46013  -0.39174  -0.34007  -0.24218
 Alpha virt. eigenvalues --   -0.04753  -0.02499  -0.00507   0.00710   0.03973
 Alpha virt. eigenvalues --    0.05116   0.06801   0.07766   0.09657   0.11055
 Alpha virt. eigenvalues --    0.11078   0.11838   0.12093   0.12151   0.16540

 Mulliken charges:
               1
     1  C    0.004691
     2  C    0.004691
     3  C   -0.464551
     4  H    0.227585
     5  H    0.227585
 Sum of Mulliken charges =   0.00000

 Dipole moment (field-independent basis, Debye):
    X=              0.0000    Y=              0.0000    Z=             -3.4908  Tot=              3.4908
 Quadrupole moment (field-independent basis, Debye-Ang):
   XX=            -14.3311   YY=            -17.8359   ZZ=            -22.2717
   XY=             -0.0000   XZ=             -0.0000   YZ=              0.0000

  Exact polarizability:  34.565   0.000  23.441   0.000  -0.000  34.752
 Approx polarizability:  54.042  -0.000  34.727   0.000  -0.000  48.501

                      1                      2                      3
                     B2                     A1                     B1
 Frequencies --    800.5158               897.1878               907.9566
 Red. masses --      1.1922                 1.1268                 1.5266
 Frc consts  --      0.4501                 0.5344                 0.7415
 IR Inten    --     16.6545                22.5773                 2.8962

                      4                      5                      6
                     A2                     B1                     A1
 Frequencies --    998.0644              1084.9469              1314.6975
 Red. masses --      1.4420                 4.1880                 6.5530
 Frc consts  --      0.8463                 2.9045                 6.6733
 IR Inten    --      0.0000                13.0907                47.1660

                      7                      8                      9
                     A1                     B1                     A1
 Frequencies --   1644.1161              3219.5870              3253.3583
 Red. masses --      5.4374                 1.0876                 1.1377
 Frc consts  --      8.6598                 6.6425                 7.0951
 IR Inten    --      0.3040                 0.2301                 0.2039

 - Thermochemistry -
 -------------------
 Temperature   298.150 Kelvin.  Pressure   1.00000 Atm.
 Atom     1 has atomic number  6 and mass  12.00000

 Molecular mass:    38.01565 amu.
 Principal axes and moments of inertia in atomic units:
                           1         2         3
     Eigenvalues --    50.83144  55.62619 106.45763
           X            1.00000   0.00000  -0.00000
           Y           -0.00000  -0.00000   1.00000
           Z           -0.00000   1.00000   0.00000
 This molecule is an asymmetric top.
 Rotational symmetry number  2.
 Rotational temperatures (Kelvin)      1.70394     1.55707     0.81360
 Rotational constants (GHZ):          35.50443    32.44409    16.95267
 Zero-point vibrational energy      84458.9 (Joules/Mol)
                                   20.18617 (Kcal/Mol)
 Vibrational temperatures:   1151.76  1290.85  1306.35  1435.99  1560.99
          (Kelvin)           1891.55  2365.51  4632.26  4680.85

 Zero-point correction=                           0.032169 (Hartree/Particle)
 Thermal correction to Energy=                    0.035263
 Thermal correction to Enthalpy=                  0.036207
 Thermal correction to Gibbs Free Energy=         0.009376
 Sum of electronic and zero-point Energies=           -115.363535
 Sum of electronic and thermal Energies=              -115.360440
 Sum of electronic and thermal Enthalpies=            -115.359496
 Sum of electronic and thermal Free Energies=         -115.386327

                     E (Thermal)             CV                S
                      KCal/Mol        Cal/Mol-Kelvin    Cal/Mol-Kelvin
 Total                   22.128              8.463             56.471
 Electronic               0.000              0.000              0.000
 Translational            0.889              2.981             36.835
 Rotational               0.889              2.981             18.960
 Vibrational             20.351              2.502              0.676

 Normal termination of Gaussian 09 at Tue Jul 19 03:07:09 2016.
