 Gaussian 09, Revision E.01,
 Gaussian 09:  EM64L-G09RevE.01 30-Nov-2015

 ---------------------------------------------
 #p b3lyp/6-311++G(3df,2p) freq symmetry=Loose
 ---------------------------------------------

 ---------
 b3lyp opt
 ---------
 Symbolic Z-matrix:
 Charge =  0 Multiplicity = 3

                         Standard orientation:
 ---------------------------------------------------------------------
 Center     Atomic      Atomic             Coordinates (Angstroms)
 Number     Number       Type             X           Y           Z
 ---------------------------------------------------------------------
      1          6           0        1.479000    0.060094    0.000224
      2          6           0        0.207016   -0.127447   -0.000426
      3          6           0       -1.126507    0.035667    0.000189
      4          1           0       -1.578282    1.018870   -0.000207
      5          1           0       -1.778774   -0.828755    0.000285
 ---------------------------------------------------------------------

 SCF Done:  E(UB3LYP) =  -115.329151942     A.U. after   19 cycles

 The electronic state is 3-A.
 Alpha  occ. eigenvalues --  -10.24006 -10.23648 -10.22000  -0.83495  -0.73462
 Alpha  occ. eigenvalues --   -0.53004  -0.48782  -0.37410  -0.36103  -0.31575
 Alpha  occ. eigenvalues --   -0.23561
 Alpha virt. eigenvalues --   -0.03050  -0.00530   0.02554   0.02833   0.04232
 Alpha virt. eigenvalues --    0.06625   0.07200   0.08107   0.09464   0.09925
 Alpha virt. eigenvalues --    0.12403   0.12905   0.13646   0.14832   0.15053

  Beta  occ. eigenvalues --  -10.23365 -10.22108 -10.21077  -0.80469  -0.69282
  Beta  occ. eigenvalues --   -0.51378  -0.47141  -0.33500  -0.29693
  Beta virt. eigenvalues --   -0.19862  -0.11139  -0.01020   0.00728   0.03220
  Beta virt. eigenvalues --    0.03929   0.04560   0.06995   0.08660   0.10009
  Beta virt. eigenvalues --    0.10173   0.10524   0.12663   0.13603   0.14003

 Mulliken charges and spin densities:
               1          2
     1  C   -0.413145   1.146975
     2  C    0.587256   0.164813
     3  C   -0.538263   0.671376
     4  H    0.185464   0.003061
     5  H    0.178688   0.013776
 Sum of Mulliken charges =  -0.00000   2.00000

 Dipole moment (field-independent basis, Debye):
    X=             -2.4372    Y=             -0.5413    Z=             -0.0002  Tot=              2.4966
 Quadrupole moment (field-independent basis, Debye-Ang):
   XX=            -18.9032   YY=            -16.9871   ZZ=            -19.8702
   XY=             -1.3275   XZ=              0.0001   YZ=             -0.0010

  Exact polarizability:  84.020   2.308  26.861   0.008   0.002  27.133
 Approx polarizability: 118.281   7.784  38.057   0.011   0.005  35.029

                      1                      2                      3
                      A                      A                      A
 Frequencies --    360.4157               440.7881               653.8055
 Red. masses --      3.1525                 3.5217                 1.3584
 Frc consts  --      0.2413                 0.4032                 0.3421
 IR Inten    --     21.1865                 4.5574                61.0245

                      4                      5                      6
                      A                      A                      A
 Frequencies --    917.3302              1007.5865              1363.2583
 Red. masses --      1.7510                 3.8639                 1.6186
 Frc consts  --      0.8681                 2.3112                 1.7724
 IR Inten    --    195.0886               299.4551               354.1033

                      7                      8                      9
                      A                      A                      A
 Frequencies --   1445.6090              3126.1220              3212.1998
 Red. masses --      2.7719                 1.0514                 1.1141
 Frc consts  --      3.4130                 6.0536                 6.7727
 IR Inten    --    474.2852                18.8374                 4.0101

 - Thermochemistry -
 -------------------
 Temperature   298.150 Kelvin.  Pressure   1.00000 Atm.
 Atom     1 has atomic number  6 and mass  12.00000

 Molecular mass:    38.01565 amu.
 Principal axes and moments of inertia in atomic units:
                           1         2         3
     Eigenvalues --     7.10827 169.26751 176.37576
           X            0.99999  -0.00329  -0.00000
           Y            0.00329   0.99999  -0.00022
           Z            0.00000   0.00022   1.00000
 This molecule is an asymmetric top.
 Rotational symmetry number  1.
 Rotational temperatures (Kelvin)     12.18494     0.51170     0.49108
 Rotational constants (GHZ):         253.89319    10.66206    10.23237
 Zero-point vibrational energy      74928.8 (Joules/Mol)
                                   17.90841 (Kcal/Mol)
 Warning -- explicit consideration of   2 degrees of freedom as
           vibrations may cause significant error
 Vibrational temperatures:    518.56   634.19   940.68  1319.83  1449.69
          (Kelvin)           1961.42  2079.91  4497.79  4621.63

 Zero-point correction=                           0.028539 (Hartree/Particle)
 Thermal correction to Energy=                    0.032227
 Thermal correction to Enthalpy=                  0.033171
 Thermal correction to Gibbs Free Energy=         0.003915
 Sum of electronic and zero-point Energies=           -115.300613
 Sum of electronic and thermal Energies=              -115.296925
 Sum of electronic and thermal Enthalpies=            -115.295981
 Sum of electronic and thermal Free Energies=         -115.325237

                     E (Thermal)             CV                S
                      KCal/Mol        Cal/Mol-Kelvin    Cal/Mol-Kelvin
 Total                   20.223             10.873             61.575
 Electronic               0.000              0.000              2.183
 Translational            0.889              2.981             36.835
 Rotational               0.889              2.981             19.990
 Vibrational             18.445              4.912              2.567
 Vibration     1          0.735              1.554              1.120
 Vibration     2          0.801              1.381              0.824

 Optimization completed.
    -- Stationary point found.
 Normal termination of Gaussian 09 at Sun Jun 19 00:34:08 2016.
