 Gaussian 09, Revision E.01,
 Gaussian 09:  EM64L-G09RevE.01 30-Nov-2015

 ------------------------------------------------------
 #p b3lyp/6-311++G(3df,2p) freq IOp(2/17=3) IOp(2/18=3)
 ------------------------------------------------------

 ---------
 b3lyp opt
 ---------
 Symbolic Z-matrix:
 Charge =  3 Multiplicity = 4

                         Standard orientation:
 ---------------------------------------------------------------------
 Center     Atomic      Atomic             Coordinates (Angstroms)
 Number     Number       Type             X           Y           Z
 ---------------------------------------------------------------------
      1          6           0       -1.548025    0.011568    0.000000
      2          6           0        1.138422   -0.456988    0.000000
      3          6           0        0.000000    0.360503    0.000000
      4          1           0        0.274743    1.515308    0.000000
      5          1           0        2.182877   -1.005803    0.000000
 ---------------------------------------------------------------------

 SCF Done:  E(UB3LYP) =  -113.259795900     A.U. after   20 cycles

 The electronic state is 4-A".
 Alpha  occ. eigenvalues --  -11.27506 -11.25719 -11.19343  -1.71617  -1.54843
 Alpha  occ. eigenvalues --   -1.39602  -1.32651  -1.24782  -1.22881  -1.11216
 Alpha virt. eigenvalues --   -1.01741  -1.01184  -0.88671  -0.73893  -0.64694
 Alpha virt. eigenvalues --   -0.61171  -0.54427  -0.48931  -0.47769  -0.47528
 Alpha virt. eigenvalues --   -0.45709  -0.45323  -0.39955  -0.39514  -0.38080

  Beta  occ. eigenvalues --  -11.26516 -11.21633 -11.18096  -1.66635  -1.48544
  Beta  occ. eigenvalues --   -1.36858  -1.30646
  Beta virt. eigenvalues --   -1.08266  -1.03668  -0.96370  -0.94140  -0.87481
  Beta virt. eigenvalues --   -0.80238  -0.69579  -0.60736  -0.58918  -0.53182
  Beta virt. eigenvalues --   -0.46966  -0.46736  -0.46338  -0.43977  -0.43825

 Mulliken charges and spin densities:
               1          2
     1  C    0.943691   1.770345
     2  C    0.722025   0.544723
     3  C    0.392205   0.701926
     4  H    0.385673  -0.008190
     5  H    0.556406  -0.008805
 Sum of Mulliken charges =   3.00000   3.00000

 Dipole moment (field-independent basis, Debye):
    X=              1.7659    Y=             -0.4782    Z=              0.0000  Tot=              1.8295
 Quadrupole moment (field-independent basis, Debye-Ang):
   XX=             17.2123   YY=             -3.9541   ZZ=            -10.8075
   XY=             -5.9276   XZ=              0.0000   YZ=              0.0000

  Exact polarizability:  34.987  -5.254  19.054  -0.000  -0.000  13.070
 Approx polarizability:  58.483 -12.362  30.347  -0.000  -0.000  18.205

                      1                      2                      3
                     A'                     A"                     A'
 Frequencies --    213.2456               589.6770               593.5873
 Red. masses --      2.7511                 1.3331                 7.8342
 Frc consts  --      0.0737                 0.2731                 1.6264
 IR Inten    --     35.6779                85.9265                67.4025

                      4                      5                      6
                     A"                     A'                     A'
 Frequencies --    786.3838               873.2187               990.6376
 Red. masses --      1.5433                 1.4267                 1.3687
 Frc consts  --      0.5623                 0.6410                 0.7914
 IR Inten    --      2.6015                17.7726                 4.7575

                      7                      8                      9
                     A'                     A'                     A'
 Frequencies --   1230.3919              2197.9688              2371.4626
 Red. masses --      3.9514                 1.0730                 1.1401
 Frc consts  --      3.5245                 3.0542                 3.7776
 IR Inten    --    448.7853               915.2322               777.3340

 - Thermochemistry -
 -------------------
 Temperature   298.150 Kelvin.  Pressure   1.00000 Atm.
 Atom     1 has atomic number  6 and mass  12.00000

 Molecular mass:    38.01565 amu.
 Principal axes and moments of inertia in atomic units:
                           1         2         3
     Eigenvalues --    20.73625 180.76011 201.49637
           X            0.98213   0.18821   0.00000
           Y           -0.18821   0.98213   0.00000
           Z           -0.00000   0.00000   1.00000
 This molecule is an asymmetric top.
 Rotational symmetry number  1.
 Rotational temperatures (Kelvin)      4.17693     0.47916     0.42985
 Rotational constants (GHZ):          87.03313     9.98418     8.95669
 Zero-point vibrational energy      58895.6 (Joules/Mol)
                                   14.07638 (Kcal/Mol)
 Warning -- explicit consideration of   3 degrees of freedom as
           vibrations may cause significant error
 Vibrational temperatures:    306.81   848.41   854.04  1131.43  1256.37
          (Kelvin)           1425.30  1770.26  3162.38  3412.00

 Zero-point correction=                           0.022432 (Hartree/Particle)
 Thermal correction to Energy=                    0.026330
 Thermal correction to Enthalpy=                  0.027274
 Thermal correction to Gibbs Free Energy=        -0.003274
 Sum of electronic and zero-point Energies=           -113.237364
 Sum of electronic and thermal Energies=              -113.233466
 Sum of electronic and thermal Enthalpies=            -113.232522
 Sum of electronic and thermal Free Energies=         -113.263070

                     E (Thermal)             CV                S
                      KCal/Mol        Cal/Mol-Kelvin    Cal/Mol-Kelvin
 Total                   16.522             11.674             64.294
 Electronic               0.000              0.000              2.755
 Translational            0.889              2.981             36.835
 Rotational               0.889              2.981             21.251
 Vibrational             14.745              5.713              3.453
 Vibration     1          0.644              1.821              2.016
 Vibration     2          0.947              1.054              0.468
 Vibration     3          0.951              1.045              0.461

 Optimization completed.
    -- Stationary point found.
 Normal termination of Gaussian 09 at Thu Jan 31 04:14:17 2019.
