 Gaussian 09, Revision E.01,
 Gaussian 09:  EM64L-G09RevE.01 30-Nov-2015

 ---------------------------------------------
 #p b3lyp/6-311++G(3df,2p) freq symmetry=Loose
 ---------------------------------------------

 ---------
 b3lyp opt
 ---------
 Symbolic Z-matrix:
 Charge =  1 Multiplicity = 4

                         Standard orientation:
 ---------------------------------------------------------------------
 Center     Atomic      Atomic             Coordinates (Angstroms)
 Number     Number       Type             X           Y           Z
 ---------------------------------------------------------------------
      1          6           0       -0.204797    0.556668    0.000228
      2          6           0        0.935760   -0.097368   -0.000425
      3          6           0       -0.943370   -0.602159   -0.000027
      4          1           0       -0.522706    1.602717   -0.000046
      5          1           0        1.797150   -0.745567    0.001388
 ---------------------------------------------------------------------

 SCF Done:  E(UB3LYP) =  -114.902330743     A.U. after   13 cycles

 The electronic state is 4-A.
 Alpha  occ. eigenvalues --  -10.58667 -10.54852 -10.52263  -1.17377  -0.93295
 Alpha  occ. eigenvalues --   -0.85268  -0.79177  -0.68274  -0.66638  -0.56834
 Alpha  occ. eigenvalues --   -0.49806
 Alpha virt. eigenvalues --   -0.34278  -0.27396  -0.17163  -0.15362  -0.12915
 Alpha virt. eigenvalues --   -0.10902  -0.10513  -0.07429  -0.06893  -0.06651
 Alpha virt. eigenvalues --   -0.05387  -0.04323  -0.02966  -0.01486  -0.00915

  Beta  occ. eigenvalues --  -10.54719 -10.53256 -10.52418  -1.13938  -0.87404
  Beta  occ. eigenvalues --   -0.80878  -0.77251  -0.62155
  Beta virt. eigenvalues --   -0.45687  -0.42174  -0.33228  -0.25267  -0.23761
  Beta virt. eigenvalues --   -0.16175  -0.14875  -0.11796  -0.10477  -0.09260
  Beta virt. eigenvalues --   -0.06489  -0.06186  -0.05910  -0.04589  -0.03474

 Mulliken charges and spin densities:
               1          2
     1  C    0.173828  -0.291402
     2  C    0.089758   0.981462
     3  C    0.076321   2.242307
     4  H    0.269453   0.098309
     5  H    0.390639  -0.030675
 Sum of Mulliken charges =   1.00000   3.00000

 Dipole moment (field-independent basis, Debye):
    X=              0.6727    Y=             -0.0043    Z=              0.0019  Tot=              0.6727
 Quadrupole moment (field-independent basis, Debye-Ang):
   XX=             -7.8711   YY=            -10.2509   ZZ=            -16.8795
   XY=             -1.5159   XZ=              0.0034   YZ=             -0.0015

  Exact polarizability:  36.077   1.231  25.124  -0.004   0.001  18.378
 Approx polarizability:  70.335   6.938  38.814  -0.019   0.005  23.982

                      1                      2                      3
                      A                      A                      A
 Frequencies --    135.5211               414.1904               626.1224
 Red. masses --      1.3704                 5.5774                 1.2756
 Frc consts  --      0.0148                 0.5637                 0.2946
 IR Inten    --     51.1390                 3.0127                52.0522

                      4                      5                      6
                      A                      A                      A
 Frequencies --    696.3005              1039.7731              1085.9916
 Red. masses --      1.2616                 1.8974                 2.1469
 Frc consts  --      0.3604                 1.2086                 1.4918
 IR Inten    --     29.9915                23.0359                 4.7865

                      7                      8                      9
                      A                      A                      A
 Frequencies --   1512.4110              3066.4573              3285.0535
 Red. masses --      5.5157                 1.0985                 1.1153
 Frc consts  --      7.4335                 6.0858                 7.0914
 IR Inten    --      1.3533               137.6855               209.7165

 - Thermochemistry -
 -------------------
 Temperature   298.150 Kelvin.  Pressure   1.00000 Atm.
 Atom     1 has atomic number  6 and mass  12.00000

 Molecular mass:    38.01565 amu.
 Principal axes and moments of inertia in atomic units:
                           1         2         3
     Eigenvalues --    39.25653  91.05960 130.31610
           X            0.98889  -0.14864   0.00011
           Y            0.14864   0.98889  -0.00012
           Z           -0.00009   0.00013   1.00000
 This molecule is an asymmetric top.
 Rotational symmetry number  1.
 Rotational temperatures (Kelvin)      2.20635     0.95118     0.66464
 Rotational constants (GHZ):          45.97302    19.81934    13.84895
 Zero-point vibrational energy      70949.4 (Joules/Mol)
                                   16.95732 (Kcal/Mol)
 Warning -- explicit consideration of   2 degrees of freedom as
           vibrations may cause significant error
 Vibrational temperatures:    194.98   595.93   900.85  1001.82  1496.00
          (Kelvin)           1562.50  2176.02  4411.94  4726.45

 Zero-point correction=                           0.027023 (Hartree/Particle)
 Thermal correction to Energy=                    0.031143
 Thermal correction to Enthalpy=                  0.032088
 Thermal correction to Gibbs Free Energy=         0.001198
 Sum of electronic and zero-point Energies=           -114.875308
 Sum of electronic and thermal Energies=              -114.871187
 Sum of electronic and thermal Enthalpies=            -114.870243
 Sum of electronic and thermal Free Energies=         -114.901133

                     E (Thermal)             CV                S
                      KCal/Mol        Cal/Mol-Kelvin    Cal/Mol-Kelvin
 Total                   19.543             11.832             65.013
 Electronic               0.000              0.000              2.755
 Translational            0.889              2.981             36.835
 Rotational               0.889              2.981             20.771
 Vibrational             17.765              5.870              4.652
 Vibration     1          0.613              1.918              2.866
 Vibration     2          0.778              1.439              0.912

 Optimization completed.
    -- Stationary point found.
 Normal termination of Gaussian 09 at Sun Jun 19 00:36:19 2016.
