 Gaussian 09, Revision E.01,
 Gaussian 09:  EM64L-G09RevE.01 30-Nov-2015

 ---------------------------------------------
 #p b3lyp/6-311++G(3df,2p) freq symmetry=Loose
 ---------------------------------------------

 ---------
 b3lyp opt
 ---------
 Symbolic Z-matrix:
 Charge =  3 Multiplicity = 2

                         Standard orientation:
 ---------------------------------------------------------------------
 Center     Atomic      Atomic             Coordinates (Angstroms)
 Number     Number       Type             X           Y           Z
 ---------------------------------------------------------------------
      1          6           0        1.330845    0.100425   -0.000000
      2          6           0        0.000000    0.378621   -0.000000
      3          6           0       -1.283241   -0.841016    0.000000
      4          1           0       -0.142813    1.085911    0.978179
      5          1           0       -0.142813    1.085911   -0.978179
 ---------------------------------------------------------------------

 SCF Done:  E(UB3LYP) =  -113.235350270     A.U. after   21 cycles

 The electronic state is 2-A'.
 Alpha  occ. eigenvalues --  -11.35025 -11.31208 -11.10752  -1.70221  -1.50743
 Alpha  occ. eigenvalues --   -1.35607  -1.28015  -1.26323  -1.20459
 Alpha virt. eigenvalues --   -1.01926  -1.01780  -1.00384  -0.97286  -0.75244
 Alpha virt. eigenvalues --   -0.64502  -0.62382  -0.52832  -0.50586  -0.48579
 Alpha virt. eigenvalues --   -0.48474  -0.44606  -0.40851  -0.40643  -0.39335

  Beta  occ. eigenvalues --  -11.35117 -11.28781 -11.10489  -1.68006  -1.49987
  Beta  occ. eigenvalues --   -1.32833  -1.27796  -1.20726
  Beta virt. eigenvalues --   -1.05174  -1.01133  -1.00523  -0.97823  -0.94267
  Beta virt. eigenvalues --   -0.74147  -0.64299  -0.62259  -0.52007  -0.50280
  Beta virt. eigenvalues --   -0.48457  -0.47962  -0.42204  -0.40147  -0.39778

 Mulliken charges and spin densities:
               1          2
     1  C    0.877823   1.027240
     2  C    0.101785   0.064621
     3  C    1.162339  -0.048162
     4  H    0.429026  -0.021850
     5  H    0.429026  -0.021850
 Sum of Mulliken charges =   3.00000   1.00000

 Dipole moment (field-independent basis, Debye):
    X=             -0.3279    Y=              0.2562    Z=              0.0000  Tot=              0.4162
 Quadrupole moment (field-independent basis, Debye-Ang):
   XX=              7.6582   YY=             -2.9058   ZZ=             -7.3653
   XY=              5.3846   XZ=             -0.0000   YZ=              0.0000

  Exact polarizability:  36.520   6.795  23.662  -0.000  -0.000  18.146
 Approx polarizability:  97.061  18.625  42.929  -0.000   0.000  28.301

                      1                      2                      3
                     A'                     A'                     A"
 Frequencies --    332.5378               384.7451               484.8459
 Red. masses --      8.4903                 8.0270                 1.7212
 Frc consts  --      0.5532                 0.7001                 0.2384
 IR Inten    --     55.1984               159.1791                54.4908

                      4                      5                      6
                     A"                     A'                     A'
 Frequencies --    720.0465               783.1718               935.4675
 Red. masses --      1.0811                 1.1776                 1.0744
 Frc consts  --      0.3302                 0.4256                 0.5539
 IR Inten    --      0.5520               110.1458               115.8707

                      7                      8                      9
                     A'                     A"                     A'
 Frequencies --   1253.2180              1982.5932              2047.9832
 Red. masses --      9.3540                 1.0922                 1.0463
 Frc consts  --      8.6557                 2.5294                 2.5857
 IR Inten    --    282.7830               832.0290               800.0900

 - Thermochemistry -
 -------------------
 Temperature   298.150 Kelvin.  Pressure   1.00000 Atm.
 Atom     1 has atomic number  6 and mass  12.00000

 Molecular mass:    38.01565 amu.
 Principal axes and moments of inertia in atomic units:
                           1         2         3
     Eigenvalues --    30.70999 174.60563 191.54100
           X            0.92372  -0.38306   0.00000
           Y            0.38306   0.92372   0.00000
           Z           -0.00000   0.00000   1.00000
 This molecule is an asymmetric top.
 Rotational symmetry number  1.
 Rotational temperatures (Kelvin)      2.82038     0.49605     0.45219
 Rotational constants (GHZ):          58.76724    10.33610     9.42222
 Zero-point vibrational energy      53381.0 (Joules/Mol)
                                   12.75837 (Kcal/Mol)
 Warning -- explicit consideration of   3 degrees of freedom as
           vibrations may cause significant error
 Vibrational temperatures:    478.45   553.56   697.58  1035.99  1126.81
          (Kelvin)           1345.93  1803.10  2852.51  2946.59

 Zero-point correction=                           0.020332 (Hartree/Particle)
 Thermal correction to Energy=                    0.024355
 Thermal correction to Enthalpy=                  0.025300
 Thermal correction to Gibbs Free Energy=        -0.004822
 Sum of electronic and zero-point Energies=           -113.215019
 Sum of electronic and thermal Energies=              -113.210995
 Sum of electronic and thermal Enthalpies=            -113.210051
 Sum of electronic and thermal Free Energies=         -113.240172

                     E (Thermal)             CV                S
                      KCal/Mol        Cal/Mol-Kelvin    Cal/Mol-Kelvin
 Total                   15.283             12.477             63.396
 Electronic               0.000              0.000              1.377
 Translational            0.889              2.981             36.835
 Rotational               0.889              2.981             21.557
 Vibrational             13.506              6.516              3.627
 Vibration     1          0.714              1.611              1.248
 Vibration     2          0.754              1.503              1.020
 Vibration     3          0.841              1.284              0.697

 Optimization completed.
    -- Stationary point found.
 Normal termination of Gaussian 09 at Tue Jul 19 04:19:18 2016.
