 Gaussian 09, Revision E.01,
 Gaussian 09:  EM64L-G09RevE.01 30-Nov-2015

 ---------------------------------------------
 #p b3lyp/6-311++G(3df,2p) freq symmetry=Loose
 ---------------------------------------------

 ---------
 b3lyp opt
 ---------
 Symbolic Z-matrix:
 Charge =  2 Multiplicity = 3

                         Standard orientation:
 ---------------------------------------------------------------------
 Center     Atomic      Atomic             Coordinates (Angstroms)
 Number     Number       Type             X           Y           Z
 ---------------------------------------------------------------------
      1          6           0        0.209481   -0.000482   -0.000901
      2          6           0       -1.133757    0.000058    0.000170
      3          6           0        1.496185    0.000181    0.000509
      4          1           0       -1.714749    0.958036    0.000662
      5          1           0       -1.716702   -0.956582    0.000667
 ---------------------------------------------------------------------

 SCF Done:  E(UB3LYP) =  -114.319255022     A.U. after   14 cycles

 The electronic state is 3-A.
 Alpha  occ. eigenvalues --  -10.95876 -10.87006 -10.84782  -1.44018  -1.32604
 Alpha  occ. eigenvalues --   -1.08458  -1.03247  -1.00910  -0.94383  -0.92561
 Alpha virt. eigenvalues --   -0.72832  -0.60887  -0.50918  -0.39713  -0.32742
 Alpha virt. eigenvalues --   -0.31739  -0.30275  -0.27880  -0.26408  -0.26334
 Alpha virt. eigenvalues --   -0.24324  -0.21926  -0.21907  -0.20756  -0.17392

  Beta  occ. eigenvalues --  -10.92191 -10.86353 -10.84933  -1.40334  -1.29774
  Beta  occ. eigenvalues --   -1.07246  -1.01032  -0.92599
  Beta virt. eigenvalues --   -0.77204  -0.75243  -0.70485  -0.51831  -0.48338
  Beta virt. eigenvalues --   -0.39219  -0.32274  -0.31079  -0.29066  -0.27810
  Beta virt. eigenvalues --   -0.25901  -0.25225  -0.22177  -0.21753  -0.21521

 Mulliken charges and spin densities:
               1          2
     1  C    0.900456   0.419330
     2  C   -0.194295  -0.009200
     3  C    0.598585   1.508036
     4  H    0.347527   0.040948
     5  H    0.347726   0.040886
 Sum of Mulliken charges =   2.00000   2.00000

 Dipole moment (field-independent basis, Debye):
    X=             -0.4542    Y=              0.0014    Z=              0.0022  Tot=              0.4542
 Quadrupole moment (field-independent basis, Debye-Ang):
   XX=              7.9311   YY=            -10.0159   ZZ=            -13.2574
   XY=              0.0005   XZ=              0.0002   YZ=             -0.0000

  Exact polarizability:  41.347  -0.002  15.985   0.003   0.000  14.089
 Approx polarizability:  87.677  -0.001  21.664   0.013   0.000  18.803

                      1                      2                      3
                      A                      A                      A
 Frequencies --    289.1515               342.4903               838.7367
 Red. masses --      5.7861                 2.6348                 1.6960
 Frc consts  --      0.2850                 0.1821                 0.7029
 IR Inten    --     20.8643                15.5372                 5.1428

                      4                      5                      6
                      A                      A                      A
 Frequencies --   1043.7887              1071.2025              1253.4763
 Red. masses --      1.3674                 5.0687                 1.1604
 Frc consts  --      0.8778                 3.4268                 1.0742
 IR Inten    --     25.9971                 6.9229               111.5388

                      7                      8                      9
                      A                      A                      A
 Frequencies --   1844.8842              2779.4631              2854.9049
 Red. masses --     11.4298                 1.0456                 1.1132
 Frc consts  --     22.9206                 4.7592                 5.3455
 IR Inten    --    210.1254               521.4152               352.5276

 - Thermochemistry -
 -------------------
 Temperature   298.150 Kelvin.  Pressure   1.00000 Atm.
 Atom     1 has atomic number  6 and mass  12.00000

 Molecular mass:    38.01565 amu.
 Principal axes and moments of inertia in atomic units:
                           1         2         3
     Eigenvalues --     6.59662 172.99270 179.58922
           X            1.00000  -0.00002  -0.00005
           Y            0.00002   1.00000  -0.00000
           Z            0.00005   0.00000   1.00000
 This molecule is an asymmetric top.
 Rotational symmetry number  1.
 Rotational temperatures (Kelvin)     13.13003     0.50068     0.48229
 Rotational constants (GHZ):         273.58576    10.43247    10.04927
 Zero-point vibrational energy      73678.6 (Joules/Mol)
                                   17.60961 (Kcal/Mol)
 Warning -- explicit consideration of   2 degrees of freedom as
           vibrations may cause significant error
 Vibrational temperatures:    416.02   492.77  1206.75  1501.78  1541.22
          (Kelvin)           1803.47  2654.37  3999.02  4107.57

 Zero-point correction=                           0.028063 (Hartree/Particle)
 Thermal correction to Energy=                    0.031840
 Thermal correction to Enthalpy=                  0.032785
 Thermal correction to Gibbs Free Energy=         0.003319
 Sum of electronic and zero-point Energies=           -114.291192
 Sum of electronic and thermal Energies=              -114.287415
 Sum of electronic and thermal Enthalpies=            -114.286470
 Sum of electronic and thermal Free Energies=         -114.315936

                     E (Thermal)             CV                S
                      KCal/Mol        Cal/Mol-Kelvin    Cal/Mol-Kelvin
 Total                   19.980             10.667             62.015
 Electronic               0.000              0.000              2.183
 Translational            0.889              2.981             36.835
 Rotational               0.889              2.981             19.955
 Vibrational             18.203              4.705              3.042
 Vibration     1          0.686              1.694              1.479
 Vibration     2          0.722              1.591              1.201

 Normal termination of Gaussian 09 at Sun Jun 19 00:36:19 2016.
