 Gaussian 09, Revision E.01,
 Gaussian 09:  EM64L-G09RevE.01 30-Nov-2015

 ------------------------------------------------------
 #p b3lyp/6-311++G(3df,2p) freq IOp(2/17=3) IOp(2/18=3)
 ------------------------------------------------------

 ---------
 b3lyp opt
 ---------
 Symbolic Z-matrix:
 Charge =  3 Multiplicity = 2

                         Standard orientation:
 ---------------------------------------------------------------------
 Center     Atomic      Atomic             Coordinates (Angstroms)
 Number     Number       Type             X           Y           Z
 ---------------------------------------------------------------------
      1          6           0        0.000000    0.000000    1.558151
      2          6           0        0.000000    0.000000    0.214687
      3          6           0       -0.000000    0.000000   -1.082034
      4          1           0       -0.840933    0.000315   -2.072411
      5          1           0        0.840933   -0.000315   -2.072411
 ---------------------------------------------------------------------

 SCF Done:  E(UB3LYP) =  -113.300602930     A.U. after   19 cycles

 The electronic state is 2-A.
 Alpha  occ. eigenvalues --  -11.31824 -11.17166 -11.15783  -1.70946  -1.59789
 Alpha  occ. eigenvalues --   -1.38185  -1.29359  -1.23474  -1.21471
 Alpha virt. eigenvalues --   -1.08551  -1.01453  -0.88404  -0.78440  -0.69970
 Alpha virt. eigenvalues --   -0.62302  -0.59557  -0.53958  -0.46367  -0.45962
 Alpha virt. eigenvalues --   -0.45843  -0.44691  -0.43301  -0.40757  -0.38835

  Beta  occ. eigenvalues --  -11.28486 -11.17955 -11.15243  -1.69005  -1.58674
  Beta  occ. eigenvalues --   -1.39536  -1.24461  -1.20151
  Beta virt. eigenvalues --   -1.05116  -1.03581  -0.98915  -0.84324  -0.76638
  Beta virt. eigenvalues --   -0.71207  -0.63350  -0.58625  -0.53132  -0.46626
  Beta virt. eigenvalues --   -0.45720  -0.45402  -0.43500  -0.42664  -0.40682

 Mulliken charges and spin densities:
               1          2
     1  C    0.994772   1.231520
     2  C    1.207178   0.252998
     3  C   -0.202050  -0.361421
     4  H    0.500050  -0.061549
     5  H    0.500050  -0.061549
 Sum of Mulliken charges =   3.00000   1.00000

 Dipole moment (field-independent basis, Debye):
    X=             -0.0000    Y=             -0.0000    Z=             -3.2074  Tot=              3.2074
 Quadrupole moment (field-independent basis, Debye-Ang):
   XX=             -7.4412   YY=            -12.0182   ZZ=             28.1409
   XY=             -0.0017   XZ=              0.0000   YZ=              0.0000

  Exact polarizability:  15.590  -0.001  12.205   0.000  -0.000  49.032
 Approx polarizability:  21.948  -0.002  15.980  -0.000   0.000 148.395

                      1                      2                      3
                      B                      B                      B
 Frequencies --    286.2206               290.9674               450.7611
 Red. masses --      2.0698                 4.1218                 2.6623
 Frc consts  --      0.0999                 0.2056                 0.3187
 IR Inten    --    163.6876                96.9376               224.7636

                      4                      5                      6
                      A                      B                      B
 Frequencies --    600.7396               694.5135              1032.2689
 Red. masses --      1.0953                 1.6205                 1.0273
 Frc consts  --      0.2329                 0.4605                 0.6450
 IR Inten    --    874.7724               129.9659               950.8749

                      7                      8                      9
                      A                      A                      A
 Frequencies --   1078.3892              1529.2197              1932.1957
 Red. masses --      5.9863                 1.3840                 3.3294
 Frc consts  --      4.1017                 1.9069                 7.3236
 IR Inten    --      5.2910              2889.4933                78.3607

 - Thermochemistry -
 -------------------
 Temperature   298.150 Kelvin.  Pressure   1.00000 Atm.
 Atom     1 has atomic number  6 and mass  12.00000

 Molecular mass:    38.01565 amu.
 Principal axes and moments of inertia in atomic units:
                           1         2         3
     Eigenvalues --     5.09020 185.51251 190.60272
           X            0.00000   1.00000   0.00038
           Y            0.00000  -0.00038   1.00000
           Z            1.00000  -0.00000   0.00000
 This molecule is an asymmetric top.
 Rotational symmetry number  2.
 Rotational temperatures (Kelvin)     17.01578     0.46689     0.45442
 Rotational constants (GHZ):         354.55181     9.72841     9.46860
 Zero-point vibrational energy      47224.2 (Joules/Mol)
                                   11.28686 (Kcal/Mol)
 Warning -- explicit consideration of   4 degrees of freedom as
           vibrations may cause significant error
 Vibrational temperatures:    411.81   418.64   648.54   864.33   999.25
          (Kelvin)           1485.20  1551.56  2200.20  2780.00

 Zero-point correction=                           0.017987 (Hartree/Particle)
 Thermal correction to Energy=                    0.022291
 Thermal correction to Enthalpy=                  0.023235
 Thermal correction to Gibbs Free Energy=        -0.005911
 Sum of electronic and zero-point Energies=           -113.282616
 Sum of electronic and thermal Energies=              -113.278312
 Sum of electronic and thermal Enthalpies=            -113.277368
 Sum of electronic and thermal Free Energies=         -113.306514

                     E (Thermal)             CV                S
                      KCal/Mol        Cal/Mol-Kelvin    Cal/Mol-Kelvin
 Total                   13.988             13.306             61.343
 Electronic               0.000              0.000              1.377
 Translational            0.889              2.981             36.835
 Rotational               0.889              2.981             18.449
 Vibrational             12.210              7.344              4.681
 Vibration     1          0.684              1.699              1.496
 Vibration     2          0.687              1.691              1.468
 Vibration     3          0.810              1.359              0.793
 Vibration     4          0.959              1.030              0.448

 Optimization completed.
    -- Stationary point found.
 Normal termination of Gaussian 09 at Thu Jan 31 04:14:28 2019.
