 Gaussian 09, Revision E.01,
 Gaussian 09:  EM64L-G09RevE.01 30-Nov-2015

 ---------------------------------------------
 #p b3lyp/6-311++G(3df,2p) freq symmetry=Loose
 ---------------------------------------------

 ---------
 b3lyp opt
 ---------
 Symbolic Z-matrix:
 Charge =  3 Multiplicity = 4

                         Standard orientation:
 ---------------------------------------------------------------------
 Center     Atomic      Atomic             Coordinates (Angstroms)
 Number     Number       Type             X           Y           Z
 ---------------------------------------------------------------------
      1          6           0        0.000000    0.000000    0.520696
      2          6           0        0.000000   -1.050324   -0.488234
      3          6           0        0.000000    1.050324   -0.488234
      4          1           0       -0.904512    0.000000    1.367316
      5          1           0        0.904512   -0.000000    1.367316
 ---------------------------------------------------------------------

 SCF Done:  E(UB3LYP) =  -113.183895271     A.U. after   12 cycles

 The electronic state is 4-B2.
 Alpha  occ. eigenvalues --  -11.33384 -11.33383 -11.15747  -1.77576  -1.53616
 Alpha  occ. eigenvalues --   -1.42941  -1.30745  -1.29275  -1.27651  -1.18202
 Alpha virt. eigenvalues --   -1.03309  -1.01616  -1.00587  -0.66156  -0.65282
 Alpha virt. eigenvalues --   -0.65223  -0.59082  -0.54457  -0.47973  -0.47036
 Alpha virt. eigenvalues --   -0.45685  -0.42104  -0.42090  -0.40874  -0.39603

  Beta  occ. eigenvalues --  -11.30226 -11.30224 -11.15197  -1.73540  -1.46071
  Beta  occ. eigenvalues --   -1.38780  -1.28248
  Beta virt. eigenvalues --   -1.08196  -1.04516  -1.01553  -0.97822  -0.97713
  Beta virt. eigenvalues --   -0.88365  -0.63887  -0.63786  -0.61816  -0.56107
  Beta virt. eigenvalues --   -0.50725  -0.46085  -0.45818  -0.44457  -0.41286

 Mulliken charges and spin densities:
               1          2
     1  C    0.257181   0.197078
     2  C    0.953174   1.382331
     3  C    0.953174   1.382331
     4  H    0.418236   0.019130
     5  H    0.418236   0.019130
 Sum of Mulliken charges =   3.00000   3.00000

 Dipole moment (field-independent basis, Debye):
    X=              0.0000    Y=              0.0000    Z=              1.0354  Tot=              1.0354
 Quadrupole moment (field-independent basis, Debye-Ang):
   XX=             -7.5485   YY=              1.8116   ZZ=             -0.2294
   XY=             -0.0000   XZ=              0.0000   YZ=             -0.0000

  Exact polarizability:  16.553  -0.000  29.216   0.000  -0.000  22.911
 Approx polarizability:  24.916   0.000  73.314  -0.000   0.000  41.544

                      1                      2                      3
                     A1                     B1                     A1
 Frequencies --    374.6653               501.2706               596.6698
 Red. masses --      7.8672                 1.5975                 1.3743
 Frc consts  --      0.6507                 0.2365                 0.2883
 IR Inten    --     56.2282               125.3047               326.4143

                      4                      5                      6
                     B2                     A2                     B2
 Frequencies --    729.0080               758.1381               977.5846
 Red. masses --      3.6962                 1.0650                 1.5159
 Frc consts  --      1.1574                 0.3607                 0.8536
 IR Inten    --      0.1718                 0.0000               159.3126

                      7                      8                      9
                     A1                     B1                     A1
 Frequencies --   1049.7242              1665.5695              1920.7472
 Red. masses --      3.2142                 1.0665                 1.0672
 Frc consts  --      2.0868                 1.7431                 2.3197
 IR Inten    --      3.3738               949.7674              1273.8960

 - Thermochemistry -
 -------------------
 Temperature   298.150 Kelvin.  Pressure   1.00000 Atm.
 Atom     1 has atomic number  6 and mass  12.00000

 Molecular mass:    38.01565 amu.
 Principal axes and moments of inertia in atomic units:
                           1         2         3
     Eigenvalues --    50.70281 100.43769 139.36251
           X            0.00000   0.00000   1.00000
           Y            1.00000   0.00000   0.00000
           Z            0.00000   1.00000   0.00000
 This molecule is an asymmetric top.
 Rotational symmetry number  2.
 Rotational temperatures (Kelvin)      1.70826     0.86236     0.62150
 Rotational constants (GHZ):          35.59450    17.96876    12.94998
 Zero-point vibrational energy      51280.2 (Joules/Mol)
                                   12.25626 (Kcal/Mol)
 Warning -- explicit consideration of   3 degrees of freedom as
           vibrations may cause significant error
 Vibrational temperatures:    539.06   721.22   858.47  1048.88  1090.79
          (Kelvin)           1406.52  1510.32  2396.38  2763.52

 Zero-point correction=                           0.019532 (Hartree/Particle)
 Thermal correction to Energy=                    0.023351
 Thermal correction to Enthalpy=                  0.024295
 Thermal correction to Gibbs Free Energy=        -0.005295
 Sum of electronic and zero-point Energies=           -113.164364
 Sum of electronic and thermal Energies=              -113.160545
 Sum of electronic and thermal Enthalpies=            -113.159600
 Sum of electronic and thermal Free Energies=         -113.189190

                     E (Thermal)             CV                S
                      KCal/Mol        Cal/Mol-Kelvin    Cal/Mol-Kelvin
 Total                   14.653             12.055             62.277
 Electronic               0.000              0.000              2.755
 Translational            0.889              2.981             36.835
 Rotational               0.889              2.981             19.812
 Vibrational             12.875              6.093              2.875
 Vibration     1          0.746              1.524              1.061
 Vibration     2          0.857              1.247              0.655
 Vibration     3          0.955              1.039              0.455

 Optimization completed.
    -- Stationary point found.
 Normal termination of Gaussian 09 at Tue Jul 19 04:25:37 2016.
