 Gaussian 09, Revision E.01,
 Gaussian 09:  EM64L-G09RevE.01 30-Nov-2015

 ---------------------------------------------
 #p b3lyp/6-311++G(3df,2p) freq symmetry=Loose
 ---------------------------------------------

 ---------
 b3lyp opt
 ---------
 Symbolic Z-matrix:
 Charge =  0 Multiplicity = 3

                         Standard orientation:
 ---------------------------------------------------------------------
 Center     Atomic      Atomic             Coordinates (Angstroms)
 Number     Number       Type             X           Y           Z
 ---------------------------------------------------------------------
      1          6           0       -0.000000    0.000000    0.797500
      2          6           0        0.000000    0.641915   -0.627621
      3          6           0       -0.000000   -0.641915   -0.627621
      4          1           0        0.920676    0.000000    1.373228
      5          1           0       -0.920676    0.000000    1.373228
 ---------------------------------------------------------------------

 SCF Done:  E(UB3LYP) =  -115.281432375     A.U. after   12 cycles

 The electronic state is 3-B2.
 Alpha  occ. eigenvalues --  -10.24541 -10.24418 -10.23939  -0.90632  -0.64370
 Alpha  occ. eigenvalues --   -0.48944  -0.47595  -0.43123  -0.34619  -0.29350
 Alpha  occ. eigenvalues --   -0.26428
 Alpha virt. eigenvalues --   -0.01874  -0.00215   0.02444   0.03435   0.03793
 Alpha virt. eigenvalues --    0.07661   0.08667   0.08886   0.08886   0.09985
 Alpha virt. eigenvalues --    0.12054   0.12683   0.14276   0.15475   0.16187

  Beta  occ. eigenvalues --  -10.23209 -10.23032 -10.22927  -0.87975  -0.61896
  Beta  occ. eigenvalues --   -0.46967  -0.40867  -0.40114  -0.27895
  Beta virt. eigenvalues --   -0.18435  -0.12634   0.00069   0.00532   0.02457
  Beta virt. eigenvalues --    0.03869   0.04510   0.07765   0.08925   0.09080
  Beta virt. eigenvalues --    0.09876   0.12195   0.12653   0.13176   0.14318

 Mulliken charges and spin densities:
               1          2
     1  C   -0.257414   0.418337
     2  C   -0.003921   0.802830
     3  C   -0.003921   0.802830
     4  H    0.132628  -0.011998
     5  H    0.132628  -0.011998
 Sum of Mulliken charges =  -0.00000   2.00000

 Dipole moment (field-independent basis, Debye):
    X=             -0.0000    Y=             -0.0000    Z=              1.3847  Tot=              1.3847
 Quadrupole moment (field-independent basis, Debye-Ang):
   XX=            -18.0131   YY=            -18.9123   ZZ=            -17.8639
   XY=             -0.0000   XZ=             -0.0000   YZ=             -0.0000

  Exact polarizability:  48.746   0.000  35.291   0.000   0.000  38.566
 Approx polarizability:  39.839   0.000  68.462  -0.000   0.000  54.731

                      1                      2                      3
                     A2                     B2                     A1
 Frequencies --    607.2197               644.3561               908.5127
 Red. masses --      1.1650                 9.0573                 7.4028
 Frc consts  --      0.2531                 2.2157                 3.6001
 IR Inten    --      0.0000                11.3561                 2.3019

                      4                      5                      6
                     B2                     B1                     A1
 Frequencies --    982.2057              1019.6577              1501.6830
 Red. masses --      1.2628                 1.2491                 1.1020
 Frc consts  --      0.7178                 0.7652                 1.4642
 IR Inten    --     67.1652               106.4256                 1.2292

                      7                      8                      9
                     A1                     A1                     B1
 Frequencies --   1744.4909              3062.0352              3136.6787
 Red. masses --      9.7411                 1.0441                 1.1165
 Frc consts  --     17.4662                 5.7678                 6.4724
 IR Inten    --     33.4515                29.0732                27.7997

 - Thermochemistry -
 -------------------
 Temperature   298.150 Kelvin.  Pressure   1.00000 Atm.
 Atom     1 has atomic number  6 and mass  12.00000

 Molecular mass:    38.01565 amu.
 Principal axes and moments of inertia in atomic units:
                           1         2         3
     Eigenvalues --    41.41675  79.99234 109.20637
           X           -0.00000  -0.00000   1.00000
           Y            0.00000   1.00000   0.00000
           Z            1.00000  -0.00000   0.00000
 This molecule is an asymmetric top.
 Rotational symmetry number  2.
 Rotational temperatures (Kelvin)      2.09127     1.08278     0.79312
 Rotational constants (GHZ):          43.57515    22.56143    16.52597
 Zero-point vibrational energy      81387.0 (Joules/Mol)
                                   19.45195 (Kcal/Mol)
 Warning -- explicit consideration of   1 degrees of freedom as
           vibrations may cause significant error
 Vibrational temperatures:    873.65   927.08  1307.15  1413.17  1467.06
          (Kelvin)           2160.58  2509.93  4405.58  4512.98

 Zero-point correction=                           0.030999 (Hartree/Particle)
 Thermal correction to Energy=                    0.034257
 Thermal correction to Enthalpy=                  0.035201
 Thermal correction to Gibbs Free Energy=         0.007019
 Sum of electronic and zero-point Energies=           -115.250434
 Sum of electronic and thermal Energies=              -115.247175
 Sum of electronic and thermal Enthalpies=            -115.246231
 Sum of electronic and thermal Free Energies=         -115.274414

                     E (Thermal)             CV                S
                      KCal/Mol        Cal/Mol-Kelvin    Cal/Mol-Kelvin
 Total                   21.497              9.265             59.315
 Electronic               0.000              0.000              2.183
 Translational            0.889              2.981             36.835
 Rotational               0.889              2.981             19.142
 Vibrational             19.719              3.304              1.154
 Vibration     1          0.966              1.017              0.437

 Optimization completed.
    -- Stationary point found.
 Normal termination of Gaussian 09 at Tue Jul 19 03:12:11 2016.
