 Gaussian 09, Revision E.01,
 Gaussian 09:  EM64L-G09RevE.01 30-Nov-2015

 ---------------------------------------------
 #p b3lyp/6-311++G(3df,2p) freq symmetry=Loose
 ---------------------------------------------

 ---------
 b3lyp opt
 ---------
 Symbolic Z-matrix:
 Charge =  2 Multiplicity = 3

                         Standard orientation:
 ---------------------------------------------------------------------
 Center     Atomic      Atomic             Coordinates (Angstroms)
 Number     Number       Type             X           Y           Z
 ---------------------------------------------------------------------
      1          6           0        0.000000    0.941997    0.000067
      2          6           0        0.656533   -0.366292    0.000004
      3          6           0       -0.656533   -0.366292   -0.000056
      4          1           0       -1.755474   -0.628238   -0.000125
      5          1           0        1.755474   -0.628238    0.000037
 ---------------------------------------------------------------------

 SCF Done:  E(UB3LYP) =  -114.311322824     A.U. after   12 cycles

 The electronic state is 3-A.
 Alpha  occ. eigenvalues --  -10.97749 -10.89846 -10.89752  -1.58689  -1.20231
 Alpha  occ. eigenvalues --   -1.18106  -1.10821  -1.00079  -0.97331  -0.96273
 Alpha virt. eigenvalues --   -0.67451  -0.60884  -0.46926  -0.43504  -0.39025
 Alpha virt. eigenvalues --   -0.37330  -0.34726  -0.30186  -0.26381  -0.25043
 Alpha virt. eigenvalues --   -0.24487  -0.23529  -0.22112  -0.21222  -0.20950

  Beta  occ. eigenvalues --  -10.94676 -10.89437 -10.89340  -1.55363  -1.16647
  Beta  occ. eigenvalues --   -1.11969  -1.07399  -0.98814
  Beta virt. eigenvalues --   -0.82306  -0.76483  -0.63207  -0.60806  -0.43291
  Beta virt. eigenvalues --   -0.38319  -0.37675  -0.35647  -0.34066  -0.30085
  Beta virt. eigenvalues --   -0.25241  -0.23938  -0.23156  -0.22086  -0.20983

 Mulliken charges and spin densities:
               1          2
     1  C    0.491565   1.505718
     2  C    0.306712   0.173083
     3  C    0.306712   0.173083
     4  H    0.447506   0.074058
     5  H    0.447506   0.074058
 Sum of Mulliken charges =   2.00000   2.00000

 Dipole moment (field-independent basis, Debye):
    X=              0.0000    Y=             -0.3899    Z=             -0.0000  Tot=              0.3899
 Quadrupole moment (field-independent basis, Debye-Ang):
   XX=             -0.0548   YY=             -7.3312   ZZ=            -13.2719
   XY=             -0.0000   XZ=              0.0006   YZ=              0.0004

  Exact polarizability:  25.026   0.004  21.845   0.000   0.002  13.644
 Approx polarizability:  41.472   0.000  44.004   0.001   0.002  19.550

                      1                      2                      3
                      A                      A                      A
 Frequencies --    383.2054               506.5160               766.7482
 Red. masses --      7.8592                 1.5355                 1.1245
 Frc consts  --      0.6800                 0.2321                 0.3895
 IR Inten    --     59.2271                 0.0000               111.6706

                      4                      5                      6
                      A                      A                      A
 Frequencies --    821.7629               836.0255              1116.3197
 Red. masses --      1.3207                 1.1535                 6.0001
 Frc consts  --      0.5255                 0.4750                 4.4054
 IR Inten    --     21.4407                55.5155               111.6010

                      7                      8                      9
                      A                      A                      A
 Frequencies --   1592.7202              2681.5521              2832.2732
 Red. masses --      4.1911                 1.0771                 1.2038
 Frc consts  --      6.2640                 4.5632                 5.6894
 IR Inten    --     47.4004              1182.5037                83.2118

 - Thermochemistry -
 -------------------
 Temperature   298.150 Kelvin.  Pressure   1.00000 Atm.
 Atom     1 has atomic number  6 and mass  12.00000

 Molecular mass:    38.01565 amu.
 Principal axes and moments of inertia in atomic units:
                           1         2         3
     Eigenvalues --    52.21977  59.12417 111.34394
           X            1.00000  -0.00000  -0.00005
           Y           -0.00000   1.00000  -0.00007
           Z            0.00005   0.00007   1.00000
 This molecule is an asymmetric top.
 Rotational symmetry number  1.
 Rotational temperatures (Kelvin)      1.65864     1.46495     0.77789
 Rotational constants (GHZ):          34.56049    30.52459    16.20871
 Zero-point vibrational energy      69007.3 (Joules/Mol)
                                   16.49315 (Kcal/Mol)
 Warning -- explicit consideration of   2 degrees of freedom as
           vibrations may cause significant error
 Vibrational temperatures:    551.35   728.76  1103.18  1182.33  1202.85
          (Kelvin)           1606.13  2291.57  3858.15  4075.00

 Zero-point correction=                           0.026284 (Hartree/Particle)
 Thermal correction to Energy=                    0.029918
 Thermal correction to Enthalpy=                  0.030862
 Thermal correction to Gibbs Free Energy=         0.001485
 Sum of electronic and zero-point Energies=           -114.285039
 Sum of electronic and thermal Energies=              -114.281405
 Sum of electronic and thermal Enthalpies=            -114.280461
 Sum of electronic and thermal Free Energies=         -114.309838

                     E (Thermal)             CV                S
                      KCal/Mol        Cal/Mol-Kelvin    Cal/Mol-Kelvin
 Total                   18.774             10.941             61.829
 Electronic               0.000              0.000              2.183
 Translational            0.889              2.981             36.835
 Rotational               0.889              2.981             20.469
 Vibrational             16.996              4.979              2.341
 Vibration     1          0.752              1.506              1.026
 Vibration     2          0.862              1.236              0.642

 Optimization completed.
    -- Stationary point found.
 Normal termination of Gaussian 09 at Tue Jul 19 03:22:20 2016.
