 Gaussian 09, Revision E.01,
 Gaussian 09:  EM64L-G09RevE.01 30-Nov-2015

 ---------------------------------------------
 #p b3lyp/6-311++G(3df,2p) freq symmetry=Loose
 ---------------------------------------------

 ---------
 b3lyp opt
 ---------
 Symbolic Z-matrix:
 Charge =  3 Multiplicity = 2

                         Standard orientation:
 ---------------------------------------------------------------------
 Center     Atomic      Atomic             Coordinates (Angstroms)
 Number     Number       Type             X           Y           Z
 ---------------------------------------------------------------------
      1          6           0        1.348157    0.263386    0.000000
      2          6           0       -0.000000    0.332639   -0.000000
      3          6           0       -0.971407   -0.617903   -0.000000
      4          1           0       -1.865623   -1.386696   -0.000000
      5          1           0       -0.394875    1.517968   -0.000000
 ---------------------------------------------------------------------

 SCF Done:  E(UB3LYP) =  -113.332104383     A.U. after   16 cycles

 The electronic state is 2-A'.
 Alpha  occ. eigenvalues --  -11.33805 -11.27340 -11.13809  -1.74153  -1.59238
 Alpha  occ. eigenvalues --   -1.38563  -1.33180  -1.29813  -1.23077
 Alpha virt. eigenvalues --   -1.03638  -1.03132  -1.00074  -0.82200  -0.68735
 Alpha virt. eigenvalues --   -0.63584  -0.54805  -0.51171  -0.48835  -0.48215
 Alpha virt. eigenvalues --   -0.45247  -0.45178  -0.43707  -0.40481  -0.39861

  Beta  occ. eigenvalues --  -11.30842 -11.27744 -11.13617  -1.73053  -1.57647
  Beta  occ. eigenvalues --   -1.38236  -1.32628  -1.22071
  Beta virt. eigenvalues --   -1.06855  -1.01486  -0.99715  -0.98000  -0.80538
  Beta virt. eigenvalues --   -0.68890  -0.63377  -0.54700  -0.50179  -0.48297
  Beta virt. eigenvalues --   -0.47834  -0.45062  -0.43492  -0.43021  -0.39786

 Mulliken charges and spin densities:
               1          2
     1  C    0.928739   1.181982
     2  C    0.335685   0.010420
     3  C    0.764247  -0.186763
     4  H    0.559954   0.006387
     5  H    0.411376  -0.012027
 Sum of Mulliken charges =   3.00000   1.00000

 Dipole moment (field-independent basis, Debye):
    X=             -1.0458    Y=             -0.2636    Z=              0.0000  Tot=              1.0785
 Quadrupole moment (field-independent basis, Debye-Ang):
   XX=             12.0309   YY=              0.9616   ZZ=            -12.1169
   XY=              8.6170   XZ=              0.0000   YZ=             -0.0000

  Exact polarizability:  31.508   6.214  21.731   0.000   0.000  12.382
 Approx polarizability:  77.225  17.006  37.497   0.000  -0.000  16.568

                      1                      2                      3
                     A'                     A"                     A'
 Frequencies --    351.8421               517.2205               731.3930
 Red. masses --      3.5841                 1.5455                 1.1143
 Frc consts  --      0.2614                 0.2436                 0.3512
 IR Inten    --     17.5398               160.6495                14.7012

                      4                      5                      6
                     A"                     A'                     A'
 Frequencies --    777.3683               946.5753              1067.4893
 Red. masses --      1.4475                 1.4314                 7.0188
 Frc consts  --      0.5154                 0.7557                 4.7123
 IR Inten    --      8.5848                31.1831               110.0997

                      7                      8                      9
                     A'                     A'                     A'
 Frequencies --   1597.4670              1741.8021              2394.3089
 Red. masses --      5.6269                 1.0681                 1.1980
 Frc consts  --      8.4603                 1.9093                 4.0463
 IR Inten    --    942.2876              1198.4203               608.5119

 - Thermochemistry -
 -------------------
 Temperature   298.150 Kelvin.  Pressure   1.00000 Atm.
 Atom     1 has atomic number  6 and mass  12.00000

 Molecular mass:    38.01565 amu.
 Principal axes and moments of inertia in atomic units:
                           1         2         3
     Eigenvalues --    18.66450 151.56177 170.22627
           X            0.91914  -0.39393   0.00000
           Y            0.39393   0.91914   0.00000
           Z           -0.00000   0.00000   1.00000
 This molecule is an asymmetric top.
 Rotational symmetry number  1.
 Rotational temperatures (Kelvin)      4.64056     0.57148     0.50882
 Rotational constants (GHZ):          96.69376    11.90763    10.60201
 Zero-point vibrational energy      60563.7 (Joules/Mol)
                                   14.47508 (Kcal/Mol)
 Warning -- explicit consideration of   2 degrees of freedom as
           vibrations may cause significant error
 Vibrational temperatures:    506.22   744.16  1052.31  1118.46  1361.91
          (Kelvin)           1535.88  2298.40  2506.06  3444.87

 Zero-point correction=                           0.023068 (Hartree/Particle)
 Thermal correction to Energy=                    0.026736
 Thermal correction to Enthalpy=                  0.027680
 Thermal correction to Gibbs Free Energy=        -0.001535
 Sum of electronic and zero-point Energies=           -113.309037
 Sum of electronic and thermal Energies=              -113.305369
 Sum of electronic and thermal Enthalpies=            -113.304425
 Sum of electronic and thermal Free Energies=         -113.333639

                     E (Thermal)             CV                S
                      KCal/Mol        Cal/Mol-Kelvin    Cal/Mol-Kelvin
 Total                   16.777             11.040             61.488
 Electronic               0.000              0.000              1.377
 Translational            0.889              2.981             36.835
 Rotational               0.889              2.981             20.804
 Vibrational             14.999              5.078              2.471
 Vibration     1          0.728              1.571              1.158
 Vibration     2          0.872              1.212              0.616

 Normal termination of Gaussian 09 at Tue Jul 19 04:19:25 2016.
