 Gaussian 09, Revision E.01,
 Gaussian 09:  EM64L-G09RevE.01 30-Nov-2015

 ------------------------------------------------------
 #p b3lyp/6-311++G(3df,2p) freq IOp(2/17=3) IOp(2/18=3)
 ------------------------------------------------------

 ---------
 b3lyp opt
 ---------
 Symbolic Z-matrix:
 Charge =  3 Multiplicity = 4

                         Standard orientation:
 ---------------------------------------------------------------------
 Center     Atomic      Atomic             Coordinates (Angstroms)
 Number     Number       Type             X           Y           Z
 ---------------------------------------------------------------------
      1          6           0       -0.000000    0.000000    1.621468
      2          6           0       -0.000000    0.000000    0.247631
      3          6           0        0.000000    0.000000   -1.260162
      4          1           0        1.014039   -0.000000   -1.826810
      5          1           0       -1.014039    0.000000   -1.826810
 ---------------------------------------------------------------------

 SCF Done:  E(UB3LYP) =  -113.301037862     A.U. after   13 cycles

 The electronic state is 4-A2.
 Alpha  occ. eigenvalues --  -11.32485 -11.26914 -11.18507  -1.74998  -1.60399
 Alpha  occ. eigenvalues --   -1.36235  -1.30010  -1.29705  -1.26474  -1.21854
 Alpha virt. eigenvalues --   -1.02770  -0.94771  -0.88202  -0.76766  -0.60180
 Alpha virt. eigenvalues --   -0.55194  -0.55006  -0.47696  -0.47119  -0.47041
 Alpha virt. eigenvalues --   -0.46237  -0.45867  -0.41074  -0.39410  -0.39213

  Beta  occ. eigenvalues --  -11.28423 -11.24893 -11.18389  -1.66714  -1.57273
  Beta  occ. eigenvalues --   -1.33128  -1.26402
  Beta virt. eigenvalues --   -1.10046  -1.06434  -1.04064  -0.96735  -0.83315
  Beta virt. eigenvalues --   -0.79289  -0.71830  -0.59494  -0.54221  -0.53882
  Beta virt. eigenvalues --   -0.46069  -0.45958  -0.45573  -0.44492  -0.43098

 Mulliken charges and spin densities:
               1          2
     1  C    1.102257   1.635427
     2  C    0.925338   1.187881
     3  C    0.134810   0.122127
     4  H    0.418798   0.027282
     5  H    0.418798   0.027282
 Sum of Mulliken charges =   3.00000   3.00000

 Dipole moment (field-independent basis, Debye):
    X=             -0.0000    Y=              0.0000    Z=             -0.2004  Tot=              0.2004
 Quadrupole moment (field-independent basis, Debye-Ang):
   XX=             -7.6565   YY=            -10.5357   ZZ=             20.8725
   XY=             -0.0000   XZ=              0.0000   YZ=             -0.0000

  Exact polarizability:  14.788   0.000  12.194   0.000  -0.000  40.021
 Approx polarizability:  19.792  -0.000  17.077  -0.000  -0.000  70.066

                      1                      2                      3
                     B2                     B1                     A1
 Frequencies --    310.4676               332.5333               626.4634
 Red. masses --      5.9574                 3.3978                10.7476
 Frc consts  --      0.3383                 0.2214                 2.4852
 IR Inten    --     13.7009                17.7085                 9.6424

                      4                      5                      6
                     B1                     B2                     A1
 Frequencies --    861.7933              1053.1926              1153.5158
 Red. masses --      1.4332                 1.3472                 1.0807
 Frc consts  --      0.6271                 0.8805                 0.8472
 IR Inten    --      1.4994                36.6511               142.3434

                      7                      8                      9
                     A1                     A1                     B1
 Frequencies --   1463.4673              2375.0994              2487.8038
 Red. masses --      8.9255                 1.0283                 1.1327
 Frc consts  --     11.2628                 3.4176                 4.1304
 IR Inten    --    157.0226              1158.1548               681.5621

 - Thermochemistry -
 -------------------
 Temperature   298.150 Kelvin.  Pressure   1.00000 Atm.
 Atom     1 has atomic number  6 and mass  12.00000

 Molecular mass:    38.01565 amu.
 Principal axes and moments of inertia in atomic units:
                           1         2         3
     Eigenvalues --     7.40155 206.13221 213.53375
           X            0.00000   1.00000  -0.00000
           Y           -0.00000   0.00000   1.00000
           Z            1.00000  -0.00000   0.00000
 This molecule is an asymmetric top.
 Rotational symmetry number  2.
 Rotational temperatures (Kelvin)     11.70213     0.42019     0.40562
 Rotational constants (GHZ):         243.83303     8.75526     8.45178
 Zero-point vibrational energy      63786.9 (Joules/Mol)
                                   15.24543 (Kcal/Mol)
 Warning -- explicit consideration of   2 degrees of freedom as
           vibrations may cause significant error
 Vibrational temperatures:    446.69   478.44   901.34  1239.93  1515.31
          (Kelvin)           1659.65  2105.60  3417.23  3579.39

 Zero-point correction=                           0.024295 (Hartree/Particle)
 Thermal correction to Energy=                    0.028180
 Thermal correction to Enthalpy=                  0.029124
 Thermal correction to Gibbs Free Energy=        -0.000307
 Sum of electronic and zero-point Energies=           -113.276743
 Sum of electronic and thermal Energies=              -113.272858
 Sum of electronic and thermal Enthalpies=            -113.271913
 Sum of electronic and thermal Free Energies=         -113.301345

                     E (Thermal)             CV                S
                      KCal/Mol        Cal/Mol-Kelvin    Cal/Mol-Kelvin
 Total                   17.683             11.406             61.944
 Electronic               0.000              0.000              2.755
 Translational            0.889              2.981             36.835
 Rotational               0.889              2.981             19.038
 Vibrational             15.906              5.444              3.316
 Vibration     1          0.699              1.654              1.360
 Vibration     2          0.714              1.611              1.248

 Optimization completed.
    -- Stationary point found.
 Normal termination of Gaussian 09 at Thu Jan 31 04:14:05 2019.
