 Gaussian 09, Revision E.01,
 Gaussian 09:  EM64L-G09RevE.01 30-Nov-2015

 ---------------------------------------------
 #p b3lyp/6-311++G(3df,2p) freq symmetry=Loose
 ---------------------------------------------

 ---------
 b3lyp opt
 ---------
 Symbolic Z-matrix:
 Charge =  0 Multiplicity = 3

                         Standard orientation:
 ---------------------------------------------------------------------
 Center     Atomic      Atomic             Coordinates (Angstroms)
 Number     Number       Type             X           Y           Z
 ---------------------------------------------------------------------
      1          6           0       -1.169580   -0.444250    0.000015
      2          6           0       -0.151861    0.442248   -0.000054
      3          6           0        1.115393   -0.076881    0.000042
      4          1           0        1.593942   -1.040568    0.000164
      5          1           0       -0.357651    1.513865   -0.000180
 ---------------------------------------------------------------------

 SCF Done:  E(UB3LYP) =  -115.284678098     A.U. after   15 cycles

 The electronic state is 3-A.
 Alpha  occ. eigenvalues --  -10.25433 -10.24273 -10.21197  -0.84629  -0.67859
 Alpha  occ. eigenvalues --   -0.56882  -0.48793  -0.37035  -0.33679  -0.27858
 Alpha  occ. eigenvalues --   -0.22558
 Alpha virt. eigenvalues --   -0.11624   0.00018   0.00187   0.00706   0.05123
 Alpha virt. eigenvalues --    0.05805   0.07869   0.08257   0.09558   0.09657
 Alpha virt. eigenvalues --    0.11153   0.12072   0.12083   0.13078   0.13808

  Beta  occ. eigenvalues --  -10.24413 -10.21948 -10.21528  -0.82628  -0.62913
  Beta  occ. eigenvalues --   -0.55026  -0.47376  -0.33537  -0.31003
  Beta virt. eigenvalues --   -0.13800  -0.09138  -0.07808   0.00196   0.01006
  Beta virt. eigenvalues --    0.02048   0.05656   0.06612   0.08343   0.08916
  Beta virt. eigenvalues --    0.09711   0.10652   0.11656   0.12391   0.13138

 Mulliken charges and spin densities:
               1          2
     1  C   -0.479992   0.674663
     2  C    0.432992  -0.323761
     3  C   -0.327685   1.569918
     4  H    0.227104   0.007491
     5  H    0.147581   0.071688
 Sum of Mulliken charges =  -0.00000   2.00000

 Dipole moment (field-independent basis, Debye):
    X=              1.4207    Y=              1.0998    Z=             -0.0001  Tot=              1.7967
 Quadrupole moment (field-independent basis, Debye-Ang):
   XX=            -20.4049   YY=            -16.5094   ZZ=            -20.2712
   XY=             -3.9413   XZ=              0.0004   YZ=             -0.0005

  Exact polarizability:  52.324   2.264  33.727   0.000  -0.001  27.748
 Approx polarizability:  90.610   5.345  47.863   0.001  -0.001  35.868

                      1                      2                      3
                      A                      A                      A
 Frequencies --    232.7340               354.0347               697.0060
 Red. masses --      6.3610                 1.4958                 1.2885
 Frc consts  --      0.2030                 0.1105                 0.3688
 IR Inten    --     10.8630                41.6757                29.7984

                      4                      5                      6
                      A                      A                      A
 Frequencies --    745.0412              1054.6601              1221.4480
 Red. masses --      1.1337                 1.2938                 6.7257
 Frc consts  --      0.3708                 0.8479                 5.9120
 IR Inten    --     70.2339                 1.0393                12.0008

                      7                      8                      9
                      A                      A                      A
 Frequencies --   1320.7694              3068.5429              3263.6799
 Red. masses --      5.1843                 1.0844                 1.0939
 Frc consts  --      5.3284                 6.0157                 6.8650
 IR Inten    --     26.7066                12.3566                 6.1045

 - Thermochemistry -
 -------------------
 Temperature   298.150 Kelvin.  Pressure   1.00000 Atm.
 Atom     1 has atomic number  6 and mass  12.00000

 Molecular mass:    38.01565 amu.
 Principal axes and moments of inertia in atomic units:
                           1         2         3
     Eigenvalues --    28.57753 123.02216 151.59970
           X            0.99661  -0.08224  -0.00003
           Y            0.08224   0.99661   0.00011
           Z            0.00002  -0.00011   1.00000
 This molecule is an asymmetric top.
 Rotational symmetry number  1.
 Rotational temperatures (Kelvin)      3.03084     0.70405     0.57133
 Rotational constants (GHZ):          63.15245    14.67005    11.90465
 Zero-point vibrational energy      71524.2 (Joules/Mol)
                                   17.09470 (Kcal/Mol)
 Warning -- explicit consideration of   2 degrees of freedom as
           vibrations may cause significant error
 Vibrational temperatures:    334.85   509.38  1002.83  1071.95  1517.42
          (Kelvin)           1757.39  1900.29  4414.94  4695.70

 Zero-point correction=                           0.027242 (Hartree/Particle)
 Thermal correction to Energy=                    0.031208
 Thermal correction to Enthalpy=                  0.032152
 Thermal correction to Gibbs Free Energy=         0.001918
 Sum of electronic and zero-point Energies=           -115.257436
 Sum of electronic and thermal Energies=              -115.253470
 Sum of electronic and thermal Enthalpies=            -115.252526
 Sum of electronic and thermal Free Energies=         -115.282760

                     E (Thermal)             CV                S
                      KCal/Mol        Cal/Mol-Kelvin    Cal/Mol-Kelvin
 Total                   19.583             11.551             63.634
 Electronic               0.000              0.000              2.183
 Translational            0.889              2.981             36.835
 Rotational               0.889              2.981             20.905
 Vibrational             17.806              5.589              3.710
 Vibration     1          0.653              1.791              1.858
 Vibration     2          0.730              1.567              1.148

 Optimization completed.
    -- Stationary point found.
 Normal termination of Gaussian 09 at Tue Jul 19 03:17:23 2016.
