 Gaussian 09, Revision E.01,
 Gaussian 09:  EM64L-G09RevE.01 30-Nov-2015

 ---------------------------------------------
 #p b3lyp/6-311++G(3df,2p) freq symmetry=Loose
 ---------------------------------------------

 ---------
 b3lyp opt
 ---------
 Symbolic Z-matrix:
 Charge =  0 Multiplicity = 3

                         Standard orientation:
 ---------------------------------------------------------------------
 Center     Atomic      Atomic             Coordinates (Angstroms)
 Number     Number       Type             X           Y           Z
 ---------------------------------------------------------------------
      1          6           0       -0.075397    0.827969    0.040564
      2          6           0       -0.737875   -0.285711    0.009828
      3          6           0        0.816723   -0.258422   -0.139940
      4          1           0        1.544033   -0.736230    0.510920
      5          1           0       -1.564738   -0.966784    0.026371
 ---------------------------------------------------------------------

 SCF Done:  E(UB3LYP) =  -115.313727737     A.U. after   15 cycles

 The electronic state is 3-A.
 Alpha  occ. eigenvalues --  -10.23234 -10.23064 -10.22832  -0.91643  -0.62291
 Alpha  occ. eigenvalues --   -0.57637  -0.44660  -0.41645  -0.37714  -0.26233
 Alpha  occ. eigenvalues --   -0.19865
 Alpha virt. eigenvalues --   -0.02854  -0.00135   0.01016   0.03661   0.05080
 Alpha virt. eigenvalues --    0.06847   0.08368   0.09038   0.09571   0.10672
 Alpha virt. eigenvalues --    0.11503   0.11831   0.12954   0.15582   0.16872

  Beta  occ. eigenvalues --  -10.22399 -10.22148 -10.21171  -0.89457  -0.59579
  Beta  occ. eigenvalues --   -0.55067  -0.40542  -0.37668  -0.34203
  Beta virt. eigenvalues --   -0.13228  -0.06385  -0.00611   0.00044   0.01331
  Beta virt. eigenvalues --    0.03961   0.05636   0.07192   0.08654   0.09657
  Beta virt. eigenvalues --    0.10582   0.11712   0.11918   0.12396   0.13319

 Mulliken charges and spin densities:
               1          2
     1  C   -0.170170   0.633396
     2  C    0.041231   0.342515
     3  C   -0.270884   0.999446
     4  H    0.148314   0.037876
     5  H    0.251509  -0.013233
 Sum of Mulliken charges =  -0.00000   2.00000

 Dipole moment (field-independent basis, Debye):
    X=             -0.7867    Y=             -1.4482    Z=              0.6740  Tot=              1.7806
 Quadrupole moment (field-independent basis, Debye-Ang):
   XX=            -16.1207   YY=            -18.4182   ZZ=            -19.1984
   XY=              1.0437   XZ=              1.1308   YZ=             -0.5727

  Exact polarizability:  39.778  -1.102  35.270  -0.990   0.476  26.416
 Approx polarizability:  58.716   2.287  58.186  -2.160   1.281  35.753

                      1                      2                      3
                      A                      A                      A
 Frequencies --    553.4103               635.2071               850.4819
 Red. masses --      1.3636                 3.3447                 1.2233
 Frc consts  --      0.2461                 0.7951                 0.5213
 IR Inten    --     55.4127                18.5364                79.2790

                      4                      5                      6
                      A                      A                      A
 Frequencies --    898.8459               906.7661              1085.5739
 Red. masses --      1.2383                 1.4588                 5.4563
 Frc consts  --      0.5894                 0.7067                 3.7885
 IR Inten    --     11.0778                20.3428                27.8186

                      7                      8                      9
                      A                      A                      A
 Frequencies --   1665.6178              3095.7141              3316.1160
 Red. masses --      7.2016                 1.0898                 1.1130
 Frc consts  --     11.7714                 6.1533                 7.2111
 IR Inten    --      6.6818                16.3922                27.7148

 - Thermochemistry -
 -------------------
 Temperature   298.150 Kelvin.  Pressure   1.00000 Atm.
 Atom     1 has atomic number  6 and mass  12.00000

 Molecular mass:    38.01565 amu.
 Principal axes and moments of inertia in atomic units:
                           1         2         3
     Eigenvalues --    42.44200  71.39372 110.49243
           X            0.99804   0.04956   0.03822
           Y           -0.04814   0.99815  -0.03719
           Z           -0.03999   0.03528   0.99858
 This molecule is an asymmetric top.
 Rotational symmetry number  1.
 Rotational temperatures (Kelvin)      2.04076     1.21319     0.78389
 Rotational constants (GHZ):          42.52253    25.27871    16.33362
 Zero-point vibrational energy      77803.5 (Joules/Mol)
                                   18.59549 (Kcal/Mol)
 Warning -- explicit consideration of   1 degrees of freedom as
           vibrations may cause significant error
 Vibrational temperatures:    796.23   913.92  1223.65  1293.24  1304.63
          (Kelvin)           1561.90  2396.45  4454.04  4771.15

 Zero-point correction=                           0.029634 (Hartree/Particle)
 Thermal correction to Energy=                    0.032996
 Thermal correction to Enthalpy=                  0.033940
 Thermal correction to Gibbs Free Energy=         0.005000
 Sum of electronic and zero-point Energies=           -115.284094
 Sum of electronic and thermal Energies=              -115.280732
 Sum of electronic and thermal Enthalpies=            -115.279787
 Sum of electronic and thermal Free Energies=         -115.308727

                     E (Thermal)             CV                S
                      KCal/Mol        Cal/Mol-Kelvin    Cal/Mol-Kelvin
 Total                   20.705              9.950             60.909
 Electronic               0.000              0.000              2.183
 Translational            0.889              2.981             36.835
 Rotational               0.889              2.981             20.443
 Vibrational             18.928              3.988              1.448
 Vibration     1          0.909              1.132              0.537

 Optimization completed.
    -- Stationary point found.
 Normal termination of Gaussian 09 at Sun Jun 19 00:34:13 2016.
