 Gaussian 09, Revision E.01,
 Gaussian 09:  EM64L-G09RevE.01 30-Nov-2015

 ---------------------------------------------
 #p b3lyp/6-311++G(3df,2p) freq symmetry=Loose
 ---------------------------------------------

 ---------
 b3lyp opt
 ---------
 Symbolic Z-matrix:
 Charge =  2 Multiplicity = 3

                         Standard orientation:
 ---------------------------------------------------------------------
 Center     Atomic      Atomic             Coordinates (Angstroms)
 Number     Number       Type             X           Y           Z
 ---------------------------------------------------------------------
      1          6           0       -1.792112   -0.144899    0.000052
      2          6           0       -0.548858    0.098402   -0.000000
      3          6           0        0.760626    0.367417   -0.000056
      4          6           0        1.859685   -0.499700    0.000019
      5          1           0       -2.870662   -0.340314    0.000095
      6          1           0        1.194621    1.412991   -0.000183
 ---------------------------------------------------------------------

 SCF Done:  E(UB3LYP) =  -152.452210301     A.U. after   22 cycles

 The electronic state is 3-A.
 Alpha  occ. eigenvalues --  -10.87590 -10.81187 -10.78981 -10.77761  -1.38894
 Alpha  occ. eigenvalues --   -1.32144  -1.17211  -1.04731  -1.02032  -0.90907
 Alpha  occ. eigenvalues --   -0.88675  -0.84178  -0.81530
 Alpha virt. eigenvalues --   -0.64407  -0.60625  -0.53529  -0.43272  -0.35964
 Alpha virt. eigenvalues --   -0.33926  -0.31413  -0.27044  -0.26653  -0.26064
 Alpha virt. eigenvalues --   -0.24331  -0.22547  -0.20980  -0.20114  -0.19739

  Beta  occ. eigenvalues --  -10.86212 -10.79768 -10.78645 -10.77484  -1.36629
  Beta  occ. eigenvalues --   -1.27630  -1.15149  -1.03223  -1.00747  -0.87140
  Beta  occ. eigenvalues --   -0.81821
  Beta virt. eigenvalues --   -0.73040  -0.70197  -0.62550  -0.54783  -0.49174
  Beta virt. eigenvalues --   -0.39975  -0.34748  -0.32825  -0.30915  -0.26444
  Beta virt. eigenvalues --   -0.26256  -0.25442  -0.23776  -0.22003  -0.20543

 Mulliken charges and spin densities:
               1          2
     1  C    0.533739   0.739983
     2  C    0.279176   0.431256
     3  C    0.133637   0.044119
     4  C    0.303553   0.773964
     5  H    0.462806  -0.022858
     6  H    0.287089   0.033536
 Sum of Mulliken charges =   2.00000   2.00000

 Dipole moment (field-independent basis, Debye):
    X=             -1.2835    Y=              0.4958    Z=             -0.0000  Tot=              1.3760
 Quadrupole moment (field-independent basis, Debye-Ang):
   XX=             13.0901   YY=            -13.9237   ZZ=            -18.9593
   XY=              3.1223   XZ=             -0.0010   YZ=             -0.0006

  Exact polarizability: 103.570  -9.399  28.786   0.000  -0.001  20.973
 Approx polarizability: 272.686 -32.770  50.115  -0.001  -0.002  28.183

                      1                      2                      3
                      A                      A                      A
 Frequencies --    203.5324               313.6103               457.3727
 Red. masses --      5.3505                 2.5732                 4.7808
 Frc consts  --      0.1306                 0.1491                 0.5892
 IR Inten    --      9.0648                33.3714                 7.1644

                      4                      5                      6
                      A                      A                      A
 Frequencies --    634.0895               716.9204               730.8895
 Red. masses --      1.9548                 1.3309                 1.3484
 Frc consts  --      0.4631                 0.4030                 0.4244
 IR Inten    --      7.0971                17.0859                19.6426

                      7                      8                      9
                      A                      A                      A
 Frequencies --    836.8562              1002.3196              1320.2499
 Red. masses --      2.4035                 1.8114                 6.3461
 Frc consts  --      0.9917                 1.0722                 6.5173
 IR Inten    --    113.2306                10.4418               188.3196

                     10                     11                     12
                      A                      A                      A
 Frequencies --   1920.2532              2707.5947              3131.4523
 Red. masses --      6.9907                 1.0821                 1.1493
 Frc consts  --     15.1876                 4.6738                 6.6399
 IR Inten    --    780.8969               476.7386               336.8391

 - Thermochemistry -
 -------------------
 Temperature   298.150 Kelvin.  Pressure   1.00000 Atm.
 Atom     1 has atomic number  6 and mass  12.00000

 Molecular mass:    50.01565 amu.
 Principal axes and moments of inertia in atomic units:
                           1         2         3
     Eigenvalues --    25.06090 358.39145 383.45235
           X            0.99961   0.02796   0.00002
           Y           -0.02796   0.99961   0.00011
           Z           -0.00002  -0.00011   1.00000
 This molecule is an asymmetric top.
 Rotational symmetry number  1.
 Rotational temperatures (Kelvin)      3.45613     0.24167     0.22588
 Rotational constants (GHZ):          72.01422     5.03567     4.70656
 Zero-point vibrational energy      83589.9 (Joules/Mol)
                                   19.97847 (Kcal/Mol)
 Warning -- explicit consideration of   3 degrees of freedom as
           vibrations may cause significant error
 Vibrational temperatures:    292.84   451.21   658.06   912.31  1031.49
          (Kelvin)           1051.59  1204.05  1442.11  1899.54  2762.81
                             3895.62  4505.46

 Zero-point correction=                           0.031838 (Hartree/Particle)
 Thermal correction to Energy=                    0.036352
 Thermal correction to Enthalpy=                  0.037296
 Thermal correction to Gibbs Free Energy=         0.004956
 Sum of electronic and zero-point Energies=           -152.420373
 Sum of electronic and thermal Energies=              -152.415859
 Sum of electronic and thermal Enthalpies=            -152.414914
 Sum of electronic and thermal Free Energies=         -152.447254

                     E (Thermal)             CV                S
                      KCal/Mol        Cal/Mol-Kelvin    Cal/Mol-Kelvin
 Total                   22.811             14.440             68.065
 Electronic               0.000              0.000              2.183
 Translational            0.889              2.981             37.653
 Rotational               0.889              2.981             22.759
 Vibrational             21.034              8.478              5.470
 Vibration     1          0.639              1.835              2.101
 Vibration     2          0.701              1.648              1.343
 Vibration     3          0.815              1.345              0.774

 Optimization completed.
    -- Stationary point found.
 Normal termination of Gaussian 09 at Tue Jul 19 04:28:21 2016.
