 Gaussian 09, Revision E.01,
 Gaussian 09:  EM64L-G09RevE.01 30-Nov-2015

 ------------------------------------------------------
 #p b3lyp/6-311++G(3df,2p) freq IOp(2/17=3) IOp(2/18=3)
 ------------------------------------------------------

 ---------
 b3lyp opt
 ---------
 Symbolic Z-matrix:
 Charge =  2 Multiplicity = 3

                         Standard orientation:
 ---------------------------------------------------------------------
 Center     Atomic      Atomic             Coordinates (Angstroms)
 Number     Number       Type             X           Y           Z
 ---------------------------------------------------------------------
      1          6           0       -0.660263    0.000000   -0.860538
      2          6           0        0.660263   -0.000000   -0.860538
      3          6           0        0.000000    0.000000    0.412714
      4          6           0        0.000000    0.000000    1.727490
      5          1           0       -1.685632    0.000000   -1.257383
      6          1           0        1.685632   -0.000000   -1.257383
 ---------------------------------------------------------------------

 SCF Done:  E(UB3LYP) =  -152.465016692     A.U. after   14 cycles

 The electronic state is 3-B2.
 Alpha  occ. eigenvalues --  -10.91458 -10.81181 -10.80056 -10.79963  -1.49421
 Alpha  occ. eigenvalues --   -1.33885  -1.11186  -1.06072  -0.99702  -0.95937
 Alpha  occ. eigenvalues --   -0.93843  -0.91188  -0.83463
 Alpha virt. eigenvalues --   -0.68490  -0.54458  -0.51625  -0.35526  -0.35161
 Alpha virt. eigenvalues --   -0.32201  -0.31414  -0.31257  -0.27755  -0.25894
 Alpha virt. eigenvalues --   -0.24602  -0.21611  -0.21446  -0.21153  -0.20454

  Beta  occ. eigenvalues --  -10.87826 -10.81051 -10.79814 -10.79725  -1.48869
  Beta  occ. eigenvalues --   -1.28344  -1.10991  -1.05649  -0.95785  -0.92579
  Beta  occ. eigenvalues --   -0.90522
  Beta virt. eigenvalues --   -0.72175  -0.68703  -0.63468  -0.52528  -0.45378
  Beta virt. eigenvalues --   -0.35147  -0.34890  -0.31984  -0.30550  -0.30344
  Beta virt. eigenvalues --   -0.27172  -0.25026  -0.24140  -0.21205  -0.20843

 Mulliken charges and spin densities:
               1          2
     1  C    0.234514   0.186900
     2  C    0.234514   0.186900
     3  C    0.461964  -0.066710
     4  C    0.270998   1.718325
     5  H    0.399005  -0.012708
     6  H    0.399005  -0.012708
 Sum of Mulliken charges =   2.00000   2.00000

 Dipole moment (field-independent basis, Debye):
    X=              0.0000    Y=             -0.0000    Z=              0.8579  Tot=              0.8579
 Quadrupole moment (field-independent basis, Debye-Ang):
   XX=             -7.9142   YY=            -18.2895   ZZ=              1.0754
   XY=             -0.0000   XZ=             -0.0000   YZ=              0.0000

  Exact polarizability:  27.473   0.000  17.335   0.000   0.000  45.690
 Approx polarizability:  43.078  -0.000  24.808   0.000   0.000  99.661

                      1                      2                      3
                     B1                     B2                     A2
 Frequencies --    257.0943               419.1360               811.3306
 Red. masses --      4.8789                 6.1633                 1.4910
 Frc consts  --      0.1900                 0.6379                 0.5782
 IR Inten    --     15.2516                22.0421                 0.0000

                      4                      5                      6
                     B1                     B2                     A1
 Frequencies --    813.4487               815.0264               861.4773
 Red. masses --      7.7383                 1.2146                 2.3012
 Frc consts  --      3.0169                 0.4753                 1.0062
 IR Inten    --     86.9672                56.0634                10.7973

                      7                      8                      9
                     A1                     B1                     A1
 Frequencies --    897.4088              1000.7278              1335.6665
 Red. masses --      1.7788                 1.3275                 6.3654
 Frc consts  --      0.8440                 0.7833                 6.6907
 IR Inten    --      1.8301                 1.0993                82.7569

                     10                     11                     12
                     A1                     B1                     A1
 Frequencies --   1689.1593              3039.1280              3098.4304
 Red. masses --      5.3472                 1.0920                 1.1669
 Frc consts  --      8.9892                 5.9427                 6.6001
 IR Inten    --    188.8037               467.5374               173.6034

 - Thermochemistry -
 -------------------
 Temperature   298.150 Kelvin.  Pressure   1.00000 Atm.
 Atom     1 has atomic number  6 and mass  12.00000

 Molecular mass:    50.01565 amu.
 Principal axes and moments of inertia in atomic units:
                           1         2         3
     Eigenvalues --    57.81528 209.58423 267.39951
           X            0.00000   1.00000  -0.00000
           Y            0.00000   0.00000   1.00000
           Z            1.00000   0.00000  -0.00000
 This molecule is an asymmetric top.
 Rotational symmetry number  2.
 Rotational temperatures (Kelvin)      1.49811     0.41326     0.32391
 Rotational constants (GHZ):          31.21564     8.61105     6.74923
 Zero-point vibrational energy      89947.4 (Joules/Mol)
                                   21.49795 (Kcal/Mol)
 Warning -- explicit consideration of   2 degrees of freedom as
           vibrations may cause significant error
 Vibrational temperatures:    369.90   603.04  1167.32  1170.37  1172.64
          (Kelvin)           1239.47  1291.17  1439.82  1921.72  2430.32
                             4372.62  4457.94

 Zero-point correction=                           0.034259 (Hartree/Particle)
 Thermal correction to Energy=                    0.038249
 Thermal correction to Enthalpy=                  0.039193
 Thermal correction to Gibbs Free Energy=         0.008429
 Sum of electronic and zero-point Energies=           -152.430758
 Sum of electronic and thermal Energies=              -152.426768
 Sum of electronic and thermal Enthalpies=            -152.425823
 Sum of electronic and thermal Free Energies=         -152.456588

                     E (Thermal)             CV                S
                      KCal/Mol        Cal/Mol-Kelvin    Cal/Mol-Kelvin
 Total                   24.002             12.633             64.749
 Electronic               0.000              0.000              2.183
 Translational            0.889              2.981             37.653
 Rotational               0.889              2.981             21.321
 Vibrational             22.224              6.672              3.593
 Vibration     1          0.667              1.751              1.681
 Vibration     2          0.782              1.429              0.895

 Optimization completed.
    -- Stationary point found.
 Normal termination of Gaussian 09 at Thu Jan 31 04:22:05 2019.
