 Gaussian 09, Revision E.01,
 Gaussian 09:  EM64L-G09RevE.01 30-Nov-2015

 ---------------------------------------------
 #p b3lyp/6-311++G(3df,2p) freq symmetry=Loose
 ---------------------------------------------

 ---------
 b3lyp opt
 ---------
 Symbolic Z-matrix:
 Charge =  0 Multiplicity = 3

                         Standard orientation:
 ---------------------------------------------------------------------
 Center     Atomic      Atomic             Coordinates (Angstroms)
 Number     Number       Type             X           Y           Z
 ---------------------------------------------------------------------
      1          6           0       -0.000000    1.923230   -0.141530
      2          6           0        0.000000    0.640216    0.048969
      3          6           0       -0.000000   -0.640216    0.048969
      4          6           0       -0.000000   -1.923230   -0.141530
      5          1           0        0.000000    2.751414    0.555370
      6          1           0       -0.000000   -2.751414    0.555370
 ---------------------------------------------------------------------

 SCF Done:  E(UB3LYP) =  -153.416513313     A.U. after   12 cycles

 The electronic state is 3-A2.
 Alpha  occ. eigenvalues --  -10.23454 -10.23448 -10.22865 -10.22739  -0.84300
 Alpha  occ. eigenvalues --   -0.77851  -0.68036  -0.52909  -0.51046  -0.39651
 Alpha  occ. eigenvalues --   -0.38777  -0.31168  -0.29846  -0.19234
 Alpha virt. eigenvalues --   -0.09605  -0.00478   0.00545   0.02802   0.04717
 Alpha virt. eigenvalues --    0.05374   0.05490   0.06149   0.07590   0.10717
 Alpha virt. eigenvalues --    0.10892   0.11282   0.12178   0.12800   0.13029

  Beta  occ. eigenvalues --  -10.22639 -10.22517 -10.22172 -10.22172  -0.82370
  Beta  occ. eigenvalues --   -0.74860  -0.65771  -0.51315  -0.49707  -0.36275
  Beta  occ. eigenvalues --   -0.35881  -0.25864
  Beta virt. eigenvalues --   -0.19475  -0.09677  -0.04849  -0.00301   0.00909
  Beta virt. eigenvalues --    0.04255   0.04757   0.05884   0.06202   0.06734
  Beta virt. eigenvalues --    0.08094   0.11056   0.11491   0.11814   0.12507

 Mulliken charges and spin densities:
               1          2
     1  C   -0.434470   0.758637
     2  C    0.224823   0.215008
     3  C    0.224823   0.215008
     4  C   -0.434470   0.758637
     5  H    0.209648   0.026355
     6  H    0.209648   0.026355
 Sum of Mulliken charges =   0.00000   2.00000

 Dipole moment (field-independent basis, Debye):
    X=              0.0000    Y=             -0.0000    Z=              1.8250  Tot=              1.8250
 Quadrupole moment (field-independent basis, Debye-Ang):
   XX=            -23.4499   YY=            -19.7343   ZZ=            -26.0604
   XY=             -0.0000   XZ=             -0.0000   YZ=             -0.0000

  Exact polarizability:  29.724  -0.000 118.145  -0.000  -0.000  35.827
 Approx polarizability:  42.977   0.000 250.271  -0.000   0.000  47.992

                      1                      2                      3
                     A1                     B1                     B2
 Frequencies --    234.1790               237.7185               392.8268
 Red. masses --      3.6587                 2.3935                 7.4469
 Frc consts  --      0.1182                 0.0797                 0.6771
 IR Inten    --      5.6497                15.6563                 0.7785

                      4                      5                      6
                     A2                     B2                     A1
 Frequencies --    515.8482               613.7948               807.7007
 Red. masses --      5.3990                 1.2646                 1.2572
 Frc consts  --      0.8465                 0.2807                 0.4832
 IR Inten    --      0.0000               537.3712                27.2767

                      7                      8                      9
                     A2                     A1                     B2
 Frequencies --    835.0538               958.2290              1534.0143
 Red. masses --      1.3012                 8.4404                 6.4320
 Frc consts  --      0.5346                 4.5662                 8.9178
 IR Inten    --      0.0000                 0.7161                 2.5789

                     10                     11                     12
                     A1                     B2                     A1
 Frequencies --   2129.6123              3177.1735              3177.7570
 Red. masses --      9.9922                 1.1012                 1.0982
 Frc consts  --     26.7001                 6.5493                 6.5341
 IR Inten    --      0.8095                 3.0659                 0.5153

 - Thermochemistry -
 -------------------
 Temperature   298.150 Kelvin.  Pressure   1.00000 Atm.
 Atom     1 has atomic number  6 and mass  12.00000

 Molecular mass:    50.01565 amu.
 Principal axes and moments of inertia in atomic units:
                           1         2         3
     Eigenvalues --     4.05567 406.62868 410.68436
           X            0.00000   0.00000   1.00000
           Y            1.00000   0.00000  -0.00000
           Z           -0.00000   1.00000  -0.00000
 This molecule is an asymmetric top.
 Rotational symmetry number  2.
 Rotational temperatures (Kelvin)     21.35621     0.21300     0.21090
 Rotational constants (GHZ):         444.99166     4.43830     4.39447
 Zero-point vibrational energy      87410.6 (Joules/Mol)
                                   20.89163 (Kcal/Mol)
 Warning -- explicit consideration of   5 degrees of freedom as
           vibrations may cause significant error
 Vibrational temperatures:    336.93   342.02   565.19   742.19   883.11
          (Kelvin)           1162.10  1201.45  1378.68  2207.10  3064.03
                             4571.24  4572.08

 Zero-point correction=                           0.033293 (Hartree/Particle)
 Thermal correction to Energy=                    0.038013
 Thermal correction to Enthalpy=                  0.038957
 Thermal correction to Gibbs Free Energy=         0.007690
 Sum of electronic and zero-point Energies=           -153.383220
 Sum of electronic and thermal Energies=              -153.378500
 Sum of electronic and thermal Enthalpies=            -153.377556
 Sum of electronic and thermal Free Energies=         -153.408823

                     E (Thermal)             CV                S
                      KCal/Mol        Cal/Mol-Kelvin    Cal/Mol-Kelvin
 Total                   23.854             14.968             65.807
 Electronic               0.000              0.000              2.183
 Translational            0.889              2.981             37.653
 Rotational               0.889              2.981             19.765
 Vibrational             22.076              9.007              6.206
 Vibration     1          0.654              1.789              1.847
 Vibration     2          0.656              1.783              1.820
 Vibration     3          0.760              1.486              0.989
 Vibration     4          0.871              1.215              0.620
 Vibration     5          0.973              1.003              0.427

 Optimization completed.
    -- Stationary point found.
 Normal termination of Gaussian 09 at Tue Jul 19 03:30:45 2016.
