 Gaussian 09, Revision E.01,
 Gaussian 09:  EM64L-G09RevE.01 30-Nov-2015

 ---------------------------------------------
 #p b3lyp/6-311++G(3df,2p) freq symmetry=Loose
 ---------------------------------------------

 ---------
 b3lyp opt
 ---------
 Symbolic Z-matrix:
 Charge =  1 Multiplicity = 4

                         Standard orientation:
 ---------------------------------------------------------------------
 Center     Atomic      Atomic             Coordinates (Angstroms)
 Number     Number       Type             X           Y           Z
 ---------------------------------------------------------------------
      1          6           0       -1.658914   -0.651534   -0.020834
      2          6           0       -0.635576    0.477664   -0.006294
      3          6           0        0.725958    0.105525    0.008821
      4          6           0        1.888734   -0.277115   -0.006298
      5          1           0       -0.928700    1.167385   -0.813409
      6          1           0       -0.992514    0.905372    0.961037
 ---------------------------------------------------------------------

 SCF Done:  E(UB3LYP) =  -152.920136214     A.U. after   26 cycles

 The electronic state is 4-A.
 Alpha  occ. eigenvalues --  -10.56737 -10.52949 -10.49957 -10.48333  -1.10716
 Alpha  occ. eigenvalues --   -1.03446  -0.86909  -0.77144  -0.73080  -0.66032
 Alpha  occ. eigenvalues --   -0.62972  -0.57325  -0.56688  -0.50578
 Alpha virt. eigenvalues --   -0.38164  -0.25375  -0.23844  -0.17382  -0.12686
 Alpha virt. eigenvalues --   -0.11613  -0.11033  -0.09143  -0.07339  -0.07053
 Alpha virt. eigenvalues --   -0.06792  -0.04835  -0.04411  -0.02510  -0.01741

  Beta  occ. eigenvalues --  -10.54413 -10.50071 -10.49744 -10.48002  -1.08761
  Beta  occ. eigenvalues --   -0.99088  -0.82720  -0.74611  -0.72702  -0.55333
  Beta  occ. eigenvalues --   -0.54521
  Beta virt. eigenvalues --   -0.45514  -0.42865  -0.35450  -0.31969  -0.21247
  Beta virt. eigenvalues --   -0.20107  -0.16701  -0.12339  -0.10937  -0.10205
  Beta virt. eigenvalues --   -0.08609  -0.07175  -0.06391  -0.05525  -0.04438

 Mulliken charges and spin densities:
               1          2
     1  C    0.029154   1.408173
     2  C   -0.483050   0.186560
     3  C    0.687055   0.130401
     4  C    0.248090   1.234145
     5  H    0.250881   0.029543
     6  H    0.267870   0.011178
 Sum of Mulliken charges =   1.00000   3.00000

 Dipole moment (field-independent basis, Debye):
    X=             -0.4423    Y=              0.8781    Z=              0.1331  Tot=              0.9922
 Quadrupole moment (field-independent basis, Debye-Ang):
   XX=            -10.0082   YY=            -18.6961   ZZ=            -19.2726
   XY=             -2.0056   XZ=             -0.3216   YZ=              0.3126

  Exact polarizability:  98.064   8.532  33.893  -0.507  -0.406  30.918
 Approx polarizability: 204.603  24.339  54.713   0.226   1.448  41.489

                      1                      2                      3
                      A                      A                      A
 Frequencies --    210.6235               226.1636               340.5492
 Red. masses --      4.8508                 5.4800                 1.6100
 Frc consts  --      0.1268                 0.1651                 0.1100
 IR Inten    --      0.4636                 2.5348                12.2805

                      4                      5                      6
                      A                      A                      A
 Frequencies --    549.3768               784.3334              1004.5892
 Red. masses --      9.4017                 6.8847                 3.5325
 Frc consts  --      1.6719                 2.4954                 2.1005
 IR Inten    --      4.1385                13.0507                 3.7613

                      7                      8                      9
                      A                      A                      A
 Frequencies --   1046.9982              1130.7398              1316.8172
 Red. masses --      1.2315                 1.1897                 1.2030
 Frc consts  --      0.7954                 0.8962                 1.2290
 IR Inten    --     12.9437                46.6641                44.1523

                     10                     11                     12
                      A                      A                      A
 Frequencies --   2106.3227              2851.5128              2977.1223
 Red. masses --     11.8096                 1.0696                 1.0816
 Frc consts  --     30.8698                 5.1244                 5.6481
 IR Inten    --    422.2363               103.6086                79.3299

 - Thermochemistry -
 -------------------
 Temperature   298.150 Kelvin.  Pressure   1.00000 Atm.
 Atom     1 has atomic number  6 and mass  12.00000

 Molecular mass:    50.01565 amu.
 Principal axes and moments of inertia in atomic units:
                           1         2         3
     Eigenvalues --    44.82443 323.00405 356.37728
           X            0.99965  -0.02629  -0.00215
           Y            0.02627   0.99963  -0.00728
           Z            0.00234   0.00722   0.99997
 This molecule is an asymmetric top.
 Rotational symmetry number  1.
 Rotational temperatures (Kelvin)      1.93229     0.26815     0.24304
 Rotational constants (GHZ):          40.26245     5.58736     5.06413
 Zero-point vibrational energy      86999.3 (Joules/Mol)
                                   20.79333 (Kcal/Mol)
 Warning -- explicit consideration of   4 degrees of freedom as
           vibrations may cause significant error
 Vibrational temperatures:    303.04   325.40   489.97   790.43  1128.48
          (Kelvin)           1445.38  1506.40  1626.88  1894.60  3030.52
                             4102.69  4283.41

 Zero-point correction=                           0.033136 (Hartree/Particle)
 Thermal correction to Energy=                    0.037779
 Thermal correction to Enthalpy=                  0.038723
 Thermal correction to Gibbs Free Energy=         0.005586
 Sum of electronic and zero-point Energies=           -152.887000
 Sum of electronic and thermal Energies=              -152.882357
 Sum of electronic and thermal Enthalpies=            -152.881413
 Sum of electronic and thermal Free Energies=         -152.914550

                     E (Thermal)             CV                S
                      KCal/Mol        Cal/Mol-Kelvin    Cal/Mol-Kelvin
 Total                   23.707             14.104             69.742
 Electronic               0.000              0.000              2.755
 Translational            0.889              2.981             37.653
 Rotational               0.889              2.981             23.160
 Vibrational             21.929              8.142              6.173
 Vibration     1          0.643              1.825              2.038
 Vibration     2          0.650              1.801              1.909
 Vibration     3          0.720              1.594              1.210
 Vibration     4          0.905              1.141              0.545

 Optimization completed.
    -- Stationary point found.
 Normal termination of Gaussian 09 at Sun Jun 19 00:56:07 2016.
