 Gaussian 09, Revision E.01,
 Gaussian 09:  EM64L-G09RevE.01 30-Nov-2015

 ---------------------------------------------
 #p b3lyp/6-311++G(3df,2p) freq symmetry=Loose
 ---------------------------------------------

 ---------
 b3lyp opt
 ---------
 Symbolic Z-matrix:
 Charge =  1 Multiplicity = 4

                         Standard orientation:
 ---------------------------------------------------------------------
 Center     Atomic      Atomic             Coordinates (Angstroms)
 Number     Number       Type             X           Y           Z
 ---------------------------------------------------------------------
      1          6           0        0.055856   -1.616557    0.000000
      2          6           0       -0.672498   -0.460526    0.000000
      3          6           0        0.000000    0.738895    0.000000
      4          6           0        0.726889    1.735691    0.000000
      5          1           0        1.099701   -1.908307    0.000000
      6          1           0       -1.761184   -0.476713    0.000000
 ---------------------------------------------------------------------

 SCF Done:  E(UB3LYP) =  -153.029022856     A.U. after   18 cycles

 The electronic state is 4-A".
 Alpha  occ. eigenvalues --  -10.54068 -10.51591 -10.49638 -10.48849  -1.11104
 Alpha  occ. eigenvalues --   -1.03962  -0.89557  -0.78998  -0.72634  -0.66712
 Alpha  occ. eigenvalues --   -0.64294  -0.57710  -0.55457  -0.52651
 Alpha virt. eigenvalues --   -0.33632  -0.23966  -0.17582  -0.15893  -0.14499
 Alpha virt. eigenvalues --   -0.10804  -0.10225  -0.08429  -0.07730  -0.07122
 Alpha virt. eigenvalues --   -0.05624  -0.04620  -0.04223  -0.03569  -0.01781

  Beta  occ. eigenvalues --  -10.51064 -10.49479 -10.49355 -10.48556  -1.08834
  Beta  occ. eigenvalues --   -0.99060  -0.85892  -0.77221  -0.71193  -0.60194
  Beta  occ. eigenvalues --   -0.55096
  Beta virt. eigenvalues --   -0.43456  -0.43330  -0.34380  -0.27280  -0.20603
  Beta virt. eigenvalues --   -0.15600  -0.13755  -0.13527  -0.09978  -0.09650
  Beta virt. eigenvalues --   -0.07870  -0.07353  -0.05715  -0.04905  -0.03847

 Mulliken charges and spin densities:
               1          2
     1  C   -0.154342   1.367445
     2  C   -0.188423   0.171589
     3  C    0.538342   0.143531
     4  C    0.313385   1.286091
     5  H    0.273220   0.010468
     6  H    0.217818   0.020876
 Sum of Mulliken charges =   1.00000   3.00000

 Dipole moment (field-independent basis, Debye):
    X=              0.3362    Y=             -0.4438    Z=              0.0000  Tot=              0.5568
 Quadrupole moment (field-independent basis, Debye-Ang):
   XX=            -15.6515   YY=             -8.7207   ZZ=            -20.7936
   XY=              1.2109   XZ=              0.0000   YZ=              0.0000

  Exact polarizability:  40.677   8.515  63.815   0.001  -0.001  23.057
 Approx polarizability:  58.509  22.684 113.222  -0.000  -0.000  32.159

                      1                      2                      3
                     A'                     A"                     A'
 Frequencies --    165.8286               362.8417               439.3841
 Red. masses --      5.4929                 4.0803                 3.5241
 Frc consts  --      0.0890                 0.3165                 0.4009
 IR Inten    --      0.6446                 1.0324                16.2498

                      4                      5                      6
                     A"                     A'                     A"
 Frequencies --    781.9985               836.4070               852.4794
 Red. masses --      1.8408                 1.5149                 1.1933
 Frc consts  --      0.6632                 0.6244                 0.5109
 IR Inten    --      5.8861                23.7551                34.9778

                      7                      8                      9
                     A'                     A'                     A'
 Frequencies --   1068.0374              1258.7198              1428.4976
 Red. masses --      4.2024                 1.3525                 4.6355
 Frc consts  --      2.8244                 1.2626                 5.5732
 IR Inten    --      1.3035                 3.9388                86.5860

                     10                     11                     12
                     A'                     A'                     A'
 Frequencies --   2047.7290              3118.2858              3206.4171
 Red. masses --     11.8587                 1.0877                 1.0993
 Frc consts  --     29.2977                 6.2313                 6.6588
 IR Inten    --     28.3192                59.4389                51.2138

 - Thermochemistry -
 -------------------
 Temperature   298.150 Kelvin.  Pressure   1.00000 Atm.
 Atom     1 has atomic number  6 and mass  12.00000

 Molecular mass:    50.01565 amu.
 Principal axes and moments of inertia in atomic units:
                           1         2         3
     Eigenvalues --    43.43873 301.29572 344.73445
           X            0.23469   0.97207   0.00000
           Y            0.97207  -0.23469   0.00000
           Z            0.00000  -0.00000   1.00000
 This molecule is an asymmetric top.
 Rotational symmetry number  1.
 Rotational temperatures (Kelvin)      1.99393     0.28747     0.25125
 Rotational constants (GHZ):          41.54682     5.98993     5.23516
 Zero-point vibrational energy      93109.1 (Joules/Mol)
                                   22.25361 (Kcal/Mol)
 Warning -- explicit consideration of   3 degrees of freedom as
           vibrations may cause significant error
 Vibrational temperatures:    238.59   522.05   632.17  1125.12  1203.40
          (Kelvin)           1226.53  1536.67  1811.01  2055.29  2946.22
                             4486.51  4613.31

 Zero-point correction=                           0.035463 (Hartree/Particle)
 Thermal correction to Energy=                    0.039798
 Thermal correction to Enthalpy=                  0.040742
 Thermal correction to Gibbs Free Energy=         0.008173
 Sum of electronic and zero-point Energies=           -152.993559
 Sum of electronic and thermal Energies=              -152.989225
 Sum of electronic and thermal Enthalpies=            -152.988281
 Sum of electronic and thermal Free Energies=         -153.020850

                     E (Thermal)             CV                S
                      KCal/Mol        Cal/Mol-Kelvin    Cal/Mol-Kelvin
 Total                   24.974             13.205             68.547
 Electronic               0.000              0.000              2.755
 Translational            0.889              2.981             37.653
 Rotational               0.889              2.981             23.027
 Vibrational             23.196              7.243              5.112
 Vibration     1          0.624              1.884              2.482
 Vibration     2          0.737              1.549              1.110
 Vibration     3          0.799              1.384              0.829

 Normal termination of Gaussian 09 at Tue Jul 19 03:55:10 2016.
