 Gaussian 09, Revision E.01,
 Gaussian 09:  EM64L-G09RevE.01 30-Nov-2015

 ---------------------------------------------
 #p b3lyp/6-311++G(3df,2p) freq symmetry=Loose
 ---------------------------------------------

 ---------
 b3lyp opt
 ---------
 Symbolic Z-matrix:
 Charge =  2 Multiplicity = 3

                         Standard orientation:
 ---------------------------------------------------------------------
 Center     Atomic      Atomic             Coordinates (Angstroms)
 Number     Number       Type             X           Y           Z
 ---------------------------------------------------------------------
      1          6           0       -0.000000   -0.000000   -1.916504
      2          6           0        0.000000   -0.000000   -0.646022
      3          6           0        0.000000    0.000000    0.646023
      4          6           0       -0.000000    0.000000    1.916501
      5          1           0       -0.000000    0.000000   -3.013127
      6          1           0        0.000000   -0.000000    3.013141
 ---------------------------------------------------------------------

 SCF Done:  E(UB3LYP) =  -152.565899245     A.U. after   13 cycles

 The electronic state is 3-SG.
 Alpha  occ. eigenvalues --  -10.81498 -10.81492 -10.77805 -10.77693  -1.37408
 Alpha  occ. eigenvalues --   -1.32256  -1.20026  -1.04970  -1.03716  -0.90994
 Alpha  occ. eigenvalues --   -0.90994  -0.81967  -0.81967
 Alpha virt. eigenvalues --   -0.59262  -0.59262  -0.38990  -0.38990  -0.36157
 Alpha virt. eigenvalues --   -0.33671  -0.33269  -0.27642  -0.25922  -0.25922
 Alpha virt. eigenvalues --   -0.24291  -0.21606  -0.20787  -0.20787  -0.17123

  Beta  occ. eigenvalues --  -10.79991 -10.79986 -10.77635 -10.77514  -1.35004
  Beta  occ. eigenvalues --   -1.27314  -1.18092  -1.03389  -1.02437  -0.87121
  Beta  occ. eigenvalues --   -0.87121
  Beta virt. eigenvalues --   -0.70309  -0.70309  -0.53748  -0.53748  -0.35876
  Beta virt. eigenvalues --   -0.35876  -0.34070  -0.33304  -0.31906  -0.26934
  Beta virt. eigenvalues --   -0.25415  -0.25415  -0.23591  -0.21284  -0.19756

 Mulliken charges and spin densities:
               1          2
     1  C    0.495962   0.607543
     2  C    0.044654   0.417718
     3  C    0.044661   0.417722
     4  C    0.495951   0.607534
     5  H    0.459388  -0.025258
     6  H    0.459383  -0.025259
 Sum of Mulliken charges =   2.00000   2.00000

 Dipole moment (field-independent basis, Debye):
    X=             -0.0000    Y=             -0.0000    Z=              0.0000  Tot=              0.0000
 Quadrupole moment (field-independent basis, Debye-Ang):
   XX=            -18.3449   YY=            -18.3449   ZZ=             27.5720
   XY=             -0.0000   XZ=              0.0000   YZ=             -0.0000

  Exact polarizability:  18.314  -0.000  18.315   0.001   0.000  81.544
 Approx polarizability:  24.845   0.000  24.845   0.000   0.000 190.387

                      1                      2                      3
                     PI                     PI                     PI
 Frequencies --    203.4783               203.5329               490.3539
 Red. masses --      3.4209                 3.4185                 4.3432
 Frc consts  --      0.0834                 0.0834                 0.6153
 IR Inten    --     31.0274                31.0247                 0.0000

                      4                      5                      6
                     PI                     PI                     PI
 Frequencies --    490.3574               725.3102               725.4323
 Red. masses --      4.3429                 1.3394                 1.3397
 Frc consts  --      0.6153                 0.4152                 0.4154
 IR Inten    --      0.0000                37.4914                37.5134

                      7                      8                      9
                     PI                     PI                     SG
 Frequencies --    728.3712               728.3816               963.5137
 Red. masses --      1.4235                 1.4234                 6.3218
 Frc consts  --      0.4449                 0.4449                 3.4579
 IR Inten    --      0.0010                 0.0097                 0.0000

                     10                     11                     12
                     SG                     SG                     SG
 Frequencies --   1685.0822              2171.8497              3119.9222
 Red. masses --      6.0306                 7.4571                 1.1453
 Frc consts  --     10.0891                20.7244                 6.5685
 IR Inten    --    635.4481                 0.0000               879.1115

                     13
                     SG
 Frequencies --   3132.1785
 Red. masses --      1.1539
 Frc consts  --      6.6698
 IR Inten    --      0.0233

 - Thermochemistry -
 -------------------
 Temperature   298.150 Kelvin.  Pressure   1.00000 Atm.
 Atom     1 has atomic number  6 and mass  12.00000

 Molecular mass:    50.01565 amu.
 Principal axes and moments of inertia in atomic units:
                           1         2         3
     Eigenvalues --     0.00000 415.91425 415.91425
           X            0.00000   0.82134   0.57044
           Y            0.00000  -0.57044   0.82134
           Z            1.00000  -0.00000  -0.00000
 This molecule is a prolate symmetric top.
 Rotational symmetry number  1.
 Rotational temperature (Kelvin)      0.20825
 Rotational constant (GHZ):           4.339215
 Zero-point vibrational energy      91919.6 (Joules/Mol)
                                   21.96932 (Kcal/Mol)
 Warning -- explicit consideration of   4 degrees of freedom as
           vibrations may cause significant error
 Vibrational temperatures:    292.76   292.84   705.51   705.51  1043.56
          (Kelvin)           1043.73  1047.96  1047.98  1386.28  2424.45
                             3124.80  4488.87  4506.50

 Zero-point correction=                           0.035010 (Hartree/Particle)
 Thermal correction to Energy=                    0.039398
 Thermal correction to Enthalpy=                  0.040342
 Thermal correction to Gibbs Free Energy=         0.010386
 Sum of electronic and zero-point Energies=           -152.530889
 Sum of electronic and thermal Energies=              -152.526501
 Sum of electronic and thermal Enthalpies=            -152.525557
 Sum of electronic and thermal Free Energies=         -152.555513

                     E (Thermal)             CV                S
                      KCal/Mol        Cal/Mol-Kelvin    Cal/Mol-Kelvin
 Total                   24.723             14.759             63.049
 Electronic               0.000              0.000              2.183
 Translational            0.889              2.981             37.653
 Rotational               0.592              1.987             16.427
 Vibrational             23.242              9.791              6.785
 Vibration     1          0.639              1.835              2.101
 Vibration     2          0.639              1.835              2.101
 Vibration     3          0.846              1.271              0.683
 Vibration     4          0.846              1.271              0.683

 Optimization completed.
    -- Stationary point found.
 Normal termination of Gaussian 09 at Tue Jul 19 03:56:04 2016.
