 Gaussian 09, Revision E.01,
 Gaussian 09:  EM64L-G09RevE.01 30-Nov-2015

 ---------------------------------------------
 #p b3lyp/6-311++G(3df,2p) freq symmetry=Loose
 ---------------------------------------------

 ---------
 b3lyp opt
 ---------
 Symbolic Z-matrix:
 Charge =  0 Multiplicity = 1

                         Standard orientation:
 ---------------------------------------------------------------------
 Center     Atomic      Atomic             Coordinates (Angstroms)
 Number     Number       Type             X           Y           Z
 ---------------------------------------------------------------------
      1          6           0       -0.837346   -0.855926   -0.000451
      2          6           0       -0.860564    0.597916    0.000022
      3          6           0        0.445130   -0.337365    0.000623
      4          6           0        1.605783    0.217097   -0.000201
      5          1           0       -1.058012    1.135336   -0.921871
      6          1           0       -1.060009    1.134334    0.921916
 ---------------------------------------------------------------------

 SCF Done:  E(RB3LYP) =  -153.386004229     A.U. after   13 cycles

 The electronic state is 1-A.
 Alpha  occ. eigenvalues --  -10.27105 -10.26978 -10.25118 -10.21969  -0.93742
 Alpha  occ. eigenvalues --   -0.75118  -0.65314  -0.51791  -0.43960  -0.43499
 Alpha  occ. eigenvalues --   -0.33583  -0.31910  -0.28045
 Alpha virt. eigenvalues --   -0.15311  -0.10226  -0.01084   0.01187   0.03129
 Alpha virt. eigenvalues --    0.03350   0.05026   0.06208   0.07158   0.07574
 Alpha virt. eigenvalues --    0.08797   0.09625   0.10188   0.11368   0.12448

 Mulliken charges:
               1
     1  C   -0.259537
     2  C   -0.277243
     3  C    0.773708
     4  C   -0.593688
     5  H    0.178393
     6  H    0.178366
 Sum of Mulliken charges =  -0.00000

 Dipole moment (field-independent basis, Debye):
    X=             -2.2435    Y=              1.7902    Z=              0.0013  Tot=              2.8702
 Quadrupole moment (field-independent basis, Debye-Ang):
   XX=            -29.1055   YY=            -25.4443   ZZ=            -22.2113
   XY=             -4.8519   XZ=             -0.0015   YZ=             -0.0013

  Exact polarizability:  66.389   4.419  41.530   0.004  -0.007  34.598
 Approx polarizability: 160.600  20.619  66.484   0.010   0.001  51.914

                      1                      2                      3
                      A                      A                      A
 Frequencies --    172.0170               215.8205               658.1282
 Red. masses --      7.1431                 6.0679                10.5659
 Frc consts  --      0.1245                 0.1665                 2.6964
 IR Inten    --     19.0372                11.6100                81.2205

                      4                      5                      6
                      A                      A                      A
 Frequencies --    793.9174               895.6226               948.9194
 Red. masses --      1.1644                 4.8338                 1.2367
 Frc consts  --      0.4324                 2.2845                 0.6561
 IR Inten    --      7.3821                28.6058                 0.5657

                      7                      8                      9
                      A                      A                      A
 Frequencies --   1035.1020              1168.5998              1445.3445
 Red. masses --      1.4825                 4.7332                 1.1278
 Frc consts  --      0.9358                 3.8083                 1.3881
 IR Inten    --     11.2372                23.9404                 7.1724

                     10                     11                     12
                      A                      A                      A
 Frequencies --   1836.7782              3089.1687              3179.7716
 Red. masses --     11.7918                 1.0489                 1.1171
 Frc consts  --     23.4393                 5.8972                 6.6548
 IR Inten    --    355.8435                 0.4589                 1.1831

 - Thermochemistry -
 -------------------
 Temperature   298.150 Kelvin.  Pressure   1.00000 Atm.
 Atom     1 has atomic number  6 and mass  12.00000

 Molecular mass:    50.01565 amu.
 Principal axes and moments of inertia in atomic units:
                           1         2         3
     Eigenvalues --    68.01769 195.26404 251.04666
           X            0.99756  -0.06975  -0.00003
           Y            0.06975   0.99756  -0.00005
           Z            0.00004   0.00005   1.00000
 This molecule is an asymmetric top.
 Rotational symmetry number  1.
 Rotational temperatures (Kelvin)      1.27340     0.44357     0.34501
 Rotational constants (GHZ):          26.53341     9.24257     7.18887
 Zero-point vibrational energy      92346.9 (Joules/Mol)
                                   22.07143 (Kcal/Mol)
 Warning -- explicit consideration of   2 degrees of freedom as
           vibrations may cause significant error
 Vibrational temperatures:    247.49   310.52   946.90  1142.27  1288.60
          (Kelvin)           1365.28  1489.28  1681.35  2079.53  2642.71
                             4444.62  4574.98

 Zero-point correction=                           0.035173 (Hartree/Particle)
 Thermal correction to Energy=                    0.039517
 Thermal correction to Enthalpy=                  0.040461
 Thermal correction to Gibbs Free Energy=         0.009216
 Sum of electronic and zero-point Energies=           -153.350831
 Sum of electronic and thermal Energies=              -153.346487
 Sum of electronic and thermal Enthalpies=            -153.345543
 Sum of electronic and thermal Free Energies=         -153.376789

                     E (Thermal)             CV                S
                      KCal/Mol        Cal/Mol-Kelvin    Cal/Mol-Kelvin
 Total                   24.797             12.850             65.762
 Electronic               0.000              0.000              0.000
 Translational            0.889              2.981             37.653
 Rotational               0.889              2.981             22.727
 Vibrational             23.020              6.888              5.382
 Vibration     1          0.626              1.877              2.413
 Vibration     2          0.645              1.817              1.994

 Optimization completed.
    -- Stationary point found.
 Normal termination of Gaussian 09 at Sun Jun 19 00:42:35 2016.
