 Gaussian 09, Revision E.01,
 Gaussian 09:  EM64L-G09RevE.01 30-Nov-2015

 ---------------------------------------------
 #p b3lyp/6-311++G(3df,2p) freq symmetry=Loose
 ---------------------------------------------

 ---------
 b3lyp opt
 ---------
 Symbolic Z-matrix:
 Charge =  3 Multiplicity = 4

                         Standard orientation:
 ---------------------------------------------------------------------
 Center     Atomic      Atomic             Coordinates (Angstroms)
 Number     Number       Type             X           Y           Z
 ---------------------------------------------------------------------
      1          6           0        1.834374   -0.553174   -0.000090
      2          6           0        0.626687    0.397756    0.000018
      3          6           0       -0.731916    0.036475    0.000021
      4          6           0       -2.028958   -0.233976    0.000029
      5          1           0        0.899462    1.058680    0.938897
      6          1           0        0.899416    1.058836   -0.938764
 ---------------------------------------------------------------------

 SCF Done:  E(UB3LYP) =  -151.441342028     A.U. after   21 cycles

 The electronic state is 4-A.
 Alpha  occ. eigenvalues --  -11.20815 -11.17958 -11.13480 -11.02640  -1.66105
 Alpha  occ. eigenvalues --   -1.58669  -1.42602  -1.26507  -1.23593  -1.20414
 Alpha  occ. eigenvalues --   -1.15904  -1.13020  -1.10302
 Alpha virt. eigenvalues --   -0.91412  -0.90671  -0.83642  -0.82806  -0.61662
 Alpha virt. eigenvalues --   -0.58169  -0.55265  -0.50763  -0.48552  -0.45425
 Alpha virt. eigenvalues --   -0.45136  -0.44296  -0.39351  -0.38982  -0.37649

  Beta  occ. eigenvalues --  -11.20280 -11.13838 -11.12113 -11.02559  -1.62028
  Beta  occ. eigenvalues --   -1.53350  -1.40474  -1.24890  -1.21156  -1.09786
  Beta virt. eigenvalues --   -0.98150  -0.97718  -0.93680  -0.90283  -0.88885
  Beta virt. eigenvalues --   -0.74668  -0.72693  -0.59293  -0.56646  -0.53857
  Beta virt. eigenvalues --   -0.49077  -0.46995  -0.44809  -0.44365  -0.43041

 Mulliken charges and spin densities:
               1          2
     1  C    0.756091   0.274952
     2  C   -0.204906  -0.035076
     3  C    0.867062   0.892690
     4  C    0.771738   1.767349
     5  H    0.405007   0.050042
     6  H    0.405007   0.050042
 Sum of Mulliken charges =   3.00000   3.00000

 Dipole moment (field-independent basis, Debye):
    X=             -0.0954    Y=              0.4000    Z=              0.0000  Tot=              0.4112
 Quadrupole moment (field-independent basis, Debye-Ang):
   XX=             21.5146   YY=            -10.8293   ZZ=            -12.8066
   XY=              1.9198   XZ=             -0.0007   YZ=              0.0001

  Exact polarizability:  77.949  -2.219  24.892  -0.002   0.000  21.227
 Approx polarizability: 167.594 -12.721  43.928  -0.004   0.001  32.426

                      1                      2                      3
                      A                      A                      A
 Frequencies --    241.0519               339.0870               500.6833
 Red. masses --      9.0777                 3.0930                 7.8747
 Frc consts  --      0.3108                 0.2095                 1.1631
 IR Inten    --      3.3718                18.0454                14.1400

                      4                      5                      6
                      A                      A                      A
 Frequencies --    619.0633               633.7130               870.7216
 Red. masses --      2.0105                 3.6303                 2.5841
 Frc consts  --      0.4540                 0.8590                 1.1543
 IR Inten    --     14.0396                53.6696                18.8256

                      7                      8                      9
                      A                      A                      A
 Frequencies --    944.1459              1006.3985              1161.2223
 Red. masses --      1.1493                 1.2915                 1.7464
 Frc consts  --      0.6036                 0.7707                 1.3875
 IR Inten    --      1.3246               275.1470               360.2350

                     10                     11                     12
                      A                      A                      A
 Frequencies --   1733.0637              2259.5985              2284.0229
 Red. masses --     11.3518                 1.0904                 1.0515
 Frc consts  --     20.0884                 3.2803                 3.2318
 IR Inten    --    140.4451               579.2298               741.0681

 - Thermochemistry -
 -------------------
 Temperature   298.150 Kelvin.  Pressure   1.00000 Atm.
 Atom     1 has atomic number  6 and mass  12.00000

 Molecular mass:    50.01565 amu.
 Principal axes and moments of inertia in atomic units:
                           1         2         3
     Eigenvalues --    36.24722 372.47991 396.03842
           X            0.99978   0.02087   0.00002
           Y           -0.02087   0.99978  -0.00008
           Z           -0.00003   0.00008   1.00000
 This molecule is an asymmetric top.
 Rotational symmetry number  1.
 Rotational temperatures (Kelvin)      2.38953     0.23253     0.21870
 Rotational constants (GHZ):          49.78979     4.84520     4.55699
 Zero-point vibrational energy      75321.5 (Joules/Mol)
                                   18.00227 (Kcal/Mol)
 Warning -- explicit consideration of   4 degrees of freedom as
           vibrations may cause significant error
 Vibrational temperatures:    346.82   487.87   720.37   890.69   911.77
          (Kelvin)           1252.77  1358.41  1447.98  1670.74  2493.49
                             3251.05  3286.20

 Zero-point correction=                           0.028688 (Hartree/Particle)
 Thermal correction to Energy=                    0.033073
 Thermal correction to Enthalpy=                  0.034017
 Thermal correction to Gibbs Free Energy=         0.001469
 Sum of electronic and zero-point Energies=           -151.412654
 Sum of electronic and thermal Energies=              -151.408269
 Sum of electronic and thermal Enthalpies=            -151.407325
 Sum of electronic and thermal Free Energies=         -151.439873

                     E (Thermal)             CV                S
                      KCal/Mol        Cal/Mol-Kelvin    Cal/Mol-Kelvin
 Total                   20.754             14.164             68.504
 Electronic               0.000              0.000              2.755
 Translational            0.889              2.981             37.653
 Rotational               0.889              2.981             23.196
 Vibrational             18.976              8.203              4.900
 Vibration     1          0.658              1.778              1.795
 Vibration     2          0.719              1.597              1.216
 Vibration     3          0.856              1.248              0.656
 Vibration     4          0.979              0.992              0.418

 Optimization completed.
    -- Stationary point found.
 Normal termination of Gaussian 09 at Tue Jul 19 05:27:10 2016.
