 Gaussian 09, Revision E.01,
 Gaussian 09:  EM64L-G09RevE.01 30-Nov-2015

 ---------------------------------------------
 #p b3lyp/6-311++G(3df,2p) freq symmetry=Loose
 ---------------------------------------------

 ---------
 b3lyp opt
 ---------
 Symbolic Z-matrix:
 Charge =  3 Multiplicity = 4

                         Standard orientation:
 ---------------------------------------------------------------------
 Center     Atomic      Atomic             Coordinates (Angstroms)
 Number     Number       Type             X           Y           Z
 ---------------------------------------------------------------------
      1          6           0       -0.244074    1.848575   -0.000000
      2          6           0       -0.000000    0.557396    0.000000
      3          6           0        0.360594   -0.772282    0.000000
      4          6           0       -0.289596   -1.951729   -0.000000
      5          1           0       -0.475173    2.961477   -0.000000
      6          1           0        1.513631   -1.053240    0.000000
 ---------------------------------------------------------------------

 SCF Done:  E(UB3LYP) =  -151.547810098     A.U. after   15 cycles

 The electronic state is 4-A".
 Alpha  occ. eigenvalues --  -11.20724 -11.11526 -11.10153 -11.06197  -1.65898
 Alpha  occ. eigenvalues --   -1.59975  -1.45017  -1.28435  -1.26474  -1.21095
 Alpha  occ. eigenvalues --   -1.17155  -1.11917  -1.09434
 Alpha virt. eigenvalues --   -0.93125  -0.87257  -0.81605  -0.70558  -0.62519
 Alpha virt. eigenvalues --   -0.55661  -0.52682  -0.48362  -0.45102  -0.43872
 Alpha virt. eigenvalues --   -0.42995  -0.41970  -0.39531  -0.38509  -0.37527

  Beta  occ. eigenvalues --  -11.17312 -11.10077 -11.09005 -11.06082  -1.62547
  Beta  occ. eigenvalues --   -1.53992  -1.41869  -1.26470  -1.24679  -1.12480
  Beta virt. eigenvalues --   -0.98670  -0.96306  -0.94700  -0.87643  -0.79793
  Beta virt. eigenvalues --   -0.74213  -0.65861  -0.59209  -0.54605  -0.51966
  Beta virt. eigenvalues --   -0.47295  -0.43870  -0.43579  -0.42173  -0.41118

 Mulliken charges and spin densities:
               1          2
     1  C    0.598803   0.752745
     2  C    0.365553   0.793682
     3  C    0.455091  -0.034605
     4  C    0.692315   1.498672
     5  H    0.527901  -0.024144
     6  H    0.360338   0.013650
 Sum of Mulliken charges =   3.00000   3.00000

 Dipole moment (field-independent basis, Debye):
    X=              0.0213    Y=              0.2839    Z=              0.0000  Tot=              0.2847
 Quadrupole moment (field-independent basis, Debye-Ang):
   XX=             -9.6521   YY=             34.2088   ZZ=            -17.0380
   XY=             -4.2389   XZ=             -0.0000   YZ=             -0.0000

  Exact polarizability:  22.463  -3.608  66.192   0.000   0.000  16.419
 Approx polarizability:  36.408  -1.882 126.199   0.000   0.000  22.064

                      1                      2                      3
                     A'                     A"                     A'
 Frequencies --    167.6673               292.4661               441.5580
 Red. masses --      5.5703                 2.9318                 4.6158
 Frc consts  --      0.0923                 0.1478                 0.5302
 IR Inten    --     19.9492                52.0796                 0.6909

                      4                      5                      6
                     A"                     A'                     A"
 Frequencies --    657.5817               693.0479               742.2483
 Red. masses --      2.1015                 1.3061                 1.3360
 Frc consts  --      0.5354                 0.3696                 0.4337
 IR Inten    --     36.7861                23.2587                22.3314

                      7                      8                      9
                     A'                     A'                     A'
 Frequencies --    861.3149               907.7937              1390.8216
 Red. masses --      8.2706                 1.2166                 5.9803
 Frc consts  --      3.6150                 0.5907                 6.8158
 IR Inten    --     19.6038                 6.4870               515.2222

                     10                     11                     12
                     A'                     A'                     A'
 Frequencies --   1816.6312              2226.6196              2755.6425
 Red. masses --      6.4806                 1.0699                 1.1768
 Frc consts  --     12.6008                 3.1254                 5.2651
 IR Inten    --    193.9506               839.7730               704.0200

 - Thermochemistry -
 -------------------
 Temperature   298.150 Kelvin.  Pressure   1.00000 Atm.
 Atom     1 has atomic number  6 and mass  12.00000

 Molecular mass:    50.01565 amu.
 Principal axes and moments of inertia in atomic units:
                           1         2         3
     Eigenvalues --    19.81228 384.73673 404.54901
           X           -0.04936   0.99878   0.00000
           Y            0.99878   0.04936   0.00000
           Z           -0.00000  -0.00000   1.00000
 This molecule is an asymmetric top.
 Rotational symmetry number  1.
 Rotational temperatures (Kelvin)      4.37172     0.22512     0.21410
 Rotational constants (GHZ):          91.09205     4.69085     4.46112
 Zero-point vibrational energy      77478.5 (Joules/Mol)
                                   18.51780 (Kcal/Mol)
 Warning -- explicit consideration of   3 degrees of freedom as
           vibrations may cause significant error
 Vibrational temperatures:    241.24   420.79   635.30   946.11   997.14
          (Kelvin)           1067.93  1239.24  1306.11  2001.08  2613.72
                             3203.61  3964.75

 Zero-point correction=                           0.029510 (Hartree/Particle)
 Thermal correction to Energy=                    0.034124
 Thermal correction to Enthalpy=                  0.035068
 Thermal correction to Gibbs Free Energy=         0.002258
 Sum of electronic and zero-point Energies=           -151.518300
 Sum of electronic and thermal Energies=              -151.513686
 Sum of electronic and thermal Enthalpies=            -151.512742
 Sum of electronic and thermal Free Energies=         -151.545552

                     E (Thermal)             CV                S
                      KCal/Mol        Cal/Mol-Kelvin    Cal/Mol-Kelvin
 Total                   21.413             14.600             69.055
 Electronic               0.000              0.000              2.755
 Translational            0.889              2.981             37.653
 Rotational               0.889              2.981             22.649
 Vibrational             19.636              8.638              5.998
 Vibration     1          0.624              1.882              2.461
 Vibration     2          0.688              1.688              1.460
 Vibration     3          0.801              1.380              0.822

 Optimization completed.
    -- Stationary point found.
 Normal termination of Gaussian 09 at Tue Jul 19 05:21:19 2016.
