 Gaussian 09, Revision E.01,
 Gaussian 09:  EM64L-G09RevE.01 30-Nov-2015

 ---------------------------------------------
 #p b3lyp/6-311++G(3df,2p) freq symmetry=Loose
 ---------------------------------------------

 ---------
 b3lyp opt
 ---------
 Symbolic Z-matrix:
 Charge =  2 Multiplicity = 3

                         Standard orientation:
 ---------------------------------------------------------------------
 Center     Atomic      Atomic             Coordinates (Angstroms)
 Number     Number       Type             X           Y           Z
 ---------------------------------------------------------------------
      1          6           0        0.000000   -1.760754    0.000000
      2          6           0        0.000000   -0.432616    0.000000
      3          6           0       -0.000000    0.852810   -0.000000
      4          6           0       -0.000000    2.119159   -0.000000
      5          1           0        0.000012   -2.335800    0.949750
      6          1           0        0.000012   -2.335800   -0.949750
 ---------------------------------------------------------------------

 SCF Done:  E(UB3LYP) =  -152.486418285     A.U. after   16 cycles

 The electronic state is 3-A'.
 Alpha  occ. eigenvalues --  -10.87789 -10.81366 -10.77278 -10.76708  -1.37739
 Alpha  occ. eigenvalues --   -1.32006  -1.21223  -1.01552  -0.96373  -0.94660
 Alpha  occ. eigenvalues --   -0.91676  -0.87275  -0.82083
 Alpha virt. eigenvalues --   -0.66877  -0.60407  -0.43641  -0.40195  -0.35322
 Alpha virt. eigenvalues --   -0.31885  -0.27999  -0.26906  -0.26252  -0.24223
 Alpha virt. eigenvalues --   -0.23179  -0.22943  -0.20794  -0.20174  -0.18542

  Beta  occ. eigenvalues --  -10.84269 -10.81296 -10.77105 -10.76176  -1.36348
  Beta  occ. eigenvalues --   -1.28387  -1.19433  -1.01021  -0.96471  -0.87844
  Beta  occ. eigenvalues --   -0.85738
  Beta virt. eigenvalues --   -0.69956  -0.69198  -0.64116  -0.53991  -0.41350
  Beta virt. eigenvalues --   -0.35720  -0.35097  -0.31310  -0.27961  -0.26355
  Beta virt. eigenvalues --   -0.25829  -0.23760  -0.22872  -0.22048  -0.19804

 Mulliken charges and spin densities:
               1          2
     1  C   -0.075504   0.214977
     2  C    0.352240   0.133741
     3  C    0.638850   0.147106
     4  C    0.417648   1.543060
     5  H    0.333383  -0.019442
     6  H    0.333383  -0.019442
 Sum of Mulliken charges =   2.00000   2.00000

 Dipole moment (field-independent basis, Debye):
    X=              0.0000    Y=             -0.6442    Z=              0.0000  Tot=              0.6442
 Quadrupole moment (field-independent basis, Debye-Ang):
   XX=            -18.3791   YY=             18.6216   ZZ=            -15.4977
   XY=             -0.0001   XZ=             -0.0000   YZ=             -0.0000

  Exact polarizability:  18.304  -0.000  75.716  -0.000  -0.000  21.176
 Approx polarizability:  24.823  -0.000 175.135  -0.000  -0.000  28.909

                      1                      2                      3
                     A"                     A'                     A"
 Frequencies --    200.5220               215.9220               434.1923
 Red. masses --      4.5840                 5.5855                 2.7197
 Frc consts  --      0.1086                 0.1534                 0.3021
 IR Inten    --     15.4861                16.9589                 0.1792

                      4                      5                      6
                     A'                     A"                     A'
 Frequencies --    490.1864               878.8712               910.4837
 Red. masses --      8.9341                 1.9148                 5.3150
 Frc consts  --      1.2648                 0.8714                 2.5959
 IR Inten    --      0.2247                10.0372                 5.8427

                      7                      8                      9
                     A'                     A'                     A'
 Frequencies --    988.4343              1286.1711              1583.5035
 Red. masses --      1.3598                 1.1357                10.7552
 Frc consts  --      0.7828                 1.1069                15.8893
 IR Inten    --     31.6531               117.3410                98.4983

                     10                     11                     12
                     A'                     A'                     A"
 Frequencies --   2045.6909              2882.7030              2959.1726
 Red. masses --     11.8350                 1.0507                 1.1141
 Frc consts  --     29.1809                 5.1444                 5.7479
 IR Inten    --    242.3894               541.7716               273.2741

 - Thermochemistry -
 -------------------
 Temperature   298.150 Kelvin.  Pressure   1.00000 Atm.
 Atom     1 has atomic number  6 and mass  12.00000

 Molecular mass:    50.01565 amu.
 Principal axes and moments of inertia in atomic units:
                           1         2         3
     Eigenvalues --     6.49279 402.22386 408.71665
           X           -0.00000   0.00000   1.00000
           Y            1.00000   0.00000   0.00000
           Z           -0.00000   1.00000  -0.00000
 This molecule is an asymmetric top.
 Rotational symmetry number  1.
 Rotational temperatures (Kelvin)     13.33999     0.21534     0.21192
 Rotational constants (GHZ):         277.96070     4.48691     4.41563
 Zero-point vibrational energy      88977.4 (Joules/Mol)
                                   21.26610 (Kcal/Mol)
 Warning -- explicit consideration of   4 degrees of freedom as
           vibrations may cause significant error
 Vibrational temperatures:    288.51   310.66   624.71   705.27  1264.50
          (Kelvin)           1309.98  1422.13  1850.51  2278.31  2943.29
                             4147.56  4257.58

 Zero-point correction=                           0.033890 (Hartree/Particle)
 Thermal correction to Energy=                    0.038492
 Thermal correction to Enthalpy=                  0.039436
 Thermal correction to Gibbs Free Energy=         0.007364
 Sum of electronic and zero-point Energies=           -152.452529
 Sum of electronic and thermal Energies=              -152.447926
 Sum of electronic and thermal Enthalpies=            -152.446982
 Sum of electronic and thermal Free Energies=         -152.479055

                     E (Thermal)             CV                S
                      KCal/Mol        Cal/Mol-Kelvin    Cal/Mol-Kelvin
 Total                   24.154             13.912             67.503
 Electronic               0.000              0.000              2.183
 Translational            0.889              2.981             37.653
 Rotational               0.889              2.981             21.595
 Vibrational             22.377              7.950              6.072
 Vibration     1          0.638              1.839              2.128
 Vibration     2          0.645              1.817              1.993
 Vibration     3          0.795              1.396              0.845
 Vibration     4          0.846              1.272              0.683

 Optimization completed.
    -- Stationary point found.
 Normal termination of Gaussian 09 at Tue Jul 19 03:58:32 2016.
