 Gaussian 09, Revision E.01,
 Gaussian 09:  EM64L-G09RevE.01 30-Nov-2015

 ------------------------------------------------------
 #p b3lyp/6-311++G(3df,2p) freq IOp(2/17=3) IOp(2/18=3)
 ------------------------------------------------------

 ---------
 b3lyp opt
 ---------
 Symbolic Z-matrix:
 Charge =  3 Multiplicity = 4

                         Standard orientation:
 ---------------------------------------------------------------------
 Center     Atomic      Atomic             Coordinates (Angstroms)
 Number     Number       Type             X           Y           Z
 ---------------------------------------------------------------------
      1          6           0        1.450036    1.252328    0.000000
      2          6           0        0.000000    0.742258    0.000000
      3          6           0       -0.423010   -0.598410    0.000000
      4          6           0       -0.889718   -1.838428    0.000000
      5          1           0       -0.411845    1.326732    0.938897
      6          1           0       -0.411845    1.326732   -0.938897
 ---------------------------------------------------------------------

 SCF Done:  E(UB3LYP) =  -151.441343604     A.U. after   22 cycles

 The electronic state is 4-A".
 Alpha  occ. eigenvalues --  -11.20815 -11.17957 -11.13480 -11.02641  -1.66105
 Alpha  occ. eigenvalues --   -1.58669  -1.42602  -1.26506  -1.23594  -1.20414
 Alpha  occ. eigenvalues --   -1.15904  -1.13020  -1.10302
 Alpha virt. eigenvalues --   -0.91412  -0.90672  -0.83642  -0.82806  -0.61663
 Alpha virt. eigenvalues --   -0.58172  -0.55266  -0.50762  -0.48556  -0.45431
 Alpha virt. eigenvalues --   -0.45153  -0.44296  -0.39352  -0.38981  -0.37653

  Beta  occ. eigenvalues --  -11.20280 -11.13838 -11.12113 -11.02560  -1.62028
  Beta  occ. eigenvalues --   -1.53350  -1.40474  -1.24888  -1.21157  -1.09786
  Beta virt. eigenvalues --   -0.98150  -0.97718  -0.93680  -0.90283  -0.88885
  Beta virt. eigenvalues --   -0.74668  -0.72693  -0.59294  -0.56648  -0.53858
  Beta virt. eigenvalues --   -0.49077  -0.46996  -0.44811  -0.44376  -0.43039

 Mulliken charges and spin densities:
               1          2
     1  C    0.756018   0.274912
     2  C   -0.204681  -0.035050
     3  C    0.867111   0.892627
     4  C    0.771526   1.767432
     5  H    0.405013   0.050039
     6  H    0.405013   0.050039
 Sum of Mulliken charges =   3.00000   3.00000

 Dipole moment (field-independent basis, Debye):
    X=             -0.3886    Y=              0.1338    Z=             -0.0000  Tot=              0.4110
 Quadrupole moment (field-independent basis, Debye-Ang):
   XX=             -3.2788   YY=             13.9635   ZZ=            -12.8060
   XY=             13.8168   XZ=              0.0000   YZ=             -0.0000

  Exact polarizability:  42.135  24.949  60.707   0.000   0.000  21.228
 Approx polarizability:  90.949  61.365 120.570  -0.000   0.000  32.427

                      1                      2                      3
                     A'                     A"                     A'
 Frequencies --    241.6645               339.7725               500.7369
 Red. masses --      9.0724                 3.0971                 7.8815
 Frc consts  --      0.3122                 0.2107                 1.1643
 IR Inten    --      3.3354                17.9902                14.1701

                      4                      5                      6
                     A"                     A'                     A'
 Frequencies --    619.9013               633.8091               870.8353
 Red. masses --      2.0104                 3.6345                 2.5866
 Frc consts  --      0.4552                 0.8602                 1.1557
 IR Inten    --     14.0750                53.7845                18.9102

                      7                      8                      9
                     A"                     A'                     A'
 Frequencies --    944.5198              1006.7090              1161.3799
 Red. masses --      1.1488                 1.2898                 1.7472
 Frc consts  --      0.6038                 0.7702                 1.3885
 IR Inten    --      1.3134               274.5622               360.5986

                     10                     11                     12
                     A'                     A"                     A'
 Frequencies --   1733.0634              2260.4877              2284.8264
 Red. masses --     11.3511                 1.0905                 1.0515
 Frc consts  --     20.0870                 3.2830                 3.2341
 IR Inten    --    140.4024               579.3991               741.1196

 - Thermochemistry -
 -------------------
 Temperature   298.150 Kelvin.  Pressure   1.00000 Atm.
 Atom     1 has atomic number  6 and mass  12.00000

 Molecular mass:    50.01565 amu.
 Principal axes and moments of inertia in atomic units:
                           1         2         3
     Eigenvalues --    36.24686 372.48112 396.03749
           X            0.55338   0.83293   0.00000
           Y            0.83293  -0.55338   0.00000
           Z           -0.00000   0.00000   1.00000
 This molecule is an asymmetric top.
 Rotational symmetry number  1.
 Rotational temperatures (Kelvin)      2.38955     0.23253     0.21870
 Rotational constants (GHZ):          49.79027     4.84519     4.55700
 Zero-point vibrational energy      75351.0 (Joules/Mol)
                                   18.00932 (Kcal/Mol)
 Warning -- explicit consideration of   4 degrees of freedom as
           vibrations may cause significant error
 Vibrational temperatures:    347.70   488.86   720.45   891.90   911.91
          (Kelvin)           1252.94  1358.95  1448.43  1670.96  2493.49
                             3252.33  3287.35

 Zero-point correction=                           0.028700 (Hartree/Particle)
 Thermal correction to Energy=                    0.033082
 Thermal correction to Enthalpy=                  0.034026
 Thermal correction to Gibbs Free Energy=         0.001483
 Sum of electronic and zero-point Energies=           -151.412644
 Sum of electronic and thermal Energies=              -151.408262
 Sum of electronic and thermal Enthalpies=            -151.407317
 Sum of electronic and thermal Free Energies=         -151.439861

                     E (Thermal)             CV                S
                      KCal/Mol        Cal/Mol-Kelvin    Cal/Mol-Kelvin
 Total                   20.759             14.159             68.494
 Electronic               0.000              0.000              2.755
 Translational            0.889              2.981             37.653
 Rotational               0.889              2.981             23.196
 Vibrational             18.982              8.197              4.890
 Vibration     1          0.658              1.777              1.791
 Vibration     2          0.720              1.596              1.213
 Vibration     3          0.856              1.248              0.656
 Vibration     4          0.980              0.990              0.417

 Optimization completed.
    -- Stationary point found.
 Normal termination of Gaussian 09 at Thu Jan 31 04:23:13 2019.
