 Gaussian 09, Revision E.01,
 Gaussian 09:  EM64L-G09RevE.01 30-Nov-2015

 ------------------------------------------------------
 #p b3lyp/6-311++G(3df,2p) freq IOp(2/17=3) IOp(2/18=3)
 ------------------------------------------------------

 ---------
 b3lyp opt
 ---------
 Symbolic Z-matrix:
 Charge =  0 Multiplicity = 3

                         Standard orientation:
 ---------------------------------------------------------------------
 Center     Atomic      Atomic             Coordinates (Angstroms)
 Number     Number       Type             X           Y           Z
 ---------------------------------------------------------------------
      1          6           0       -0.070719    1.927559    0.000000
      2          6           0        0.070719    0.637307    0.000000
      3          6           0       -0.070719   -0.637307    0.000000
      4          6           0        0.070719   -1.927559    0.000000
      5          1           0        0.664358    2.722148    0.000000
      6          1           0       -0.664358   -2.722148    0.000000
 ---------------------------------------------------------------------

 SCF Done:  E(UB3LYP) =  -153.416854517     A.U. after   13 cycles

 The electronic state is 3-AU.
 Alpha  occ. eigenvalues --  -10.23429 -10.23425 -10.22867 -10.22742  -0.84327
 Alpha  occ. eigenvalues --   -0.77869  -0.67937  -0.53112  -0.50393  -0.39618
 Alpha  occ. eigenvalues --   -0.39035  -0.31194  -0.29821  -0.19281
 Alpha virt. eigenvalues --   -0.09555  -0.00397   0.00724   0.01312   0.05343
 Alpha virt. eigenvalues --    0.05473   0.05474   0.06105   0.09078   0.09423
 Alpha virt. eigenvalues --    0.09875   0.10983   0.11962   0.12564   0.13280

  Beta  occ. eigenvalues --  -10.22642 -10.22521 -10.22148 -10.22148  -0.82402
  Beta  occ. eigenvalues --   -0.74867  -0.65667  -0.51503  -0.49103  -0.36244
  Beta  occ. eigenvalues --   -0.36073  -0.25884
  Beta virt. eigenvalues --   -0.19456  -0.09695  -0.04805  -0.00228   0.00918
  Beta virt. eigenvalues --    0.02604   0.05626   0.05786   0.06203   0.06706
  Beta virt. eigenvalues --    0.09539   0.09922   0.10939   0.11160   0.12355

 Mulliken charges and spin densities:
               1          2
     1  C   -0.625971   0.760057
     2  C    0.417493   0.212946
     3  C    0.417493   0.212946
     4  C   -0.625971   0.760057
     5  H    0.208478   0.026998
     6  H    0.208478   0.026998
 Sum of Mulliken charges =   0.00000   2.00000

 Dipole moment (field-independent basis, Debye):
    X=              0.0000    Y=             -0.0000    Z=              0.0000  Tot=              0.0000
 Quadrupole moment (field-independent basis, Debye-Ang):
   XX=            -25.5913   YY=            -20.2549   ZZ=            -23.4505
   XY=              5.6220   XZ=              0.0000   YZ=              0.0000

  Exact polarizability:  37.097  -5.003 118.683  -0.000  -0.000  29.796
 Approx polarizability:  49.473 -15.625 252.092  -0.000  -0.000  41.562

                      1                      2                      3
                     AU                     BU                     AG
 Frequencies --    219.2973               236.3620               396.5231
 Red. masses --      4.0128                 3.9789                 5.5168
 Frc consts  --      0.1137                 0.1310                 0.5111
 IR Inten    --      0.8393                 9.1580                 0.0000

                      4                      5                      6
                     BG                     BU                     AG
 Frequencies --    550.4868               624.7425               807.5789
 Red. masses --      4.5561                 1.3148                 1.2514
 Frc consts  --      0.8135                 0.3024                 0.4809
 IR Inten    --      0.0000               606.3397                 0.0000

                      7                      8                      9
                     AU                     AG                     BU
 Frequencies --    841.0855               961.4235              1532.4171
 Red. masses --      1.2662                 8.4101                 6.3718
 Frc consts  --      0.5278                 4.5801                 8.8159
 IR Inten    --     19.4754                 0.0000                 3.7305

                     10                     11                     12
                     AG                     BU                     AG
 Frequencies --   2113.8053              3177.4861              3177.9277
 Red. masses --     10.0337                 1.1000                 1.0984
 Frc consts  --     26.4145                 6.5438                 6.5356
 IR Inten    --      0.0000                 2.9513                 0.0000

 - Thermochemistry -
 -------------------
 Temperature   298.150 Kelvin.  Pressure   1.00000 Atm.
 Atom     1 has atomic number  6 and mass  12.00000

 Molecular mass:    50.01565 amu.
 Principal axes and moments of inertia in atomic units:
                           1         2         3
     Eigenvalues --     3.96717 406.65271 410.61989
           X            0.01291   0.99992   0.00000
           Y            0.99992  -0.01291   0.00000
           Z            0.00000  -0.00000   1.00000
 This molecule is an asymmetric top.
 Rotational symmetry number  2.
 Rotational temperatures (Kelvin)     21.83263     0.21299     0.21093
 Rotational constants (GHZ):         454.91870     4.43804     4.39516
 Zero-point vibrational energy      87561.5 (Joules/Mol)
                                   20.92769 (Kcal/Mol)
 Warning -- explicit consideration of   4 degrees of freedom as
           vibrations may cause significant error
 Vibrational temperatures:    315.52   340.07   570.51   792.03   898.86
          (Kelvin)           1161.92  1210.13  1383.27  2204.80  3041.29
                             4571.69  4572.32

 Zero-point correction=                           0.033350 (Hartree/Particle)
 Thermal correction to Energy=                    0.038060
 Thermal correction to Enthalpy=                  0.039004
 Thermal correction to Gibbs Free Energy=         0.007740
 Sum of electronic and zero-point Energies=           -153.383504
 Sum of electronic and thermal Energies=              -153.378795
 Sum of electronic and thermal Enthalpies=            -153.377850
 Sum of electronic and thermal Free Energies=         -153.409114

                     E (Thermal)             CV                S
                      KCal/Mol        Cal/Mol-Kelvin    Cal/Mol-Kelvin
 Total                   23.883             14.874             65.800
 Electronic               0.000              0.000              2.183
 Translational            0.889              2.981             37.653
 Rotational               0.889              2.981             19.743
 Vibrational             22.106              8.913              6.221
 Vibration     1          0.647              1.812              1.965
 Vibration     2          0.655              1.785              1.830
 Vibration     3          0.763              1.478              0.976
 Vibration     4          0.906              1.139              0.543

 Optimization completed.
    -- Stationary point found.
 Normal termination of Gaussian 09 at Thu Jan 31 04:17:36 2019.
