 Gaussian 09, Revision E.01,
 Gaussian 09:  EM64L-G09RevE.01 30-Nov-2015

 ---------------------------------------------
 #p b3lyp/6-311++G(3df,2p) freq symmetry=Loose
 ---------------------------------------------

 ---------
 b3lyp opt
 ---------
 Symbolic Z-matrix:
 Charge =  1 Multiplicity = 4

                         Standard orientation:
 ---------------------------------------------------------------------
 Center     Atomic      Atomic             Coordinates (Angstroms)
 Number     Number       Type             X           Y           Z
 ---------------------------------------------------------------------
      1          6           0        0.000000   -1.769092   -0.000000
      2          6           0        0.000000   -0.420869   -0.000000
      3          6           0       -0.000000    0.845140    0.000000
      4          6           0       -0.000000    2.121378    0.000000
      5          1           0       -0.000000   -2.329669    0.933391
      6          1           0       -0.000000   -2.329669   -0.933391
 ---------------------------------------------------------------------

 SCF Done:  E(UB3LYP) =  -153.060033065     A.U. after   14 cycles

 The electronic state is 4-A".
 Alpha  occ. eigenvalues --  -10.54980 -10.50036 -10.48718 -10.48364  -1.09637
 Alpha  occ. eigenvalues --   -1.04056  -0.93583  -0.76430  -0.72284  -0.67405
 Alpha  occ. eigenvalues --   -0.64089  -0.61732  -0.55044  -0.47699
 Alpha virt. eigenvalues --   -0.34843  -0.18190  -0.16458  -0.13683  -0.12620
 Alpha virt. eigenvalues --   -0.11153  -0.09750  -0.08424  -0.06720  -0.06240
 Alpha virt. eigenvalues --   -0.05323  -0.04337  -0.02795  -0.02029  -0.00719

  Beta  occ. eigenvalues --  -10.51112 -10.49407 -10.48435 -10.47721  -1.06902
  Beta  occ. eigenvalues --   -0.99816  -0.90112  -0.74883  -0.70490  -0.60283
  Beta  occ. eigenvalues --   -0.57527
  Beta virt. eigenvalues --   -0.43179  -0.42491  -0.33491  -0.28082  -0.16084
  Beta virt. eigenvalues --   -0.13933  -0.11978  -0.11060  -0.10293  -0.09293
  Beta virt. eigenvalues --   -0.07415  -0.05799  -0.05199  -0.03618  -0.03532

 Mulliken charges and spin densities:
               1          2
     1  C   -0.281970   0.333523
     2  C    0.252441   0.599304
     3  C    0.386046   0.101855
     4  C    0.131527   1.924236
     5  H    0.255978   0.020541
     6  H    0.255978   0.020541
 Sum of Mulliken charges =   1.00000   3.00000

 Dipole moment (field-independent basis, Debye):
    X=             -0.0000    Y=             -1.1110    Z=              0.0000  Tot=              1.1110
 Quadrupole moment (field-independent basis, Debye-Ang):
   XX=            -20.4941   YY=              0.6280   ZZ=            -19.8223
   XY=              0.0000   XZ=             -0.0000   YZ=             -0.0000

  Exact polarizability:  22.393  -0.000  83.046   0.000   0.000  25.331
 Approx polarizability:  30.683  -0.000 165.095  -0.000  -0.000  33.247

                      1                      2                      3
                     A"                     A'                     A"
 Frequencies --    152.0933               216.0111               374.1084
 Red. masses --      3.5967                 5.6720                11.5588
 Frc consts  --      0.0490                 0.1559                 0.9531
 IR Inten    --     11.4828                 8.5939                 0.7320

                      4                      5                      6
                     A'                     A'                     A"
 Frequencies --    522.0142               917.6063               999.7380
 Red. masses --      9.0553                 5.4764                 1.3361
 Frc consts  --      1.4538                 2.7168                 0.7868
 IR Inten    --      0.1018                 8.2838                 0.1242

                      7                      8                      9
                     A'                     A'                     A'
 Frequencies --   1029.3848              1438.1522              1537.1034
 Red. masses --      1.3509                 1.2205                 6.2895
 Frc consts  --      0.8434                 1.4873                 8.7553
 IR Inten    --     18.8510                36.1471                60.9965

                     10                     11                     12
                     A'                     A'                     A"
 Frequencies --   2015.7428              3076.7764              3173.7850
 Red. masses --     11.5948                 1.0519                 1.1189
 Frc consts  --     27.7577                 5.8668                 6.6404
 IR Inten    --      0.0099                42.3457                32.6522

 - Thermochemistry -
 -------------------
 Temperature   298.150 Kelvin.  Pressure   1.00000 Atm.
 Atom     1 has atomic number  6 and mass  12.00000

 Molecular mass:    50.01565 amu.
 Principal axes and moments of inertia in atomic units:
                           1         2         3
     Eigenvalues --     6.27105 402.70268 408.97373
           X            0.00000   0.00000   1.00000
           Y            1.00000   0.00000  -0.00000
           Z           -0.00000   1.00000  -0.00000
 This molecule is an asymmetric top.
 Rotational symmetry number  1.
 Rotational temperatures (Kelvin)     13.81169     0.21508     0.21178
 Rotational constants (GHZ):         287.78937     4.48157     4.41285
 Zero-point vibrational energy      92426.6 (Joules/Mol)
                                   22.09048 (Kcal/Mol)
 Warning -- explicit consideration of   4 degrees of freedom as
           vibrations may cause significant error
 Vibrational temperatures:    218.83   310.79   538.26   751.06  1320.23
          (Kelvin)           1438.40  1481.05  2069.18  2211.55  2900.20
                             4426.79  4566.36

 Zero-point correction=                           0.035203 (Hartree/Particle)
 Thermal correction to Energy=                    0.039887
 Thermal correction to Enthalpy=                  0.040831
 Thermal correction to Gibbs Free Energy=         0.008232
 Sum of electronic and zero-point Energies=           -153.024830
 Sum of electronic and thermal Energies=              -153.020146
 Sum of electronic and thermal Enthalpies=            -153.019202
 Sum of electronic and thermal Free Energies=         -153.051801

                     E (Thermal)             CV                S
                      KCal/Mol        Cal/Mol-Kelvin    Cal/Mol-Kelvin
 Total                   25.029             13.775             68.610
 Electronic               0.000              0.000              2.755
 Translational            0.889              2.981             37.653
 Rotational               0.889              2.981             21.562
 Vibrational             23.252              7.814              6.640
 Vibration     1          0.619              1.900              2.646
 Vibration     2          0.645              1.817              1.992
 Vibration     3          0.745              1.525              1.063
 Vibration     4          0.877              1.201              0.605

 Optimization completed.
    -- Stationary point found.
 Normal termination of Gaussian 09 at Tue Jul 19 03:50:30 2016.
