 Gaussian 09, Revision E.01,
 Gaussian 09:  EM64L-G09RevE.01 30-Nov-2015

 ---------------------------------------------
 #p b3lyp/6-311++G(3df,2p) freq symmetry=Loose
 ---------------------------------------------

 ---------
 b3lyp opt
 ---------
 Symbolic Z-matrix:
 Charge =  0 Multiplicity = 3

                         Standard orientation:
 ---------------------------------------------------------------------
 Center     Atomic      Atomic             Coordinates (Angstroms)
 Number     Number       Type             X           Y           Z
 ---------------------------------------------------------------------
      1          6           0        1.923223    0.147307    0.000002
      2          6           0        0.639615   -0.045323   -0.000013
      3          6           0       -0.639615    0.045323    0.000013
      4          6           0       -1.923223   -0.147307   -0.000002
      5          1           0        2.746411   -0.555594   -0.000104
      6          1           0       -2.746411    0.555594    0.000104
 ---------------------------------------------------------------------

 SCF Done:  E(UB3LYP) =  -153.416852310     A.U. after   12 cycles

 The electronic state is 3-AU.
 Alpha  occ. eigenvalues --  -10.23429 -10.23424 -10.22867 -10.22742  -0.84327
 Alpha  occ. eigenvalues --   -0.77869  -0.67937  -0.53112  -0.50393  -0.39618
 Alpha  occ. eigenvalues --   -0.39034  -0.31194  -0.29821  -0.19281
 Alpha virt. eigenvalues --   -0.09555  -0.00398   0.00724   0.01311   0.05387
 Alpha virt. eigenvalues --    0.05468   0.05475   0.06105   0.09078   0.09639
 Alpha virt. eigenvalues --    0.09875   0.11461   0.12565   0.12907   0.13279

  Beta  occ. eigenvalues --  -10.22642 -10.22521 -10.22148 -10.22148  -0.82402
  Beta  occ. eigenvalues --   -0.74867  -0.65667  -0.51503  -0.49103  -0.36244
  Beta  occ. eigenvalues --   -0.36073  -0.25884
  Beta virt. eigenvalues --   -0.19456  -0.09695  -0.04805  -0.00228   0.00919
  Beta virt. eigenvalues --    0.02603   0.05622   0.05821   0.06204   0.06706
  Beta virt. eigenvalues --    0.09786   0.09921   0.10940   0.11824   0.13411

 Mulliken charges and spin densities:
               1          2
     1  C   -0.576010   0.762114
     2  C    0.367113   0.210809
     3  C    0.367113   0.210809
     4  C   -0.576010   0.762114
     5  H    0.208898   0.027077
     6  H    0.208898   0.027077
 Sum of Mulliken charges =  -0.00000   2.00000

 Dipole moment (field-independent basis, Debye):
    X=             -0.0000    Y=              0.0000    Z=             -0.0000  Tot=              0.0000
 Quadrupole moment (field-independent basis, Debye-Ang):
   XX=            -19.8226   YY=            -26.0292   ZZ=            -23.4494
   XY=             -5.3961   XZ=             -0.0008   YZ=             -0.0003

  Exact polarizability: 118.191   8.257  37.507   0.000   0.001  29.765
 Approx polarizability: 250.575  23.642  50.910   0.001   0.001  41.533

                      1                      2                      3
                     AU                     AU                     AG
 Frequencies --    219.1393               236.5041               396.7103
 Red. masses --      4.0103                 3.9754                 5.5138
 Frc consts  --      0.1135                 0.1310                 0.5113
 IR Inten    --      0.8249                 9.2032                 0.0000

                      4                      5                      6
                     AG                     AU                     AG
 Frequencies --    550.2750               624.7751               807.6505
 Red. masses --      4.5561                 1.3152                 1.2515
 Frc consts  --      0.8128                 0.3025                 0.4810
 IR Inten    --      0.0000               606.3463                 0.0000

                      7                      8                      9
                     AU                     AG                     AU
 Frequencies --    840.6949               961.4292              1532.4418
 Red. masses --      1.2665                 8.4110                 6.3713
 Frc consts  --      0.5274                 4.5807                 8.8155
 IR Inten    --     19.5182                 0.0000                 3.7215

                     10                     11                     12
                     AG                     AU                     AG
 Frequencies --   2113.8413              3177.3644              3177.8102
 Red. masses --     10.0335                 1.1000                 1.0984
 Frc consts  --     26.4148                 6.5433                 6.5352
 IR Inten    --      0.0000                 2.9692                 0.0000

 - Thermochemistry -
 -------------------
 Temperature   298.150 Kelvin.  Pressure   1.00000 Atm.
 Atom     1 has atomic number  6 and mass  12.00000

 Molecular mass:    50.01565 amu.
 Principal axes and moments of inertia in atomic units:
                           1         2         3
     Eigenvalues --     3.96717 406.65271 410.61989
           X            0.99964  -0.02686   0.00001
           Y            0.02686   0.99964  -0.00014
           Z           -0.00001   0.00014   1.00000
 This molecule is an asymmetric top.
 Rotational symmetry number  1.
 Rotational temperatures (Kelvin)     21.83263     0.21299     0.21093
 Rotational constants (GHZ):         454.91869     4.43804     4.39516
 Zero-point vibrational energy      87558.5 (Joules/Mol)
                                   20.92698 (Kcal/Mol)
 Warning -- explicit consideration of   4 degrees of freedom as
           vibrations may cause significant error
 Vibrational temperatures:    315.29   340.28   570.78   791.72   898.91
          (Kelvin)           1162.03  1209.57  1383.28  2204.84  3041.34
                             4571.51  4572.15

 Zero-point correction=                           0.033349 (Hartree/Particle)
 Thermal correction to Energy=                    0.038059
 Thermal correction to Enthalpy=                  0.039003
 Thermal correction to Gibbs Free Energy=         0.007085
 Sum of electronic and zero-point Energies=           -153.383503
 Sum of electronic and thermal Energies=              -153.378793
 Sum of electronic and thermal Enthalpies=            -153.377849
 Sum of electronic and thermal Free Energies=         -153.409768

                     E (Thermal)             CV                S
                      KCal/Mol        Cal/Mol-Kelvin    Cal/Mol-Kelvin
 Total                   23.882             14.875             67.178
 Electronic               0.000              0.000              2.183
 Translational            0.889              2.981             37.653
 Rotational               0.889              2.981             21.121
 Vibrational             22.105              8.913              6.221
 Vibration     1          0.647              1.812              1.966
 Vibration     2          0.655              1.785              1.829
 Vibration     3          0.763              1.477              0.975
 Vibration     4          0.906              1.139              0.544

 Optimization completed.
    -- Stationary point found.
 Normal termination of Gaussian 09 at Tue Jul 19 03:48:05 2016.
