 Gaussian 09, Revision E.01,
 Gaussian 09:  EM64L-G09RevE.01 30-Nov-2015

 ---------------------------------------------
 #p b3lyp/6-311++G(3df,2p) freq symmetry=Loose
 ---------------------------------------------

 ---------
 b3lyp opt
 ---------
 Symbolic Z-matrix:
 Charge =  3 Multiplicity = 2

                         Standard orientation:
 ---------------------------------------------------------------------
 Center     Atomic      Atomic             Coordinates (Angstroms)
 Number     Number       Type             X           Y           Z
 ---------------------------------------------------------------------
      1          6           0       -0.000000    1.757601    0.000000
      2          6           0       -0.408710    0.475400    0.000000
      3          6           0        0.144318   -0.785523   -0.000000
      4          6           0        0.508311   -2.034030   -0.000000
      5          1           0        0.131235    2.901386    0.000000
      6          1           0       -1.594742    0.617928    0.000000
 ---------------------------------------------------------------------

 SCF Done:  E(UB3LYP) =  -151.521980906     A.U. after   27 cycles

 The electronic state is 2-A'.
 Alpha  occ. eigenvalues --  -11.17501 -11.15371 -11.07239 -11.06320  -1.64006
 Alpha  occ. eigenvalues --   -1.57685  -1.44002  -1.31120  -1.24774  -1.17462
 Alpha  occ. eigenvalues --   -1.14269  -1.08341
 Alpha virt. eigenvalues --   -1.00696  -0.91474  -0.84311  -0.78170  -0.68511
 Alpha virt. eigenvalues --   -0.62327  -0.55667  -0.53291  -0.49568  -0.45306
 Alpha virt. eigenvalues --   -0.44248  -0.42091  -0.41695  -0.39316  -0.37668

  Beta  occ. eigenvalues --  -11.18050 -11.12454 -11.06682 -11.06539  -1.64707
  Beta  occ. eigenvalues --   -1.55299  -1.43306  -1.31476  -1.25106  -1.14938
  Beta  occ. eigenvalues --   -1.06135
  Beta virt. eigenvalues --   -0.98612  -0.93302  -0.91773  -0.83365  -0.74688
  Beta virt. eigenvalues --   -0.65255  -0.62759  -0.55494  -0.52719  -0.49581
  Beta virt. eigenvalues --   -0.45123  -0.44459  -0.41685  -0.41662  -0.39044

 Mulliken charges and spin densities:
               1          2
     1  C    0.435914  -0.275408
     2  C    0.217216  -0.107267
     3  C    0.785107   0.163928
     4  C    0.692587   1.202430
     5  H    0.516575   0.006628
     6  H    0.352600   0.009689
 Sum of Mulliken charges =   3.00000   1.00000

 Dipole moment (field-independent basis, Debye):
    X=             -0.3859    Y=              2.9994    Z=              0.0000  Tot=              3.0241
 Quadrupole moment (field-independent basis, Debye-Ang):
   XX=            -10.2992   YY=             33.6199   ZZ=            -15.6575
   XY=             -6.6415   XZ=             -0.0000   YZ=              0.0000

  Exact polarizability:  24.424  -6.166  67.657  -0.000  -0.000  16.768
 Approx polarizability:  38.053 -15.085 166.987  -0.000   0.000  23.463

                      1                      2                      3
                     A'                     A"                     A'
 Frequencies --    172.7272               293.8063               307.5525
 Red. masses --      4.9698                 3.4940                 3.5413
 Frc consts  --      0.0874                 0.1777                 0.1974
 IR Inten    --     27.3527                39.8575                14.7903

                      4                      5                      6
                     A"                     A'                     A"
 Frequencies --    565.0093               788.8235               825.8070
 Red. masses --      1.7091                 3.0375                 1.6023
 Frc consts  --      0.3215                 1.1136                 0.6438
 IR Inten    --     74.8933                34.3850                 0.1740

                      7                      8                      9
                     A'                     A'                     A'
 Frequencies --    927.6834               962.8581              1448.1053
 Red. masses --      1.8391                 1.3280                 5.0309
 Frc consts  --      0.9325                 0.7254                 6.2158
 IR Inten    --      4.9178                37.1646               954.1562

                     10                     11                     12
                     A'                     A'                     A'
 Frequencies --   1785.6701              2191.5417              2622.4822
 Red. masses --      9.3753                 1.0708                 1.1535
 Frc consts  --     17.6131                 3.0301                 4.6742
 IR Inten    --    114.9159               684.9835               740.9071

 - Thermochemistry -
 -------------------
 Temperature   298.150 Kelvin.  Pressure   1.00000 Atm.
 Atom     1 has atomic number  6 and mass  12.00000

 Molecular mass:    50.01565 amu.
 Principal axes and moments of inertia in atomic units:
                           1         2         3
     Eigenvalues --    18.36970 386.41823 404.78793
           X           -0.16333   0.98657   0.00000
           Y            0.98657   0.16333   0.00000
           Z            0.00000   0.00000   1.00000
 This molecule is an asymmetric top.
 Rotational symmetry number  1.
 Rotational temperatures (Kelvin)      4.71504     0.22415     0.21397
 Rotational constants (GHZ):          98.24557     4.67043     4.45849
 Zero-point vibrational energy      77111.7 (Joules/Mol)
                                   18.43013 (Kcal/Mol)
 Warning -- explicit consideration of   4 degrees of freedom as
           vibrations may cause significant error
 Vibrational temperatures:    248.52   422.72   442.50   812.92  1134.94
          (Kelvin)           1188.15  1334.73  1385.34  2083.50  2569.18
                             3153.14  3773.16

 Zero-point correction=                           0.029370 (Hartree/Particle)
 Thermal correction to Energy=                    0.034079
 Thermal correction to Enthalpy=                  0.035023
 Thermal correction to Gibbs Free Energy=         0.002708
 Sum of electronic and zero-point Energies=           -151.492611
 Sum of electronic and thermal Energies=              -151.487902
 Sum of electronic and thermal Enthalpies=            -151.486958
 Sum of electronic and thermal Free Energies=         -151.519273

                     E (Thermal)             CV                S
                      KCal/Mol        Cal/Mol-Kelvin    Cal/Mol-Kelvin
 Total                   21.385             14.574             68.012
 Electronic               0.000              0.000              1.377
 Translational            0.889              2.981             37.653
 Rotational               0.889              2.981             22.579
 Vibrational             19.607              8.612              6.403
 Vibration     1          0.626              1.876              2.406
 Vibration     2          0.689              1.685              1.452
 Vibration     3          0.697              1.659              1.375
 Vibration     4          0.921              1.107              0.514

 Optimization completed.
    -- Stationary point found.
 Normal termination of Gaussian 09 at Sun Jun 19 01:12:27 2016.
