 Gaussian 09, Revision E.01,
 Gaussian 09:  EM64L-G09RevE.01 30-Nov-2015

 ---------------------------------------------
 #p b3lyp/6-311++G(3df,2p) freq symmetry=Loose
 ---------------------------------------------

 ---------
 b3lyp opt
 ---------
 Symbolic Z-matrix:
 Charge =  1 Multiplicity = 4

                         Standard orientation:
 ---------------------------------------------------------------------
 Center     Atomic      Atomic             Coordinates (Angstroms)
 Number     Number       Type             X           Y           Z
 ---------------------------------------------------------------------
      1          6           0       -0.523503    1.658082    0.000000
      2          6           0       -0.000000    0.550355    0.000000
      3          6           0        0.590164   -0.682975   -0.000000
      4          6           0       -0.183498   -1.832749   -0.000000
      5          1           0       -0.977156    2.629706    0.000000
      6          1           0        1.678181   -0.785985   -0.000000
 ---------------------------------------------------------------------

 SCF Done:  E(UB3LYP) =  -153.039713400     A.U. after   17 cycles

 The electronic state is 4-A".
 Alpha  occ. eigenvalues --  -10.54690 -10.51323 -10.48728 -10.47014  -1.10684
 Alpha  occ. eigenvalues --   -1.02926  -0.88515  -0.79172  -0.76121  -0.66043
 Alpha  occ. eigenvalues --   -0.63740  -0.55819  -0.54745  -0.50253
 Alpha virt. eigenvalues --   -0.33701  -0.23160  -0.17027  -0.15443  -0.12969
 Alpha virt. eigenvalues --   -0.11848  -0.10149  -0.09859  -0.07312  -0.06193
 Alpha virt. eigenvalues --   -0.05788  -0.05466  -0.03576  -0.03323  -0.01798

  Beta  occ. eigenvalues --  -10.50942 -10.50688 -10.47939 -10.46866  -1.08026
  Beta  occ. eigenvalues --   -0.99146  -0.83823  -0.77589  -0.74272  -0.59872
  Beta  occ. eigenvalues --   -0.55250
  Beta virt. eigenvalues --   -0.43210  -0.42886  -0.30116  -0.26620  -0.21841
  Beta virt. eigenvalues --   -0.14965  -0.14305  -0.12631  -0.11285  -0.09354
  Beta virt. eigenvalues --   -0.09261  -0.06648  -0.05740  -0.05210  -0.04476

 Mulliken charges and spin densities:
               1          2
     1  C    0.504843   0.313463
     2  C    0.040859   0.074193
     3  C   -0.240284   0.226588
     4  C    0.080505   2.346882
     5  H    0.387950  -0.013210
     6  H    0.226128   0.052084
 Sum of Mulliken charges =   1.00000   3.00000

 Dipole moment (field-independent basis, Debye):
    X=             -0.0205    Y=              0.5307    Z=              0.0000  Tot=              0.5311
 Quadrupole moment (field-independent basis, Debye-Ang):
   XX=            -17.0321   YY=             -3.9477   ZZ=            -20.7869
   XY=             -4.5734   XZ=             -0.0000   YZ=              0.0000

  Exact polarizability:  32.136  -7.835  74.878  -0.000  -0.000  23.134
 Approx polarizability:  48.703 -16.539 145.489  -0.000   0.000  32.198

                      1                      2                      3
                     A'                     A"                     A'
 Frequencies --    216.3885               318.4780               571.4274
 Red. masses --      5.1520                 2.8342                 8.0820
 Frc consts  --      0.1421                 0.1694                 1.5549
 IR Inten    --      5.5318                17.5566                 4.7540

                      4                      5                      6
                     A'                     A"                     A"
 Frequencies --    690.2053               773.9360               843.0297
 Red. masses --      1.2469                 1.3418                 1.7184
 Frc consts  --      0.3500                 0.4735                 0.7195
 IR Inten    --     44.1066                11.1463                15.9910

                      7                      8                      9
                     A'                     A'                     A'
 Frequencies --   1053.3628              1237.6109              1317.6081
 Red. masses --      4.5939                 1.8352                 2.6012
 Frc consts  --      3.0032                 1.6561                 2.6607
 IR Inten    --      2.4463                 2.1881                12.8692

                     10                     11                     12
                     A'                     A'                     A'
 Frequencies --   2097.8312              3068.2570              3365.6737
 Red. masses --      6.4378                 1.0874                 1.1530
 Frc consts  --     16.6928                 6.0312                 7.6951
 IR Inten    --    264.0000                45.3633               138.3708

 - Thermochemistry -
 -------------------
 Temperature   298.150 Kelvin.  Pressure   1.00000 Atm.
 Atom     1 has atomic number  6 and mass  12.00000

 Molecular mass:    50.01565 amu.
 Principal axes and moments of inertia in atomic units:
                           1         2         3
     Eigenvalues --    31.54311 331.70198 363.24509
           X           -0.18350   0.98302   0.00000
           Y            0.98302   0.18350   0.00000
           Z           -0.00000  -0.00000   1.00000
 This molecule is an asymmetric top.
 Rotational symmetry number  1.
 Rotational temperatures (Kelvin)      2.74589     0.26112     0.23844
 Rotational constants (GHZ):          57.21508     5.44085     4.96838
 Zero-point vibrational energy      93032.4 (Joules/Mol)
                                   22.23529 (Kcal/Mol)
 Warning -- explicit consideration of   3 degrees of freedom as
           vibrations may cause significant error
 Vibrational temperatures:    311.33   458.22   822.16   993.05  1113.52
          (Kelvin)           1212.93  1515.55  1780.64  1895.74  3018.31
                             4414.53  4842.45

 Zero-point correction=                           0.035434 (Hartree/Particle)
 Thermal correction to Energy=                    0.039701
 Thermal correction to Enthalpy=                  0.040645
 Thermal correction to Gibbs Free Energy=         0.008368
 Sum of electronic and zero-point Energies=           -153.004279
 Sum of electronic and thermal Energies=              -153.000012
 Sum of electronic and thermal Enthalpies=            -152.999068
 Sum of electronic and thermal Free Energies=         -153.031345

                     E (Thermal)             CV                S
                      KCal/Mol        Cal/Mol-Kelvin    Cal/Mol-Kelvin
 Total                   24.913             13.286             67.932
 Electronic               0.000              0.000              2.755
 Translational            0.889              2.981             37.653
 Rotational               0.889              2.981             22.857
 Vibrational             23.135              7.324              4.668
 Vibration     1          0.645              1.816              1.989
 Vibration     2          0.705              1.638              1.318
 Vibration     3          0.928              1.093              0.502

 Optimization completed.
    -- Stationary point found.
 Normal termination of Gaussian 09 at Tue Jul 19 04:17:04 2016.
