 Gaussian 09, Revision E.01,
 Gaussian 09:  EM64L-G09RevE.01 30-Nov-2015

 ---------------------------------------------
 #p b3lyp/6-311++G(3df,2p) freq symmetry=Loose
 ---------------------------------------------

 ---------
 b3lyp opt
 ---------
 Symbolic Z-matrix:
 Charge =  2 Multiplicity = 1

                         Standard orientation:
 ---------------------------------------------------------------------
 Center     Atomic      Atomic             Coordinates (Angstroms)
 Number     Number       Type             X           Y           Z
 ---------------------------------------------------------------------
      1          6           0        1.147915    1.495236    0.000000
      2          6           0        0.000000    0.664173    0.000000
      3          6           0       -0.112898   -0.741914   -0.000000
      4          6           0       -0.902182   -1.823931   -0.000000
      5          1           0       -0.398505    1.219306    0.943546
      6          1           0       -0.398505    1.219306   -0.943546
 ---------------------------------------------------------------------

 SCF Done:  E(RB3LYP) =  -152.290358788     A.U. after   16 cycles

 The electronic state is 1-A'.
 Alpha  occ. eigenvalues --  -10.91491 -10.83032 -10.80664 -10.78822  -1.40930
 Alpha  occ. eigenvalues --   -1.30278  -1.15469  -1.02359  -1.01880  -0.86954
 Alpha  occ. eigenvalues --   -0.82455  -0.81304
 Alpha virt. eigenvalues --   -0.74274  -0.66331  -0.64223  -0.53877  -0.51754
 Alpha virt. eigenvalues --   -0.39244  -0.34363  -0.33507  -0.29841  -0.27271
 Alpha virt. eigenvalues --   -0.26127  -0.24928  -0.21680  -0.21426  -0.20777

 Mulliken charges:
               1
     1  C    0.323031
     2  C   -0.028906
     3  C    0.845666
     4  C    0.144858
     5  H    0.357676
     6  H    0.357676
 Sum of Mulliken charges =   2.00000

 Dipole moment (field-independent basis, Debye):
    X=              0.4349    Y=              1.8919    Z=             -0.0000  Tot=              1.9412
 Quadrupole moment (field-independent basis, Debye-Ang):
   XX=            -13.9019   YY=              0.9217   ZZ=            -16.5435
   XY=              4.4368   XZ=              0.0000   YZ=             -0.0000

  Exact polarizability:  37.865  22.609  70.740  -0.000  -0.000  27.167
 Approx polarizability: 103.729  97.094 207.913   0.000  -0.000  39.870

                      1                      2                      3
                     A"                     A'                     A"
 Frequencies --    201.5020               230.2159               361.8179
 Red. masses --      8.0815                 8.9648                 1.6413
 Frc consts  --      0.1933                 0.2799                 0.1266
 IR Inten    --      0.8756                26.7328                 8.0882

                      4                      5                      6
                     A'                     A'                     A"
 Frequencies --    398.6645               711.7675               937.6134
 Red. masses --      6.1804                 1.8349                 1.1939
 Frc consts  --      0.5787                 0.5477                 0.6184
 IR Inten    --      3.7508                 3.3769                 2.2658

                      7                      8                      9
                     A'                     A'                     A'
 Frequencies --    952.0646              1154.4979              1270.6579
 Red. masses --      2.4623                 1.3405                 4.1384
 Frc consts  --      1.3150                 1.0527                 3.9368
 IR Inten    --      9.0034               150.2374               225.7579

                     10                     11                     12
                     A'                     A'                     A"
 Frequencies --   1511.8603              2467.0496              2476.2793
 Red. masses --      7.8199                 1.0528                 1.0894
 Frc consts  --     10.5311                 3.7753                 3.9359
 IR Inten    --     77.7860               334.8762               397.0994

 - Thermochemistry -
 -------------------
 Temperature   298.150 Kelvin.  Pressure   1.00000 Atm.
 Atom     1 has atomic number  6 and mass  12.00000

 Molecular mass:    50.01565 amu.
 Principal axes and moments of inertia in atomic units:
                           1         2         3
     Eigenvalues --    23.43964 373.50938 384.13253
           X            0.46582   0.88488   0.00000
           Y            0.88488  -0.46582   0.00000
           Z            0.00000   0.00000   1.00000
 This molecule is an asymmetric top.
 Rotational symmetry number  1.
 Rotational temperatures (Kelvin)      3.69519     0.23189     0.22548
 Rotational constants (GHZ):          76.99526     4.83185     4.69823
 Zero-point vibrational energy      75807.3 (Joules/Mol)
                                   18.11838 (Kcal/Mol)
 Warning -- explicit consideration of   4 degrees of freedom as
           vibrations may cause significant error
 Vibrational temperatures:    289.92   331.23   520.57   573.59  1024.07
          (Kelvin)           1349.01  1369.81  1661.06  1828.19  2175.23
                             3549.53  3562.81

 Zero-point correction=                           0.028873 (Hartree/Particle)
 Thermal correction to Energy=                    0.033675
 Thermal correction to Enthalpy=                  0.034619
 Thermal correction to Gibbs Free Energy=         0.002745
 Sum of electronic and zero-point Energies=           -152.261485
 Sum of electronic and thermal Energies=              -152.256684
 Sum of electronic and thermal Enthalpies=            -152.255740
 Sum of electronic and thermal Free Energies=         -152.287614

                     E (Thermal)             CV                S
                      KCal/Mol        Cal/Mol-Kelvin    Cal/Mol-Kelvin
 Total                   21.131             14.784             67.085
 Electronic               0.000              0.000              0.000
 Translational            0.889              2.981             37.653
 Rotational               0.889              2.981             22.735
 Vibrational             19.354              8.822              6.697
 Vibration     1          0.638              1.838              2.119
 Vibration     2          0.652              1.795              1.877
 Vibration     3          0.736              1.551              1.114
 Vibration     4          0.765              1.473              0.968

 Optimization completed.
    -- Stationary point found.
 Normal termination of Gaussian 09 at Tue Jul 19 03:37:55 2016.
