 Gaussian 09, Revision E.01,
 Gaussian 09:  EM64L-G09RevE.01 30-Nov-2015

 ---------------------------------------------
 #p b3lyp/6-311++G(3df,2p) freq symmetry=Loose
 ---------------------------------------------

 ---------
 b3lyp opt
 ---------
 Symbolic Z-matrix:
 Charge =  0 Multiplicity = 3

                         Standard orientation:
 ---------------------------------------------------------------------
 Center     Atomic      Atomic             Coordinates (Angstroms)
 Number     Number       Type             X           Y           Z
 ---------------------------------------------------------------------
      1          6           0        1.589480   -0.394680   -0.012054
      2          6           0        0.614830    0.536654   -0.004683
      3          6           0       -0.705782    0.126619    0.051609
      4          6           0       -1.909021   -0.288523   -0.030954
      5          1           0        1.600135   -1.474869    0.022406
      6          1           0        0.862816    1.594444   -0.045918
 ---------------------------------------------------------------------

 SCF Done:  E(UB3LYP) =  -153.392925352     A.U. after   23 cycles

 The electronic state is 3-A.
 Alpha  occ. eigenvalues --  -10.27435 -10.25579 -10.21322 -10.21084  -0.86856
 Alpha  occ. eigenvalues --   -0.76789  -0.65746  -0.56307  -0.50253  -0.39975
 Alpha  occ. eigenvalues --   -0.32769  -0.30112  -0.29425  -0.28512
 Alpha virt. eigenvalues --   -0.09288  -0.01293   0.00047   0.01832   0.03941
 Alpha virt. eigenvalues --    0.04458   0.05273   0.07189   0.07277   0.07689
 Alpha virt. eigenvalues --    0.09311   0.10615   0.10703   0.10939   0.11641

  Beta  occ. eigenvalues --  -10.25766 -10.25312 -10.20697 -10.20495  -0.84928
  Beta  occ. eigenvalues --   -0.73279  -0.62821  -0.54876  -0.48947  -0.36779
  Beta  occ. eigenvalues --   -0.28784  -0.28403
  Beta virt. eigenvalues --   -0.18834  -0.13853  -0.05464  -0.01083   0.00318
  Beta virt. eigenvalues --    0.02479   0.04910   0.05059   0.06637   0.07337
  Beta virt. eigenvalues --    0.07801   0.08138   0.09848   0.10900   0.11469

 Mulliken charges and spin densities:
               1          2
     1  C   -0.295728   1.391142
     2  C   -0.159640  -0.193281
     3  C    0.642470   0.393834
     4  C   -0.563634   0.370696
     5  H    0.219924   0.014752
     6  H    0.156608   0.022857
 Sum of Mulliken charges =  -0.00000   2.00000

 Dipole moment (field-independent basis, Debye):
    X=              4.1813    Y=              0.5407    Z=              0.2244  Tot=              4.2221
 Quadrupole moment (field-independent basis, Debye-Ang):
   XX=            -31.3816   YY=            -21.3931   ZZ=            -24.0419
   XY=             -2.3681   XZ=             -0.5868   YZ=             -0.1751

  Exact polarizability:  88.174   1.548  41.626  -4.399  -0.703  34.779
 Approx polarizability: 143.048   3.016  60.268  -1.073   0.075  46.309

                      1                      2                      3
                      A                      A                      A
 Frequencies --    141.6201               181.8990               467.2982
 Red. masses --      5.3220                 4.8419                 3.3770
 Frc consts  --      0.0629                 0.0944                 0.4345
 IR Inten    --     56.3840                 5.8482                15.8927

                      4                      5                      6
                      A                      A                      A
 Frequencies --    750.2626               866.7096               890.1995
 Red. masses --      1.6871                 1.2111                 1.7764
 Frc consts  --      0.5595                 0.5360                 0.8294
 IR Inten    --      6.5791                41.5475                31.3819

                      7                      8                      9
                      A                      A                      A
 Frequencies --   1025.0197              1272.0971              1422.7302
 Red. masses --      3.4583                 1.3901                 4.0576
 Frc consts  --      2.1408                 1.3254                 4.8391
 IR Inten    --      0.9952                 0.3419                29.5940

                     10                     11                     12
                      A                      A                      A
 Frequencies --   1927.6872              3110.1907              3217.1890
 Red. masses --     11.6877                 1.0864                 1.0953
 Frc consts  --     25.5890                 6.1920                 6.6795
 IR Inten    --     46.5234                 0.6913                 7.3648

 - Thermochemistry -
 -------------------
 Temperature   298.150 Kelvin.  Pressure   1.00000 Atm.
 Atom     1 has atomic number  6 and mass  12.00000

 Molecular mass:    50.01565 amu.
 Principal axes and moments of inertia in atomic units:
                           1         2         3
     Eigenvalues --    40.37612 313.66157 353.70133
           X            0.99992  -0.01269   0.00005
           Y            0.01269   0.99988  -0.00940
           Z            0.00007   0.00940   0.99996
 This molecule is an asymmetric top.
 Rotational symmetry number  1.
 Rotational temperatures (Kelvin)      2.14517     0.27614     0.24488
 Rotational constants (GHZ):          44.69823     5.75378     5.10244
 Zero-point vibrational energy      91352.2 (Joules/Mol)
                                   21.83371 (Kcal/Mol)
 Warning -- explicit consideration of   3 degrees of freedom as
           vibrations may cause significant error
 Vibrational temperatures:    203.76   261.71   672.34  1079.46  1247.00
          (Kelvin)           1280.80  1474.77  1830.26  2046.99  2773.51
                             4474.87  4628.81

 Zero-point correction=                           0.034794 (Hartree/Particle)
 Thermal correction to Energy=                    0.039389
 Thermal correction to Enthalpy=                  0.040333
 Thermal correction to Gibbs Free Energy=         0.007367
 Sum of electronic and zero-point Energies=           -153.358131
 Sum of electronic and thermal Energies=              -153.353537
 Sum of electronic and thermal Enthalpies=            -153.352592
 Sum of electronic and thermal Free Energies=         -153.385558

                     E (Thermal)             CV                S
                      KCal/Mol        Cal/Mol-Kelvin    Cal/Mol-Kelvin
 Total                   24.717             13.484             69.382
 Electronic               0.000              0.000              2.183
 Translational            0.889              2.981             37.653
 Rotational               0.889              2.981             23.020
 Vibrational             22.939              7.522              6.526
 Vibration     1          0.615              1.912              2.782
 Vibration     2          0.630              1.864              2.309
 Vibration     3          0.825              1.323              0.745

 Optimization completed.
    -- Stationary point found.
 Normal termination of Gaussian 09 at Sun Jun 19 00:49:26 2016.
