 Gaussian 09, Revision E.01,
 Gaussian 09:  EM64L-G09RevE.01 30-Nov-2015

 ---------------------------------------------
 #p b3lyp/6-311++G(3df,2p) freq symmetry=Loose
 ---------------------------------------------

 ---------
 b3lyp opt
 ---------
 Symbolic Z-matrix:
 Charge =  0 Multiplicity = 1

                         Standard orientation:
 ---------------------------------------------------------------------
 Center     Atomic      Atomic             Coordinates (Angstroms)
 Number     Number       Type             X           Y           Z
 ---------------------------------------------------------------------
      1          6           0        0.000000   -1.743844    0.000000
      2          6           0        0.000000   -0.446782    0.000000
      3          6           0       -0.000000    0.839593   -0.000000
      4          6           0       -0.000000    2.117469   -0.000000
      5          1           0        0.000002   -2.299310    0.929935
      6          1           0        0.000002   -2.299310   -0.929935
 ---------------------------------------------------------------------

 SCF Done:  E(RB3LYP) =  -153.475996476     A.U. after   12 cycles

 The electronic state is 1-A'.
 Alpha  occ. eigenvalues --  -10.27935 -10.23033 -10.22625 -10.19387  -0.85390
 Alpha  occ. eigenvalues --   -0.77750  -0.67545  -0.53735  -0.50135  -0.39418
 Alpha  occ. eigenvalues --   -0.34837  -0.30264  -0.27437
 Alpha virt. eigenvalues --   -0.14443  -0.07610  -0.01616   0.01432   0.02895
 Alpha virt. eigenvalues --    0.04859   0.05640   0.06312   0.07212   0.08676
 Alpha virt. eigenvalues --    0.09660   0.10248   0.12259   0.12832   0.13251

 Mulliken charges:
               1
     1  C   -0.373884
     2  C    0.026041
     3  C    0.739208
     4  C   -0.783747
     5  H    0.196191
     6  H    0.196191
 Sum of Mulliken charges =  -0.00000

 Dipole moment (field-independent basis, Debye):
    X=              0.0000    Y=             -4.6210    Z=             -0.0000  Tot=              4.6210
 Quadrupole moment (field-independent basis, Debye-Ang):
   XX=            -25.4947   YY=            -27.5749   ZZ=            -21.7300
   XY=             -0.0000   XZ=             -0.0000   YZ=              0.0000

  Exact polarizability:  32.134   0.000  98.174   0.000  -0.000  32.976
 Approx polarizability:  44.130   0.000 211.721  -0.000   0.000  47.505

                      1                      2                      3
                     A"                     A'                     A"
 Frequencies --    160.6334               206.9483               427.2091
 Red. masses --      5.8002                 6.7538                 2.6925
 Frc consts  --      0.0882                 0.1704                 0.2895
 IR Inten    --      4.3693                 0.2919                 1.1538

                      4                      5                      6
                     A'                     A'                     A'
 Frequencies --    530.3962               794.9620               927.4657
 Red. masses --      7.8510                 1.3283                 5.1376
 Frc consts  --      1.3013                 0.4946                 2.6038
 IR Inten    --      0.3912                68.3473                 0.2653

                      7                      8                      9
                     A"                     A'                     A'
 Frequencies --    949.3100              1379.2103              1749.3226
 Red. masses --      1.7664                 1.1517                 9.6200
 Frc consts  --      0.9379                 1.2908                17.3446
 IR Inten    --      2.2931                17.5063                 0.9724

                     10                     11                     12
                     A'                     A'                     A"
 Frequencies --   2157.4496              3130.1959              3207.5462
 Red. masses --     11.6242                 1.0582                 1.1135
 Frc consts  --     31.8781                 6.1091                 6.7499
 IR Inten    --    868.5339                40.2534                10.9515

 - Thermochemistry -
 -------------------
 Temperature   298.150 Kelvin.  Pressure   1.00000 Atm.
 Atom     1 has atomic number  6 and mass  12.00000

 Molecular mass:    50.01565 amu.
 Principal axes and moments of inertia in atomic units:
                           1         2         3
     Eigenvalues --     6.22469 397.78291 404.00760
           X           -0.00000   0.00000   1.00000
           Y            1.00000   0.00000   0.00000
           Z            0.00000   1.00000   0.00000
 This molecule is an asymmetric top.
 Rotational symmetry number  1.
 Rotational temperatures (Kelvin)     13.91456     0.21774     0.21439
 Rotational constants (GHZ):         289.93273     4.53700     4.46710
 Zero-point vibrational energy      93432.2 (Joules/Mol)
                                   22.33084 (Kcal/Mol)
 Warning -- explicit consideration of   4 degrees of freedom as
           vibrations may cause significant error
 Vibrational temperatures:    231.12   297.75   614.66   763.12  1143.77
          (Kelvin)           1334.41  1365.84  1984.37  2516.88  3104.08
                             4503.65  4614.94

 Zero-point correction=                           0.035586 (Hartree/Particle)
 Thermal correction to Energy=                    0.040264
 Thermal correction to Enthalpy=                  0.041208
 Thermal correction to Gibbs Free Energy=         0.009980
 Sum of electronic and zero-point Energies=           -153.440410
 Sum of electronic and thermal Energies=              -153.435733
 Sum of electronic and thermal Enthalpies=            -153.434788
 Sum of electronic and thermal Free Energies=         -153.466017

                     E (Thermal)             CV                S
                      KCal/Mol        Cal/Mol-Kelvin    Cal/Mol-Kelvin
 Total                   25.266             13.986             65.726
 Electronic               0.000              0.000              0.000
 Translational            0.889              2.981             37.653
 Rotational               0.889              2.981             21.530
 Vibrational             23.488              8.024              6.543
 Vibration     1          0.622              1.891              2.542
 Vibration     2          0.641              1.830              2.070
 Vibration     3          0.789              1.411              0.868
 Vibration     4          0.885              1.183              0.586

 Optimization completed.
    -- Stationary point found.
 Normal termination of Gaussian 09 at Tue Jul 19 03:33:49 2016.
