 Gaussian 09, Revision E.01,
 Gaussian 09:  EM64L-G09RevE.01 30-Nov-2015

 ---------------------------------------------
 #p b3lyp/6-311++G(3df,2p) freq symmetry=Loose
 ---------------------------------------------

 ---------
 b3lyp opt
 ---------
 Symbolic Z-matrix:
 Charge =  2 Multiplicity = 1

                         Standard orientation:
 ---------------------------------------------------------------------
 Center     Atomic      Atomic             Coordinates (Angstroms)
 Number     Number       Type             X           Y           Z
 ---------------------------------------------------------------------
      1          6           0       -0.000000    0.000000    1.126553
      2          6           0        0.845338   -0.000000   -0.000153
      3          6           0        0.000000    0.000000   -1.126275
      4          6           0       -0.845338    0.000000   -0.000153
      5          1           0       -0.000000    0.000000    2.228169
      6          1           0        0.000000    0.000000   -2.227999
 ---------------------------------------------------------------------

 SCF Done:  E(RB3LYP) =  -152.515648190     A.U. after    9 cycles

 The electronic state is 1-A1.
 Alpha  occ. eigenvalues --  -10.87189 -10.87168 -10.85370 -10.85363  -1.57225
 Alpha  occ. eigenvalues --   -1.29253  -1.14241  -1.10640  -1.02319  -1.00935
 Alpha  occ. eigenvalues --   -0.98400  -0.84410
 Alpha virt. eigenvalues --   -0.71568  -0.64117  -0.60764  -0.48415  -0.38767
 Alpha virt. eigenvalues --   -0.37111  -0.34084  -0.33049  -0.29076  -0.28663
 Alpha virt. eigenvalues --   -0.27504  -0.24106  -0.22863  -0.22691  -0.22663

 Mulliken charges:
               1
     1  C   -0.159447
     2  C    0.768266
     3  C   -0.159255
     4  C    0.768266
     5  H    0.391158
     6  H    0.391013
 Sum of Mulliken charges =   2.00000

 Dipole moment (field-independent basis, Debye):
    X=             -0.0000    Y=              0.0000    Z=              0.0027  Tot=              0.0027
 Quadrupole moment (field-independent basis, Debye-Ang):
   XX=            -16.6394   YY=            -17.2210   ZZ=              2.5025
   XY=              0.0000   XZ=             -0.0000   YZ=             -0.0000

  Exact polarizability:  32.248   0.000  17.281   0.000  -0.000  35.466
 Approx polarizability:  92.728  -0.000  27.138  -0.000  -0.000  62.131

                      1                      2                      3
                     B2                     B1                     A1
 Frequencies --    391.6572               706.3850               761.8090
 Red. masses --      2.4191                 4.7334                 9.4337
 Frc consts  --      0.2186                 1.3916                 3.2257
 IR Inten    --     15.9590                65.5634                 0.0000

                      4                      5                      6
                     B2                     B2                     B1
 Frequencies --    881.2510               918.3905              1028.5377
 Red. masses --      1.5986                 1.3030                 1.2588
 Frc consts  --      0.7314                 0.6475                 0.7846
 IR Inten    --     15.3010                 0.0004                 0.0074

                      7                      8                      9
                     B1                     B1                     A1
 Frequencies --   1056.7838              1266.6619              1317.8965
 Red. masses --      1.2082                 8.1106                 6.0052
 Frc consts  --      0.7950                 7.6670                 6.1453
 IR Inten    --     33.7489                 0.0000                 0.0223

                     10                     11                     12
                     A1                     A1                     A1
 Frequencies --   1433.0702              3063.1906              3074.9590
 Red. masses --      6.7063                 1.1238                 1.1282
 Frc consts  --      8.1146                 6.2129                 6.2850
 IR Inten    --    441.0927               467.2594                 0.7380

 - Thermochemistry -
 -------------------
 Temperature   298.150 Kelvin.  Pressure   1.00000 Atm.
 Atom     1 has atomic number  6 and mass  12.00000

 Molecular mass:    50.01565 amu.
 Principal axes and moments of inertia in atomic units:
                           1         2         3
     Eigenvalues --    61.24480 144.47748 205.72228
           X            0.00000   1.00000  -0.00000
           Y            0.00000   0.00000   1.00000
           Z            1.00000   0.00000  -0.00000
 This molecule is an asymmetric top.
 Rotational symmetry number  2.
 Rotational temperatures (Kelvin)      1.41422     0.59950     0.42102
 Rotational constants (GHZ):          29.46766    12.49151     8.77271
 Zero-point vibrational energy      95106.7 (Joules/Mol)
                                   22.73104 (Kcal/Mol)
 Warning -- explicit consideration of   1 degrees of freedom as
           vibrations may cause significant error
 Vibrational temperatures:    563.51  1016.33  1096.07  1267.92  1321.36
          (Kelvin)           1479.83  1520.47  1822.44  1896.16  2061.87
                             4407.24  4424.17

 Zero-point correction=                           0.036224 (Hartree/Particle)
 Thermal correction to Energy=                    0.039775
 Thermal correction to Enthalpy=                  0.040719
 Thermal correction to Gibbs Free Energy=         0.012000
 Sum of electronic and zero-point Energies=           -152.479424
 Sum of electronic and thermal Energies=              -152.475873
 Sum of electronic and thermal Enthalpies=            -152.474929
 Sum of electronic and thermal Free Energies=         -152.503648

                     E (Thermal)             CV                S
                      KCal/Mol        Cal/Mol-Kelvin    Cal/Mol-Kelvin
 Total                   24.959             11.050             60.444
 Electronic               0.000              0.000              0.000
 Translational            0.889              2.981             37.653
 Rotational               0.889              2.981             20.748
 Vibrational             23.182              5.088              2.043
 Vibration     1          0.759              1.488              0.994

 Optimization completed.
    -- Stationary point found.
 Normal termination of Gaussian 09 at Tue Jul 19 03:48:48 2016.
