 Gaussian 09, Revision E.01,
 Gaussian 09:  EM64L-G09RevE.01 30-Nov-2015

 ---------------------------------------------
 #p b3lyp/6-311++G(3df,2p) freq symmetry=Loose
 ---------------------------------------------

 ---------
 b3lyp opt
 ---------
 Symbolic Z-matrix:
 Charge =  0 Multiplicity = 3

                         Standard orientation:
 ---------------------------------------------------------------------
 Center     Atomic      Atomic             Coordinates (Angstroms)
 Number     Number       Type             X           Y           Z
 ---------------------------------------------------------------------
      1          6           0        1.760141    0.067445    0.001344
      2          6           0        0.439755   -0.174588   -0.000773
      3          6           0       -0.828850   -0.014056   -0.004826
      4          6           0       -2.144813    0.063606    0.003587
      5          1           0        2.153565    1.082286   -0.000099
      6          1           0        2.489045   -0.736729    0.004103
 ---------------------------------------------------------------------

 SCF Done:  E(UB3LYP) =  -153.420864738     A.U. after   18 cycles

 The electronic state is 3-A.
 Alpha  occ. eigenvalues --  -10.26529 -10.24066 -10.22633 -10.22036  -0.85519
 Alpha  occ. eigenvalues --   -0.78590  -0.68145  -0.54495  -0.50788  -0.40131
 Alpha  occ. eigenvalues --   -0.36219  -0.30902  -0.30101  -0.22030
 Alpha virt. eigenvalues --   -0.09983  -0.02012   0.01172   0.02496   0.04432
 Alpha virt. eigenvalues --    0.04609   0.06517   0.06551   0.08229   0.08662
 Alpha virt. eigenvalues --    0.10123   0.11495   0.12057   0.12156   0.12986

  Beta  occ. eigenvalues --  -10.25795 -10.23400 -10.21849 -10.21362  -0.83196
  Beta  occ. eigenvalues --   -0.75570  -0.65459  -0.53136  -0.49195  -0.36623
  Beta  occ. eigenvalues --   -0.32901  -0.28514
  Beta virt. eigenvalues --   -0.19781  -0.10567  -0.05861  -0.01726   0.01450
  Beta virt. eigenvalues --    0.02724   0.05139   0.05788   0.06752   0.07271
  Beta virt. eigenvalues --    0.08400   0.10116   0.10595   0.12333   0.12933

 Mulliken charges and spin densities:
               1          2
     1  C   -0.402731   0.469243
     2  C    0.066702   0.497116
     3  C    0.633214   0.225727
     4  C   -0.683231   0.768719
     5  H    0.195471   0.031734
     6  H    0.190575   0.007461
 Sum of Mulliken charges =  -0.00000   2.00000

 Dipole moment (field-independent basis, Debye):
    X=              5.1420    Y=              0.1488    Z=             -0.0193  Tot=              5.1442
 Quadrupole moment (field-independent basis, Debye-Ang):
   XX=            -27.8207   YY=            -23.7763   ZZ=            -23.7416
   XY=              0.6252   XZ=              0.0723   YZ=             -0.0034

  Exact polarizability:  99.864  -0.552  35.542   0.548  -0.018  34.605
 Approx polarizability: 181.710  -3.810  48.131   0.214  -0.012  45.469

                      1                      2                      3
                      A                      A                      A
 Frequencies --     30.6932                91.6112               358.3585
 Red. masses --      6.5594                 3.6960                11.4488
 Frc consts  --      0.0036                 0.0183                 0.8663
 IR Inten    --     30.8192                 2.9202                 6.5907

                      4                      5                      6
                      A                      A                      A
 Frequencies --    387.2694               903.9331               927.9430
 Red. masses --      3.0359                 5.5713                 1.3605
 Frc consts  --      0.2683                 2.6821                 0.6902
 IR Inten    --     21.3449                 2.1391                27.6295

                      7                      8                      9
                      A                      A                      A
 Frequencies --   1024.2716              1415.1179              1505.6923
 Red. masses --      1.3482                 2.0910                 1.9403
 Frc consts  --      0.8334                 2.4671                 2.5917
 IR Inten    --      1.8335                77.0921                41.2052

                     10                     11                     12
                      A                      A                      A
 Frequencies --   1858.4373              3069.2960              3154.9128
 Red. masses --     11.7036                 1.0534                 1.1129
 Frc consts  --     23.8159                 5.8469                 6.5268
 IR Inten    --     10.8330                 9.4554                 0.7047

 - Thermochemistry -
 -------------------
 Temperature   298.150 Kelvin.  Pressure   1.00000 Atm.
 Atom     1 has atomic number  6 and mass  12.00000

 Molecular mass:    50.01565 amu.
 Principal axes and moments of inertia in atomic units:
                           1         2         3
     Eigenvalues --     7.83655 405.10530 412.93846
           X            0.99999   0.00472   0.00008
           Y           -0.00472   0.99999  -0.00138
           Z           -0.00009   0.00138   1.00000
 This molecule is an asymmetric top.
 Rotational symmetry number  1.
 Rotational temperatures (Kelvin)     11.05255     0.21381     0.20975
 Rotational constants (GHZ):         230.29807     4.45499     4.37048
 Zero-point vibrational energy      88090.2 (Joules/Mol)
                                   21.05407 (Kcal/Mol)
 Warning -- explicit consideration of   4 degrees of freedom as
           vibrations may cause significant error
 Vibrational temperatures:     44.16   131.81   515.60   557.19  1300.56
          (Kelvin)           1335.10  1473.70  2036.04  2166.35  2673.87
                             4416.03  4539.21

 Zero-point correction=                           0.033552 (Hartree/Particle)
 Thermal correction to Energy=                    0.038833
 Thermal correction to Enthalpy=                  0.039778
 Thermal correction to Gibbs Free Energy=         0.004826
 Sum of electronic and zero-point Energies=           -153.387313
 Sum of electronic and thermal Energies=              -153.382031
 Sum of electronic and thermal Enthalpies=            -153.381087
 Sum of electronic and thermal Free Energies=         -153.416039

                     E (Thermal)             CV                S
                      KCal/Mol        Cal/Mol-Kelvin    Cal/Mol-Kelvin
 Total                   24.368             14.459             73.562
 Electronic               0.000              0.000              2.183
 Translational            0.889              2.981             37.653
 Rotational               0.889              2.981             21.799
 Vibrational             22.591              8.498             11.927
 Vibration     1          0.594              1.984              5.784
 Vibration     2          0.602              1.955              3.625
 Vibration     3          0.733              1.558              1.129
 Vibration     4          0.756              1.497              1.011

 Normal termination of Gaussian 09 at Sun Jun 19 00:49:08 2016.
