 Gaussian 09, Revision E.01,
 Gaussian 09:  EM64L-G09RevE.01 30-Nov-2015

 ---------------------------------------------
 #p b3lyp/6-311++G(3df,2p) freq symmetry=Loose
 ---------------------------------------------

 ---------
 b3lyp opt
 ---------
 Symbolic Z-matrix:
 Charge =  2 Multiplicity = 3

                         Standard orientation:
 ---------------------------------------------------------------------
 Center     Atomic      Atomic             Coordinates (Angstroms)
 Number     Number       Type             X           Y           Z
 ---------------------------------------------------------------------
      1          6           0       -0.000000    0.568227    0.000000
      2          6           0       -0.000020   -0.476858    1.038620
      3          6           0        0.000000   -1.449589   -0.000000
      4          6           0       -0.000020   -0.476858   -1.038620
      5          6           0       -0.000000    1.993650    0.000000
      6          1           0       -0.000040   -0.475714    2.133038
      7          1           0       -0.000040   -0.475714   -2.133038
 ---------------------------------------------------------------------

 SCF Done:  E(UB3LYP) =  -190.532063055     A.U. after   14 cycles

 The electronic state is 3-A'.
 Alpha  occ. eigenvalues --  -10.81683 -10.79679 -10.79678 -10.78450 -10.76749
 Alpha  occ. eigenvalues --   -1.46626  -1.27362  -1.19434  -1.08400  -1.04282
 Alpha  occ. eigenvalues --   -0.96852  -0.92945  -0.91758  -0.83228  -0.78291
 Alpha  occ. eigenvalues --   -0.77408
 Alpha virt. eigenvalues --   -0.64611  -0.62189  -0.57402  -0.42844  -0.35436
 Alpha virt. eigenvalues --   -0.33494  -0.32587  -0.30775  -0.27324  -0.27134
 Alpha virt. eigenvalues --   -0.25379  -0.23821  -0.21599  -0.21510  -0.21312

  Beta  occ. eigenvalues --  -10.80907 -10.79599 -10.79596 -10.76208 -10.76156
  Beta  occ. eigenvalues --   -1.44903  -1.23966  -1.18927  -1.04505  -1.03994
  Beta  occ. eigenvalues --   -0.95553  -0.91230  -0.89768  -0.78912
  Beta virt. eigenvalues --   -0.66841  -0.64527  -0.61285  -0.60363  -0.50750
  Beta virt. eigenvalues --   -0.39298  -0.34404  -0.32875  -0.32446  -0.30163
  Beta virt. eigenvalues --   -0.27081  -0.26790  -0.24430  -0.22445  -0.21561

 Mulliken charges and spin densities:
               1          2
     1  C    0.764097   0.317689
     2  C   -0.015350   0.022269
     3  C    0.414499   1.234123
     4  C   -0.015350   0.022269
     5  C    0.103894   0.398179
     6  H    0.374105   0.002735
     7  H    0.374105   0.002735
 Sum of Mulliken charges =   2.00000   2.00000

 Dipole moment (field-independent basis, Debye):
    X=             -0.0001    Y=             -0.7424    Z=             -0.0000  Tot=              0.7424
 Quadrupole moment (field-independent basis, Debye-Ang):
   XX=            -23.0527   YY=            -12.8082   ZZ=             -7.3769
   XY=              0.0001   XZ=              0.0000   YZ=              0.0000

  Exact polarizability:  26.294   0.000  59.756   0.000   0.000  42.354
 Approx polarizability:  38.418  -0.000 117.352  -0.000   0.000  74.393

                      1                      2                      3
                     A'                     A"                     A'
 Frequencies --     57.2549               253.3613               280.7462
 Red. masses --      3.3835                 6.3146                 3.5545
 Frc consts  --      0.0065                 0.2388                 0.1651
 IR Inten    --     19.8705                10.3590                 0.3178

                      4                      5                      6
                     A'                     A'                     A'
 Frequencies --    673.4405               897.4182               923.4503
 Red. masses --      7.3401                 2.9953                 1.8277
 Frc consts  --      1.9613                 1.4213                 0.9183
 IR Inten    --     16.2256                 0.0451                21.9053

                      7                      8                      9
                     A"                     A"                     A'
 Frequencies --    961.2398              1049.2725              1108.5941
 Red. masses --      7.2094                 1.3254                 2.3068
 Frc consts  --      3.9247                 0.8598                 1.6703
 IR Inten    --      4.4449                 0.0000                51.3629

                     10                     11                     12
                     A"                     A"                     A'
 Frequencies --   1149.4187              1231.8050              1302.7621
 Red. masses --      1.4097                 4.5687                 2.5934
 Frc consts  --      1.0973                 4.0844                 2.5933
 IR Inten    --     32.5557               110.1751                44.3391

                     13                     14                     15
                     A'                     A"                     A'
 Frequencies --   1391.0162              3117.6766              3118.2555
 Red. masses --     10.2061                 1.1049                 1.1098
 Frc consts  --     11.6353                 6.3276                 6.3578
 IR Inten    --    156.9651               289.8624                 2.2231

 - Thermochemistry -
 -------------------
 Temperature   298.150 Kelvin.  Pressure   1.00000 Atm.
 Atom     1 has atomic number  6 and mass  12.00000

 Molecular mass:    62.01565 amu.
 Principal axes and moments of inertia in atomic units:
                           1         2         3
     Eigenvalues --   125.20316 295.27412 420.47728
           X            0.00000   0.00000   1.00000
           Y            1.00000   0.00000  -0.00000
           Z            0.00000   1.00000  -0.00000
 This molecule is an asymmetric top.
 Rotational symmetry number  1.
 Rotational temperatures (Kelvin)      0.69179     0.29333     0.20599
 Rotational constants (GHZ):          14.41450     6.11209     4.29213
 Zero-point vibrational energy     104767.2 (Joules/Mol)
                                   25.03997 (Kcal/Mol)
 Warning -- explicit consideration of   3 degrees of freedom as
           vibrations may cause significant error
 Vibrational temperatures:     82.38   364.53   403.93   968.93  1291.18
          (Kelvin)           1328.64  1383.01  1509.67  1595.02  1653.76
                             1772.29  1874.38  2001.36  4485.64  4486.47

 Zero-point correction=                           0.039904 (Hartree/Particle)
 Thermal correction to Energy=                    0.044862
 Thermal correction to Enthalpy=                  0.045806
 Thermal correction to Gibbs Free Energy=         0.010881
 Sum of electronic and zero-point Energies=           -190.492159
 Sum of electronic and thermal Energies=              -190.487201
 Sum of electronic and thermal Enthalpies=            -190.486257
 Sum of electronic and thermal Free Energies=         -190.521182

                     E (Thermal)             CV                S
                      KCal/Mol        Cal/Mol-Kelvin    Cal/Mol-Kelvin
 Total                   28.151             14.958             73.506
 Electronic               0.000              0.000              2.183
 Translational            0.889              2.981             38.294
 Rotational               0.889              2.981             24.256
 Vibrational             26.374              8.996              8.772
 Vibration     1          0.596              1.975              4.550
 Vibration     2          0.665              1.757              1.707
 Vibration     3          0.680              1.709              1.529

 Optimization completed.
    -- Stationary point found.
 Normal termination of Gaussian 09 at Tue Jul 19 08:10:27 2016.
