 Gaussian 09, Revision E.01,
 Gaussian 09:  EM64L-G09RevE.01 30-Nov-2015

 ---------------------------------------------
 #p b3lyp/6-311++G(3df,2p) freq symmetry=Loose
 ---------------------------------------------

 ---------
 b3lyp opt
 ---------
 Symbolic Z-matrix:
 Charge =  1 Multiplicity = 2

                         Standard orientation:
 ---------------------------------------------------------------------
 Center     Atomic      Atomic             Coordinates (Angstroms)
 Number     Number       Type             X           Y           Z
 ---------------------------------------------------------------------
      1          6           0       -0.753761   -0.061830    0.026628
      2          6           0        0.470460    0.818719    0.035431
      3          6           0        1.450548   -0.127009   -0.208676
      4          6           0        0.386772   -0.892921    0.238807
      5          6           0       -2.062548   -0.007576   -0.133788
      6          1           0        0.525253    1.803522    0.501691
      7          1           0        2.525919   -0.179816   -0.252101
 ---------------------------------------------------------------------

 SCF Done:  E(UB3LYP) =  -191.138550321     A.U. after   23 cycles

 The electronic state is 2-A.
 Alpha  occ. eigenvalues --  -10.56501 -10.54751 -10.50010 -10.49200 -10.46371
 Alpha  occ. eigenvalues --   -1.24502  -1.02038  -0.91144  -0.89562  -0.76497
 Alpha  occ. eigenvalues --   -0.73807  -0.70434  -0.67352  -0.54361  -0.53394
 Alpha  occ. eigenvalues --   -0.51647
 Alpha virt. eigenvalues --   -0.36621  -0.31716  -0.31182  -0.18006  -0.15098
 Alpha virt. eigenvalues --   -0.13862  -0.12984  -0.11429  -0.10618  -0.08480
 Alpha virt. eigenvalues --   -0.07664  -0.05878  -0.05502  -0.05117  -0.03848

  Beta  occ. eigenvalues --  -10.55071 -10.54541 -10.49957 -10.49083 -10.46288
  Beta  occ. eigenvalues --   -1.23534  -1.01547  -0.89584  -0.89060  -0.75028
  Beta  occ. eigenvalues --   -0.71743  -0.69325  -0.66480  -0.53015  -0.51573
  Beta virt. eigenvalues --   -0.40619  -0.35115  -0.30608  -0.29798  -0.17142
  Beta virt. eigenvalues --   -0.14705  -0.13788  -0.12380  -0.11212  -0.10464
  Beta virt. eigenvalues --   -0.08339  -0.07435  -0.05514  -0.05414  -0.04861

 Mulliken charges and spin densities:
               1          2
     1  C    0.545560   0.016119
     2  C    0.129223   0.117807
     3  C   -0.255947  -0.016716
     4  C    0.389753   0.727298
     5  C   -0.368004   0.118417
     6  H    0.268398   0.034415
     7  H    0.291017   0.002660
 Sum of Mulliken charges =   1.00000   1.00000

 Dipole moment (field-independent basis, Debye):
    X=              3.6971    Y=              1.0435    Z=              0.4060  Tot=              3.8629
 Quadrupole moment (field-independent basis, Debye-Ang):
   XX=            -19.0716   YY=            -19.9927   ZZ=            -26.5024
   XY=              0.4340   XZ=             -0.6443   YZ=              0.7899

  Exact polarizability:  76.049  -1.733  42.037   0.816  -0.502  29.931
 Approx polarizability: 140.935  -4.595  78.438  -2.518  -2.745  45.278

                      1                      2                      3
                      A                      A                      A
 Frequencies --    227.6585               247.2664               524.5633
 Red. masses --      5.5116                 7.4475                 4.1040
 Frc consts  --      0.1683                 0.2683                 0.6653
 IR Inten    --      1.5203                 5.6747                 6.2640

                      4                      5                      6
                      A                      A                      A
 Frequencies --    654.6803               694.4971               815.1510
 Red. masses --      7.7736                 4.3984                 1.5877
 Frc consts  --      1.9630                 1.2499                 0.6216
 IR Inten    --      1.3802                 6.1119                47.5426

                      7                      8                      9
                      A                      A                      A
 Frequencies --    887.9190               951.9794              1026.0735
 Red. masses --      1.6917                 1.7698                 2.1263
 Frc consts  --      0.7858                 0.9450                 1.3190
 IR Inten    --      8.0853                 1.8386                 8.4577

                     10                     11                     12
                      A                      A                      A
 Frequencies --   1108.9994              1196.6282              1462.7599
 Red. masses --      1.6821                 2.0572                 6.1176
 Frc consts  --      1.2189                 1.7356                 7.7122
 IR Inten    --     24.3926                21.3156                 0.0659

                     13                     14                     15
                      A                      A                      A
 Frequencies --   1738.5056              3112.8768              3270.6960
 Red. masses --     11.6101                 1.0947                 1.1116
 Frc consts  --     20.6747                 6.2500                 7.0061
 IR Inten    --    242.3224                77.9396               109.6819

 - Thermochemistry -
 -------------------
 Temperature   298.150 Kelvin.  Pressure   1.00000 Atm.
 Atom     1 has atomic number  6 and mass  12.00000

 Molecular mass:    62.01565 amu.
 Principal axes and moments of inertia in atomic units:
                           1         2         3
     Eigenvalues --    81.69327 342.27944 411.72838
           X            0.99996   0.00801  -0.00357
           Y           -0.00783   0.99878   0.04875
           Z            0.00396  -0.04872   0.99880
 This molecule is an asymmetric top.
 Rotational symmetry number  1.
 Rotational temperatures (Kelvin)      1.06023     0.25305     0.21037
 Rotational constants (GHZ):          22.09168     5.27271     4.38333
 Zero-point vibrational energy     107186.9 (Joules/Mol)
                                   25.61829 (Kcal/Mol)
 Warning -- explicit consideration of   3 degrees of freedom as
           vibrations may cause significant error
 Vibrational temperatures:    327.55   355.76   754.73   941.94   999.23
          (Kelvin)           1172.82  1277.52  1369.68  1476.29  1595.60
                             1721.68  2104.58  2501.32  4478.73  4705.80

 Zero-point correction=                           0.040825 (Hartree/Particle)
 Thermal correction to Energy=                    0.045377
 Thermal correction to Enthalpy=                  0.046322
 Thermal correction to Gibbs Free Energy=         0.013436
 Sum of electronic and zero-point Energies=           -191.097725
 Sum of electronic and thermal Energies=              -191.093173
 Sum of electronic and thermal Enthalpies=            -191.092229
 Sum of electronic and thermal Free Energies=         -191.125114

                     E (Thermal)             CV                S
                      KCal/Mol        Cal/Mol-Kelvin    Cal/Mol-Kelvin
 Total                   28.475             15.004             69.213
 Electronic               0.000              0.000              1.377
 Translational            0.889              2.981             38.294
 Rotational               0.889              2.981             23.958
 Vibrational             26.697              9.042              5.584
 Vibration     1          0.651              1.799              1.897
 Vibration     2          0.661              1.767              1.750
 Vibration     3          0.880              1.196              0.599

 Optimization completed.
    -- Stationary point found.
 Normal termination of Gaussian 09 at Sun Jun 19 02:35:42 2016.
