 Gaussian 09, Revision E.01,
 Gaussian 09:  EM64L-G09RevE.01 30-Nov-2015

 ------------------------------------------------------
 #p b3lyp/6-311++G(3df,2p) freq IOp(2/17=3) IOp(2/18=3)
 ------------------------------------------------------

 ---------
 b3lyp opt
 ---------
 Symbolic Z-matrix:
 Charge =  1 Multiplicity = 2

                         Standard orientation:
 ---------------------------------------------------------------------
 Center     Atomic      Atomic             Coordinates (Angstroms)
 Number     Number       Type             X           Y           Z
 ---------------------------------------------------------------------
      1          6           0       -1.402575    0.526185    0.000000
      2          6           0        0.000000    0.330542    0.000000
      3          6           0        1.094834   -0.547179    0.000000
      4          6           0        0.927007   -1.859647    0.000000
      5          6           0       -0.578065    1.571223    0.000000
      6          1           0        2.124395   -0.173471    0.000000
      7          1           0       -2.371604    0.046728    0.000000
 ---------------------------------------------------------------------

 SCF Done:  E(UB3LYP) =  -191.165490409     A.U. after   20 cycles

 The electronic state is 2-A'.
 Alpha  occ. eigenvalues --  -10.53767 -10.52369 -10.51325 -10.50173 -10.43163
 Alpha  occ. eigenvalues --   -1.22727  -1.05975  -0.88013  -0.84444  -0.77241
 Alpha  occ. eigenvalues --   -0.71090  -0.67797  -0.66728  -0.55558  -0.54370
 Alpha  occ. eigenvalues --   -0.52749
 Alpha virt. eigenvalues --   -0.34217  -0.32490  -0.28323  -0.17407  -0.15213
 Alpha virt. eigenvalues --   -0.14449  -0.13071  -0.11196  -0.10532  -0.09416
 Alpha virt. eigenvalues --   -0.06950  -0.06220  -0.06178  -0.05127  -0.03916

  Beta  occ. eigenvalues --  -10.53493 -10.51154 -10.50805 -10.50180 -10.43164
  Beta  occ. eigenvalues --   -1.21619  -1.05780  -0.87499  -0.83510  -0.75672
  Beta  occ. eigenvalues --   -0.67852  -0.67244  -0.65268  -0.54218  -0.52999
  Beta virt. eigenvalues --   -0.40284  -0.34125  -0.32432  -0.26264  -0.17230
  Beta virt. eigenvalues --   -0.14910  -0.14166  -0.12562  -0.10987  -0.10514
  Beta virt. eigenvalues --   -0.09132  -0.06221  -0.06215  -0.05501  -0.04864

 Mulliken charges and spin densities:
               1          2
     1  C    0.264026   0.022241
     2  C    0.333825   0.113463
     3  C    0.232351  -0.002336
     4  C   -0.416891   0.010817
     5  C    0.044333   0.836130
     6  H    0.224558   0.016301
     7  H    0.317799   0.003384
 Sum of Mulliken charges =   1.00000   1.00000

 Dipole moment (field-independent basis, Debye):
    X=             -1.1534    Y=              1.4637    Z=              0.0000  Tot=              1.8635
 Quadrupole moment (field-independent basis, Debye-Ang):
   XX=            -11.8323   YY=            -24.7333   ZZ=            -26.5511
   XY=             -2.3752   XZ=              0.0000   YZ=              0.0000

  Exact polarizability:  51.476 -12.417  60.083   0.000   0.001  28.843
 Approx polarizability:  81.329 -18.680 109.292  -0.000  -0.000  43.096

                      1                      2                      3
                     A"                     A'                     A'
 Frequencies --    137.4676               150.4430               402.4192
 Red. masses --      4.8952                 7.8311                 4.2328
 Frc consts  --      0.0545                 0.1044                 0.4039
 IR Inten    --     15.2912                16.8879                 5.7098

                      4                      5                      6
                     A"                     A"                     A'
 Frequencies --    438.7371               706.5562               812.9619
 Red. masses --      2.6188                 1.7623                 4.2424
 Frc consts  --      0.2970                 0.5183                 1.6520
 IR Inten    --     14.8632                20.4163                 0.2492

                      7                      8                      9
                     A"                     A'                     A'
 Frequencies --    896.5439               955.8507              1017.4192
 Red. masses --      1.4187                 1.4387                 1.3180
 Frc consts  --      0.6719                 0.7745                 0.8039
 IR Inten    --     31.3878                 8.5635                28.9924

                     10                     11                     12
                     A'                     A'                     A'
 Frequencies --   1164.1628              1425.1300              1626.1828
 Red. masses --      4.7239                 8.5333                 8.2336
 Frc consts  --      3.7721                10.2112                12.8285
 IR Inten    --     59.9819               177.7696               209.0553

                     13                     14                     15
                     A'                     A'                     A'
 Frequencies --   1760.9282              3056.7622              3240.6966
 Red. masses --      9.2382                 1.0845                 1.1193
 Frc consts  --     16.8780                 5.9702                 6.9259
 IR Inten    --    276.9640               103.9588                92.8188

 - Thermochemistry -
 -------------------
 Temperature   298.150 Kelvin.  Pressure   1.00000 Atm.
 Atom     1 has atomic number  6 and mass  12.00000

 Molecular mass:    62.01565 amu.
 Principal axes and moments of inertia in atomic units:
                           1         2         3
     Eigenvalues --    78.95125 427.82378 506.77504
           X           -0.64323   0.76568   0.00000
           Y            0.76568   0.64323   0.00000
           Z           -0.00000   0.00000   1.00000
 This molecule is an asymmetric top.
 Rotational symmetry number  1.
 Rotational temperatures (Kelvin)      1.09705     0.20245     0.17091
 Rotational constants (GHZ):          22.85893     4.21842     3.56123
 Zero-point vibrational energy     106421.4 (Joules/Mol)
                                   25.43531 (Kcal/Mol)
 Warning -- explicit consideration of   4 degrees of freedom as
           vibrations may cause significant error
 Vibrational temperatures:    197.78   216.45   578.99   631.24  1016.58
          (Kelvin)           1169.67  1289.93  1375.25  1463.84  1674.97
                             2050.44  2339.71  2533.58  4397.99  4662.63

 Zero-point correction=                           0.040534 (Hartree/Particle)
 Thermal correction to Energy=                    0.045603
 Thermal correction to Enthalpy=                  0.046547
 Thermal correction to Gibbs Free Energy=         0.012231
 Sum of electronic and zero-point Energies=           -191.124957
 Sum of electronic and thermal Energies=              -191.119887
 Sum of electronic and thermal Enthalpies=            -191.118943
 Sum of electronic and thermal Free Energies=         -191.153259

                     E (Thermal)             CV                S
                      KCal/Mol        Cal/Mol-Kelvin    Cal/Mol-Kelvin
 Total                   28.616             15.772             72.224
 Electronic               0.000              0.000              1.377
 Translational            0.889              2.981             38.294
 Rotational               0.889              2.981             24.352
 Vibrational             26.839              9.810              8.201
 Vibration     1          0.614              1.916              2.839
 Vibration     2          0.618              1.902              2.667
 Vibration     3          0.768              1.465              0.954
 Vibration     4          0.799              1.386              0.831

 Optimization completed.
    -- Stationary point found.
 Normal termination of Gaussian 09 at Thu Jan 31 04:44:15 2019.
