 Gaussian 09, Revision E.01,
 Gaussian 09:  EM64L-G09RevE.01 30-Nov-2015

 ---------------------------------------------
 #p b3lyp/6-311++G(3df,2p) freq symmetry=Loose
 ---------------------------------------------

 ---------
 b3lyp opt
 ---------
 Symbolic Z-matrix:
 Charge =  0 Multiplicity = 3

                         Standard orientation:
 ---------------------------------------------------------------------
 Center     Atomic      Atomic             Coordinates (Angstroms)
 Number     Number       Type             X           Y           Z
 ---------------------------------------------------------------------
      1          6           0        2.075342   -1.026241   -0.000000
      2          6           0        1.037976   -0.337170   -0.000000
      3          6           0        0.000000    0.429645    0.000000
      4          6           0       -1.273591    0.965429    0.000000
      5          6           0       -2.078092   -0.098413   -0.000000
      6          1           0        2.954398   -1.622265   -0.000000
      7          1           0       -1.524213    2.022774    0.000000
 ---------------------------------------------------------------------

 SCF Done:  E(UB3LYP) =  -191.489784432     A.U. after   18 cycles

 The electronic state is 3-A".
 Alpha  occ. eigenvalues --  -10.25060 -10.24821 -10.22726 -10.21801 -10.21760
 Alpha  occ. eigenvalues --   -0.87194  -0.80685  -0.71243  -0.59444  -0.55902
 Alpha  occ. eigenvalues --   -0.52884  -0.40743  -0.37743  -0.32894  -0.31801
 Alpha  occ. eigenvalues --   -0.24873  -0.21557
 Alpha virt. eigenvalues --   -0.10577  -0.02859  -0.00508   0.00215   0.02825
 Alpha virt. eigenvalues --    0.04282   0.05046   0.06030   0.06531   0.07494
 Alpha virt. eigenvalues --    0.08730   0.09264   0.10286   0.10383   0.10834

  Beta  occ. eigenvalues --  -10.23981 -10.23520 -10.22316 -10.22100 -10.21291
  Beta  occ. eigenvalues --   -0.85367  -0.79347  -0.67870  -0.57462  -0.54696
  Beta  occ. eigenvalues --   -0.51885  -0.37870  -0.34729  -0.30488  -0.30284
  Beta virt. eigenvalues --   -0.14439  -0.10773  -0.06885  -0.00805  -0.00369
  Beta virt. eigenvalues --    0.00339   0.03117   0.04448   0.05185   0.06545
  Beta virt. eigenvalues --    0.07115   0.08302   0.09413   0.10239   0.10674

 Mulliken charges and spin densities:
               1          2
     1  C    0.162386   0.927043
     2  C   -0.170317  -0.291053
     3  C    0.150838   0.919881
     4  C   -0.087121  -0.151946
     5  C   -0.564529   0.558649
     6  H    0.326789  -0.027951
     7  H    0.181955   0.065377
 Sum of Mulliken charges =  -0.00000   2.00000

 Dipole moment (field-independent basis, Debye):
    X=              2.1033    Y=              1.3365    Z=             -0.0000  Tot=              2.4920
 Quadrupole moment (field-independent basis, Debye-Ang):
   XX=            -27.8163   YY=            -25.4062   ZZ=            -31.1588
   XY=             -7.8596   XZ=             -0.0000   YZ=              0.0000

  Exact polarizability: 114.748 -23.629  56.257   0.000   0.000  37.566
 Approx polarizability: 220.030 -46.846  92.092  -0.000   0.000  52.196

                      1                      2                      3
                     A'                     A"                     A'
 Frequencies --    124.4651               168.9506               233.8827
 Red. masses --      6.3480                 4.0400                 7.8308
 Frc consts  --      0.0579                 0.0679                 0.2524
 IR Inten    --      3.8264                10.5421                18.6761

                      4                      5                      6
                     A"                     A'                     A"
 Frequencies --    261.0558               415.7634               416.9910
 Red. masses --      1.3776                 6.0672                 4.0694
 Frc consts  --      0.0553                 0.6179                 0.4169
 IR Inten    --     56.8659                 0.2770                 3.9189

                      7                      8                      9
                     A'                     A"                     A'
 Frequencies --    490.3156               681.4148               839.1051
 Red. masses --      1.2958                 1.4458                 5.1192
 Frc consts  --      0.1835                 0.3955                 2.1237
 IR Inten    --     34.7044                19.1238                 2.4879

                     10                     11                     12
                     A'                     A'                     A'
 Frequencies --   1081.4686              1376.8830              1576.3095
 Red. masses --      1.2288                 8.4374                 7.5245
 Frc consts  --      0.8467                 9.4244                11.0157
 IR Inten    --     11.6180                 5.6595                 0.7976

                     13                     14                     15
                     A'                     A'                     A'
 Frequencies --   1827.1250              3111.0329              3441.1152
 Red. masses --      8.8470                 1.0921                 1.1212
 Frc consts  --     17.4013                 6.2275                 7.8221
 IR Inten    --     17.9612                 7.7876               123.1369

 - Thermochemistry -
 -------------------
 Temperature   298.150 Kelvin.  Pressure   1.00000 Atm.
 Atom     1 has atomic number  6 and mass  12.00000

 Molecular mass:    62.01565 amu.
 Principal axes and moments of inertia in atomic units:
                           1         2         3
     Eigenvalues --    54.65716 592.76488 647.42204
           X            0.93488   0.35496   0.00000
           Y           -0.35496   0.93488   0.00000
           Z            0.00000  -0.00000   1.00000
 This molecule is an asymmetric top.
 Rotational symmetry number  1.
 Rotational temperatures (Kelvin)      1.58467     0.14612     0.13378
 Rotational constants (GHZ):          33.01930     3.04462     2.78758
 Zero-point vibrational energy      95975.7 (Joules/Mol)
                                   22.93873 (Kcal/Mol)
 Warning -- explicit consideration of   7 degrees of freedom as
           vibrations may cause significant error
 Vibrational temperatures:    179.08   243.08   336.50   375.60   598.19
          (Kelvin)            599.96   705.45   980.40  1207.28  1555.99
                             1981.03  2267.95  2628.82  4476.08  4950.99

 Zero-point correction=                           0.036555 (Hartree/Particle)
 Thermal correction to Energy=                    0.042715
 Thermal correction to Enthalpy=                  0.043659
 Thermal correction to Gibbs Free Energy=         0.007023
 Sum of electronic and zero-point Energies=           -191.453229
 Sum of electronic and thermal Energies=              -191.447069
 Sum of electronic and thermal Enthalpies=            -191.446125
 Sum of electronic and thermal Free Energies=         -191.482762

                     E (Thermal)             CV                S
                      KCal/Mol        Cal/Mol-Kelvin    Cal/Mol-Kelvin
 Total                   26.804             19.389             77.108
 Electronic               0.000              0.000              2.183
 Translational            0.889              2.981             38.294
 Rotational               0.889              2.981             24.554
 Vibrational             25.027             13.428             12.077
 Vibration     1          0.610              1.929              3.030
 Vibration     2          0.625              1.881              2.447
 Vibration     3          0.654              1.789              1.849
 Vibration     4          0.669              1.744              1.655
 Vibration     5          0.779              1.436              0.906
 Vibration     6          0.780              1.433              0.902
 Vibration     7          0.846              1.272              0.683

 Normal termination of Gaussian 09 at Tue Jul 19 08:59:04 2016.
