 Gaussian 09, Revision E.01,
 Gaussian 09:  EM64L-G09RevE.01 30-Nov-2015

 ---------------------------------------------
 #p b3lyp/6-311++G(3df,2p) freq symmetry=Loose
 ---------------------------------------------

 ---------
 b3lyp opt
 ---------
 Symbolic Z-matrix:
 Charge =  0 Multiplicity = 1

                         Standard orientation:
 ---------------------------------------------------------------------
 Center     Atomic      Atomic             Coordinates (Angstroms)
 Number     Number       Type             X           Y           Z
 ---------------------------------------------------------------------
      1          6           0       -1.900035   -0.684474    0.000081
      2          6           0       -0.715908   -0.173365    0.000040
      3          6           0        0.000000    1.146678    0.000125
      4          6           0        0.715908   -0.173365   -0.000078
      5          6           0        1.900035   -0.684474   -0.000230
      6          1           0        0.000076    1.706901    0.926544
      7          1           0       -0.000076    1.707102   -0.926173
 ---------------------------------------------------------------------

 SCF Done:  E(RB3LYP) =  -191.450334523     A.U. after   12 cycles

 The electronic state is 1-A.
 Alpha  occ. eigenvalues --  -10.28485 -10.25919 -10.25917 -10.24036 -10.23995
 Alpha  occ. eigenvalues --   -0.94943  -0.77662  -0.74429  -0.63577  -0.52905
 Alpha  occ. eigenvalues --   -0.43569  -0.43041  -0.35634  -0.32496  -0.32212
 Alpha  occ. eigenvalues --   -0.28971
 Alpha virt. eigenvalues --   -0.15647  -0.11320  -0.06789  -0.01138   0.02045
 Alpha virt. eigenvalues --    0.02912   0.03113   0.05815   0.05850   0.05893
 Alpha virt. eigenvalues --    0.07418   0.07652   0.09884   0.09991   0.10771

 Mulliken charges:
               1
     1  C   -0.902073
     2  C    0.981924
     3  C   -0.553499
     4  C    0.981924
     5  C   -0.902073
     6  H    0.196899
     7  H    0.196899
 Sum of Mulliken charges =  -0.00000

 Dipole moment (field-independent basis, Debye):
    X=             -0.0000    Y=              3.0875    Z=              0.0003  Tot=              3.0875
 Quadrupole moment (field-independent basis, Debye-Ang):
   XX=            -41.8281   YY=            -26.2828   ZZ=            -29.5245
   XY=             -0.0000   XZ=              0.0010   YZ=              0.0004

  Exact polarizability:  84.629   0.000  53.114  -0.004   0.001  39.434
 Approx polarizability: 160.548   0.000  87.572  -0.008   0.003  56.931

                      1                      2                      3
                      A                      A                      A
 Frequencies --     63.0430               166.0802               223.1341
 Red. masses --     10.6043                 6.3155                 6.7051
 Frc consts  --      0.0248                 0.1026                 0.1967
 IR Inten    --     22.8648                12.8617                 0.8655

                      4                      5                      6
                      A                      A                      A
 Frequencies --    337.7812               679.0435               757.2620
 Red. masses --      4.5229                 9.8793                11.6568
 Frc consts  --      0.3040                 2.6839                 3.9384
 IR Inten    --      0.0000                76.0464                 0.1711

                      7                      8                      9
                      A                      A                      A
 Frequencies --    952.6362               982.5154               994.0017
 Red. masses --      1.1921                 6.1363                 1.2653
 Frc consts  --      0.6374                 3.4901                 0.7366
 IR Inten    --      0.0000                 0.4072                 0.0075

                     10                     11                     12
                      A                      A                      A
 Frequencies --   1060.1879              1460.2316              1693.9796
 Red. masses --      1.2221                 1.1051                10.8812
 Frc consts  --      0.8093                 1.3884                18.3968
 IR Inten    --      3.5337                 0.4158               332.8572

                     13                     14                     15
                      A                      A                      A
 Frequencies --   1921.2363              3109.3285              3210.6735
 Red. masses --     11.6102                 1.0480                 1.1206
 Frc consts  --     25.2494                 5.9695                 6.8057
 IR Inten    --     98.0383                 1.0413                 0.9334

 - Thermochemistry -
 -------------------
 Temperature   298.150 Kelvin.  Pressure   1.00000 Atm.
 Atom     1 has atomic number  6 and mass  12.00000

 Molecular mass:    62.01565 amu.
 Principal axes and moments of inertia in atomic units:
                           1         2         3
     Eigenvalues --   125.56542 359.51144 472.72305
           X            1.00000   0.00000   0.00008
           Y            0.00000   1.00000  -0.00011
           Z           -0.00008   0.00011   1.00000
 This molecule is an asymmetric top.
 Rotational symmetry number  1.
 Rotational temperatures (Kelvin)      0.68979     0.24092     0.18322
 Rotational constants (GHZ):          14.37292     5.01998     3.81776
 Zero-point vibrational energy     105338.0 (Joules/Mol)
                                   25.17638 (Kcal/Mol)
 Warning -- explicit consideration of   4 degrees of freedom as
           vibrations may cause significant error
 Vibrational temperatures:     90.70   238.95   321.04   485.99   976.99
          (Kelvin)           1089.53  1370.63  1413.62  1430.14  1525.37
                             2100.94  2437.26  2764.23  4473.62  4619.44

 Zero-point correction=                           0.040121 (Hartree/Particle)
 Thermal correction to Energy=                    0.045650
 Thermal correction to Enthalpy=                  0.046594
 Thermal correction to Gibbs Free Energy=         0.011510
 Sum of electronic and zero-point Energies=           -191.410213
 Sum of electronic and thermal Energies=              -191.404684
 Sum of electronic and thermal Enthalpies=            -191.403740
 Sum of electronic and thermal Free Energies=         -191.438824

                     E (Thermal)             CV                S
                      KCal/Mol        Cal/Mol-Kelvin    Cal/Mol-Kelvin
 Total                   28.646             16.485             73.841
 Electronic               0.000              0.000              0.000
 Translational            0.889              2.981             38.294
 Rotational               0.889              2.981             24.571
 Vibrational             26.868             10.524             10.976
 Vibration     1          0.597              1.972              4.360
 Vibration     2          0.624              1.884              2.479
 Vibration     3          0.649              1.806              1.934
 Vibration     4          0.718              1.600              1.223

 Optimization completed.
    -- Stationary point found.
 Normal termination of Gaussian 09 at Tue Jul 19 04:10:29 2016.
