 Gaussian 09, Revision E.01,
 Gaussian 09:  EM64L-G09RevE.01 30-Nov-2015

 ---------------------------------------------
 #p b3lyp/6-311++G(3df,2p) freq symmetry=Loose
 ---------------------------------------------

 ---------
 b3lyp opt
 ---------
 Symbolic Z-matrix:
 Charge =  1 Multiplicity = 4

                         Standard orientation:
 ---------------------------------------------------------------------
 Center     Atomic      Atomic             Coordinates (Angstroms)
 Number     Number       Type             X           Y           Z
 ---------------------------------------------------------------------
      1          6           0       -0.614798   -0.307613   -0.000022
      2          6           0        0.494885    1.007150    0.000067
      3          6           0        1.414233   -0.150761   -0.000006
      4          6           0        0.461652   -1.162063   -0.000075
      5          6           0       -1.897314    0.085258    0.000001
      6          1           0        0.424021    1.584030    0.920416
      7          1           0        0.424026    1.584150   -0.920206
 ---------------------------------------------------------------------

 SCF Done:  E(UB3LYP) =  -191.054500119     A.U. after   18 cycles

 The electronic state is 4-A.
 Alpha  occ. eigenvalues --  -10.54459 -10.53305 -10.52898 -10.50258 -10.49791
 Alpha  occ. eigenvalues --   -1.19983  -1.03558  -0.96218  -0.84100  -0.74289
 Alpha  occ. eigenvalues --   -0.74051  -0.70492  -0.61715  -0.58191  -0.55515
 Alpha  occ. eigenvalues --   -0.54139  -0.53987
 Alpha virt. eigenvalues --   -0.36700  -0.33702  -0.20843  -0.17972  -0.16607
 Alpha virt. eigenvalues --   -0.12244  -0.11655  -0.09415  -0.09180  -0.07423
 Alpha virt. eigenvalues --   -0.07366  -0.06377  -0.05832  -0.04467  -0.02883

  Beta  occ. eigenvalues --  -10.52431 -10.52157 -10.50960 -10.50082 -10.49428
  Beta  occ. eigenvalues --   -1.16964  -0.99866  -0.94358  -0.79715  -0.72563
  Beta  occ. eigenvalues --   -0.70690  -0.67118  -0.58474  -0.55309
  Beta virt. eigenvalues --   -0.42832  -0.40548  -0.36262  -0.33734  -0.27248
  Beta virt. eigenvalues --   -0.17279  -0.16920  -0.16304  -0.11657  -0.10814
  Beta virt. eigenvalues --   -0.09055  -0.08254  -0.07069  -0.06778  -0.05858

 Mulliken charges and spin densities:
               1          2
     1  C    0.711289   0.251395
     2  C   -0.602197   0.009274
     3  C    0.360820   1.231525
     4  C    0.222012   0.932189
     5  C   -0.199564   0.547699
     6  H    0.253821   0.013959
     7  H    0.253820   0.013959
 Sum of Mulliken charges =   1.00000   3.00000

 Dipole moment (field-independent basis, Debye):
    X=              1.3795    Y=              0.9666    Z=              0.0001  Tot=              1.6845
 Quadrupole moment (field-independent basis, Debye-Ang):
   XX=            -23.1424   YY=            -20.1018   ZZ=            -24.7137
   XY=              1.7975   XZ=              0.0001   YZ=              0.0003

  Exact polarizability:  71.258  -2.719  46.135  -0.000   0.001  32.843
 Approx polarizability: 159.996  -4.711  77.029  -0.000   0.002  47.817

                      1                      2                      3
                      A                      A                      A
 Frequencies --    130.7598               143.8231               404.8959
 Red. masses --      8.5314                 6.4457                 9.6656
 Frc consts  --      0.0859                 0.0786                 0.9336
 IR Inten    --      4.8433                 4.9960                53.4823

                      4                      5                      6
                      A                      A                      A
 Frequencies --    467.5912               636.6897               910.9671
 Red. masses --      3.8468                 8.0884                 1.4137
 Frc consts  --      0.4955                 1.9318                 0.6912
 IR Inten    --      0.3246                 0.8075                 2.1017

                      7                      8                      9
                      A                      A                      A
 Frequencies --   1000.2822              1011.4228              1036.9492
 Red. masses --      1.1189                 3.0080                 7.9295
 Frc consts  --      0.6596                 1.8130                 5.0235
 IR Inten    --      0.2291                 8.7831                34.5187

                     10                     11                     12
                      A                      A                      A
 Frequencies --   1175.8652              1361.2094              1436.0238
 Red. masses --      1.5906                 5.7986                 1.2271
 Frc consts  --      1.2958                 6.3303                 1.4909
 IR Inten    --     54.3365                27.8934                19.3606

                     13                     14                     15
                      A                      A                      A
 Frequencies --   1665.5320              3073.3577              3167.4128
 Red. masses --     11.9269                 1.0510                 1.1167
 Frc consts  --     19.4933                 5.8490                 6.6010
 IR Inten    --    216.6009                30.8672                35.1096

 - Thermochemistry -
 -------------------
 Temperature   298.150 Kelvin.  Pressure   1.00000 Atm.
 Atom     1 has atomic number  6 and mass  12.00000

 Molecular mass:    62.01565 amu.
 Principal axes and moments of inertia in atomic units:
                           1         2         3
     Eigenvalues --   130.10837 283.30231 401.21764
           X            0.99949   0.03208  -0.00000
           Y           -0.03208   0.99949  -0.00007
           Z            0.00000   0.00007   1.00000
 This molecule is an asymmetric top.
 Rotational symmetry number  1.
 Rotational temperatures (Kelvin)      0.66571     0.30573     0.21588
 Rotational constants (GHZ):          13.87106     6.37037     4.49816
 Zero-point vibrational energy     105407.6 (Joules/Mol)
                                   25.19303 (Kcal/Mol)
 Warning -- explicit consideration of   4 degrees of freedom as
           vibrations may cause significant error
 Vibrational temperatures:    188.13   206.93   582.55   672.76   916.05
          (Kelvin)           1310.68  1439.18  1455.21  1491.94  1691.81
                             1958.47  2066.12  2396.33  4421.87  4557.19

 Zero-point correction=                           0.040148 (Hartree/Particle)
 Thermal correction to Energy=                    0.045198
 Thermal correction to Enthalpy=                  0.046142
 Thermal correction to Gibbs Free Energy=         0.011217
 Sum of electronic and zero-point Energies=           -191.014352
 Sum of electronic and thermal Energies=              -191.009302
 Sum of electronic and thermal Enthalpies=            -191.008358
 Sum of electronic and thermal Free Energies=         -191.043283

                     E (Thermal)             CV                S
                      KCal/Mol        Cal/Mol-Kelvin    Cal/Mol-Kelvin
 Total                   28.362             15.573             73.508
 Electronic               0.000              0.000              2.755
 Translational            0.889              2.981             38.294
 Rotational               0.889              2.981             24.207
 Vibrational             26.585              9.611              8.252
 Vibration     1          0.612              1.923              2.935
 Vibration     2          0.616              1.909              2.752
 Vibration     3          0.770              1.460              0.945
 Vibration     4          0.825              1.322              0.744

 Optimization completed.
    -- Stationary point found.
 Normal termination of Gaussian 09 at Tue Jul 19 10:28:45 2016.
