 Gaussian 09, Revision E.01,
 Gaussian 09:  EM64L-G09RevE.01 30-Nov-2015

 ---------------------------------------------
 #p b3lyp/6-311++G(3df,2p) freq symmetry=Loose
 ---------------------------------------------

 ---------
 b3lyp opt
 ---------
 Symbolic Z-matrix:
 Charge =  1 Multiplicity = 2

                         Standard orientation:
 ---------------------------------------------------------------------
 Center     Atomic      Atomic             Coordinates (Angstroms)
 Number     Number       Type             X           Y           Z
 ---------------------------------------------------------------------
      1          6           0        1.341271    0.667142    0.000210
      2          6           0        0.241780   -0.225389    0.000007
      3          6           0       -1.146786   -0.427725   -0.000167
      4          6           0       -1.992374    0.589978   -0.000172
      5          6           0        1.543466   -0.648547    0.000116
      6          1           0       -1.575466   -1.435637   -0.000305
      7          1           0        1.651324    1.702885    0.000337
 ---------------------------------------------------------------------

 SCF Done:  E(UB3LYP) =  -191.165489880     A.U. after   20 cycles

 The electronic state is 2-A.
 Alpha  occ. eigenvalues --  -10.53767 -10.52369 -10.51325 -10.50173 -10.43163
 Alpha  occ. eigenvalues --   -1.22727  -1.05975  -0.88013  -0.84444  -0.77241
 Alpha  occ. eigenvalues --   -0.71090  -0.67797  -0.66728  -0.55558  -0.54370
 Alpha  occ. eigenvalues --   -0.52749
 Alpha virt. eigenvalues --   -0.34217  -0.32490  -0.28323  -0.17407  -0.15213
 Alpha virt. eigenvalues --   -0.14449  -0.13072  -0.11196  -0.10533  -0.09415
 Alpha virt. eigenvalues --   -0.06952  -0.06219  -0.06178  -0.05124  -0.03915

  Beta  occ. eigenvalues --  -10.53493 -10.51154 -10.50805 -10.50180 -10.43164
  Beta  occ. eigenvalues --   -1.21619  -1.05780  -0.87499  -0.83510  -0.75672
  Beta  occ. eigenvalues --   -0.67852  -0.67244  -0.65268  -0.54218  -0.52999
  Beta virt. eigenvalues --   -0.40284  -0.34125  -0.32432  -0.26264  -0.17230
  Beta virt. eigenvalues --   -0.14911  -0.14166  -0.12563  -0.10987  -0.10518
  Beta virt. eigenvalues --   -0.09131  -0.06220  -0.06217  -0.05502  -0.04862

 Mulliken charges and spin densities:
               1          2
     1  C    0.264732   0.022044
     2  C    0.333719   0.113711
     3  C    0.232220  -0.002208
     4  C   -0.418012   0.010905
     5  C    0.045015   0.835883
     6  H    0.224597   0.016285
     7  H    0.317729   0.003379
 Sum of Mulliken charges =   1.00000   1.00000

 Dipole moment (field-independent basis, Debye):
    X=              1.8571    Y=             -0.1543    Z=              0.0002  Tot=              1.8635
 Quadrupole moment (field-independent basis, Debye-Ang):
   XX=            -16.3657   YY=            -20.1998   ZZ=            -26.5511
   XY=              6.6011   XZ=              0.0017   YZ=              0.0013

  Exact polarizability:  68.465  -3.426  43.093   0.004   0.001  28.843
 Approx polarizability: 114.924 -12.639  75.696   0.007   0.001  43.096

                      1                      2                      3
                      A                      A                      A
 Frequencies --    137.6878               150.5845               402.4938
 Red. masses --      4.8922                 7.8227                 4.2328
 Frc consts  --      0.0546                 0.1045                 0.4040
 IR Inten    --     15.2923                16.8840                 5.7272

                      4                      5                      6
                      A                      A                      A
 Frequencies --    438.8416               706.5824               812.8753
 Red. masses --      2.6195                 1.7608                 4.2295
 Frc consts  --      0.2972                 0.5179                 1.6466
 IR Inten    --     14.8546                20.3764                 0.2424

                      7                      8                      9
                      A                      A                      A
 Frequencies --    895.8031               955.4033              1017.2647
 Red. masses --      1.4198                 1.4397                 1.3189
 Frc consts  --      0.6713                 0.7743                 0.8041
 IR Inten    --     31.3935                 8.7650                28.8435

                     10                     11                     12
                      A                      A                      A
 Frequencies --   1164.0944              1425.0297              1626.2264
 Red. masses --      4.7213                 8.5330                 8.2326
 Frc consts  --      3.7695                10.2094                12.8277
 IR Inten    --     59.8594               177.7960               208.9735

                     13                     14                     15
                      A                      A                      A
 Frequencies --   1760.9890              3056.6841              3239.6668
 Red. masses --      9.2386                 1.0845                 1.1193
 Frc consts  --     16.8799                 5.9699                 6.9217
 IR Inten    --    277.2505               103.9752                92.8257

 - Thermochemistry -
 -------------------
 Temperature   298.150 Kelvin.  Pressure   1.00000 Atm.
 Atom     1 has atomic number  6 and mass  12.00000

 Molecular mass:    62.01565 amu.
 Principal axes and moments of inertia in atomic units:
                           1         2         3
     Eigenvalues --    78.95126 427.82379 506.77504
           X            0.99867   0.05160  -0.00011
           Y           -0.05160   0.99867  -0.00009
           Z            0.00011   0.00009   1.00000
 This molecule is an asymmetric top.
 Rotational symmetry number  1.
 Rotational temperatures (Kelvin)      1.09705     0.20245     0.17091
 Rotational constants (GHZ):          22.85893     4.21842     3.56123
 Zero-point vibrational energy     106409.2 (Joules/Mol)
                                   25.43241 (Kcal/Mol)
 Warning -- explicit consideration of   4 degrees of freedom as
           vibrations may cause significant error
 Vibrational temperatures:    198.10   216.66   579.10   631.39  1016.61
          (Kelvin)           1169.54  1288.86  1374.61  1463.62  1674.87
                             2050.30  2339.77  2533.67  4397.88  4661.15

 Zero-point correction=                           0.040529 (Hartree/Particle)
 Thermal correction to Energy=                    0.045598
 Thermal correction to Enthalpy=                  0.046542
 Thermal correction to Gibbs Free Energy=         0.012228
 Sum of electronic and zero-point Energies=           -191.124961
 Sum of electronic and thermal Energies=              -191.119892
 Sum of electronic and thermal Enthalpies=            -191.118948
 Sum of electronic and thermal Free Energies=         -191.153262

                     E (Thermal)             CV                S
                      KCal/Mol        Cal/Mol-Kelvin    Cal/Mol-Kelvin
 Total                   28.613             15.773             72.219
 Electronic               0.000              0.000              1.377
 Translational            0.889              2.981             38.294
 Rotational               0.889              2.981             24.352
 Vibrational             26.836              9.812              8.196
 Vibration     1          0.614              1.916              2.836
 Vibration     2          0.618              1.902              2.665
 Vibration     3          0.768              1.465              0.954
 Vibration     4          0.799              1.385              0.830

 Optimization completed.
    -- Stationary point found.
 Normal termination of Gaussian 09 at Tue Jul 19 04:54:02 2016.
