 Gaussian 09, Revision E.01,
 Gaussian 09:  EM64L-G09RevE.01 30-Nov-2015

 ------------------------------------------------------
 #p b3lyp/6-311++G(3df,2p) freq IOp(2/17=3) IOp(2/18=3)
 ------------------------------------------------------

 ---------
 b3lyp opt
 ---------
 Symbolic Z-matrix:
 Charge =  3 Multiplicity = 2

                         Standard orientation:
 ---------------------------------------------------------------------
 Center     Atomic      Atomic             Coordinates (Angstroms)
 Number     Number       Type             X           Y           Z
 ---------------------------------------------------------------------
      1          6           0       -0.000000    0.000000   -2.589385
      2          6           0       -0.000000    0.000000   -1.302052
      3          6           0        0.000000    0.000000   -0.000000
      4          6           0       -0.000000    0.000000    1.302052
      5          6           0       -0.000000   -0.000000    2.589385
      6          1           0        0.000000    0.000000   -3.712141
      7          1           0       -0.000000   -0.000000    3.712141
 ---------------------------------------------------------------------

 SCF Done:  E(UB3LYP) =  -189.879283616     A.U. after   14 cycles

 Unable to determine electronic state:  an orbital has unidentified symmetry.
 Alpha  occ. eigenvalues --  -11.04312 -11.04310 -11.02933 -10.97674 -10.97668
 Alpha  occ. eigenvalues --   -1.57186  -1.53420  -1.45883  -1.37142  -1.22250
 Alpha  occ. eigenvalues --   -1.21836  -1.10735  -1.09569  -1.04362  -1.02092
 Alpha virt. eigenvalues --   -0.87419  -0.86421  -0.72058  -0.70321  -0.55913
 Alpha virt. eigenvalues --   -0.55288  -0.54764  -0.51508  -0.49475  -0.45200
 Alpha virt. eigenvalues --   -0.44609  -0.40182  -0.39899  -0.37059  -0.36310

  Beta  occ. eigenvalues --  -11.03769 -11.03767 -11.03450 -10.97126 -10.97121
  Beta  occ. eigenvalues --   -1.56368  -1.50871  -1.44741  -1.36531  -1.21616
  Beta  occ. eigenvalues --   -1.21260  -1.09537  -1.08162  -1.01062
  Beta virt. eigenvalues --   -0.93770  -0.86280  -0.84176  -0.69578  -0.67598
  Beta virt. eigenvalues --   -0.54549  -0.54222  -0.53431  -0.50507  -0.49355
  Beta virt. eigenvalues --   -0.45094  -0.44158  -0.39908  -0.39895  -0.36954

 Mulliken charges and spin densities:
               1          2
     1  C    0.638762   0.175190
     2  C    0.647607   0.240425
     3  C   -0.578906   0.189232
     4  C    0.647607   0.240425
     5  C    0.638762   0.175190
     6  H    0.503083  -0.010231
     7  H    0.503083  -0.010231
 Sum of Mulliken charges =   3.00000   1.00000

 Dipole moment (field-independent basis, Debye):
    X=             -0.0000    Y=              0.0000    Z=             -0.0000  Tot=              0.0000
 Quadrupole moment (field-independent basis, Debye-Ang):
   XX=            -21.9330   YY=            -20.4145   ZZ=             74.0174
   XY=              0.0000   XZ=             -0.0000   YZ=             -0.0000

  Exact polarizability:  20.352  -0.000  20.074   0.000  -0.000 122.713
 Approx polarizability:  27.660   0.000  28.207  -0.000  -0.000 366.781

                      1                      2                      3
                     ?A                     ?A                     ?B
 Frequencies --    145.4135               148.4921               304.3899
 Red. masses --      3.7053                 3.7778                 4.5130
 Frc consts  --      0.0462                 0.0491                 0.2464
 IR Inten    --     40.1717                45.7124                 0.0000

                      4                      5                      6
                     ?B                     ?A                     ?A
 Frequencies --    309.1568               611.0996               657.9058
 Red. masses --      3.9467                 4.7989                 5.6722
 Frc consts  --      0.2223                 1.0559                 1.4465
 IR Inten    --      0.0000                14.8062                32.0332

                      7                      8                      9
                     SGG                    ?B                     ?A
 Frequencies --    753.6876               798.3243               805.8424
 Red. masses --      7.0126                 1.3442                 1.4527
 Frc consts  --      2.3470                 0.5048                 0.5558
 IR Inten    --      0.0000                 0.0000                33.1413

                     10                     11                     12
                     ?B                     ?A                     SGU
 Frequencies --    832.6362               842.6797              1314.0568
 Red. masses --      1.4042                 1.5359                 7.2575
 Frc consts  --      0.5736                 0.6426                 7.3836
 IR Inten    --      0.0000                18.7524               411.2603

                     13                     14                     15
                     SGG                    SGU                    SGU
 Frequencies --   1915.0556              1928.0518              2892.1764
 Red. masses --      5.9852                 6.5206                 1.1930
 Frc consts  --     12.9327                14.2816                 5.8796
 IR Inten    --      0.0000              2147.0188              1129.2968

                     16
                     SGG
 Frequencies --   2895.9128
 Red. masses --      1.1775
 Frc consts  --      5.8183
 IR Inten    --      0.0000

 - Thermochemistry -
 -------------------
 Temperature   298.150 Kelvin.  Pressure   1.00000 Atm.
 Atom     1 has atomic number  6 and mass  12.00000

 Molecular mass:    62.01565 amu.
 Principal axes and moments of inertia in atomic units:
                           1         2         3
     Eigenvalues --     0.00000 819.13689 819.13689
           X           -0.00000   1.00000  -0.00014
           Y           -0.00000   0.00014   1.00000
           Z            1.00000   0.00000  -0.00000
 This molecule is a prolate symmetric top.
 Rotational symmetry number  2.
 Warning -- assumption of classical behavior for rotation
           may cause significant error
 Rotational temperature (Kelvin)      0.10574
 Rotational constant (GHZ):           2.203223
 Zero-point vibrational energy     102609.0 (Joules/Mol)
                                   24.52413 (Kcal/Mol)
 Warning -- explicit consideration of   5 degrees of freedom as
           vibrations may cause significant error
 Vibrational temperatures:    209.22   213.65   437.95   444.81   879.23
          (Kelvin)            946.58  1084.39  1148.61  1159.43  1197.98
                             1212.43  1890.63  2755.33  2774.03  4161.19
                             4166.57

 Zero-point correction=                           0.039082 (Hartree/Particle)
 Thermal correction to Energy=                    0.044245
 Thermal correction to Enthalpy=                  0.045189
 Thermal correction to Gibbs Free Energy=         0.013788
 Sum of electronic and zero-point Energies=           -189.840202
 Sum of electronic and thermal Energies=              -189.835039
 Sum of electronic and thermal Enthalpies=            -189.834095
 Sum of electronic and thermal Free Energies=         -189.865495

                     E (Thermal)             CV                S
                      KCal/Mol        Cal/Mol-Kelvin    Cal/Mol-Kelvin
 Total                   27.764             17.402             66.089
 Electronic               0.000              0.000              1.377
 Translational            0.889              2.981             38.294
 Rotational               0.592              1.987             16.397
 Vibrational             26.283             12.434             10.020
 Vibration     1          0.617              1.908              2.731
 Vibration     2          0.618              1.904              2.691
 Vibration     3          0.695              1.665              1.393
 Vibration     4          0.699              1.656              1.367
 Vibration     5          0.970              1.008              0.431

 Optimization completed.
    -- Stationary point found.
 Normal termination of Gaussian 09 at Thu Jan 31 05:13:15 2019.
