 Gaussian 09, Revision E.01,
 Gaussian 09:  EM64L-G09RevE.01 30-Nov-2015

 ------------------------------------------------------
 #p b3lyp/6-311++G(3df,2p) freq IOp(2/17=3) IOp(2/18=3)
 ------------------------------------------------------

 ---------
 b3lyp opt
 ---------
 Symbolic Z-matrix:
 Charge =  0 Multiplicity = 3

                         Standard orientation:
 ---------------------------------------------------------------------
 Center     Atomic      Atomic             Coordinates (Angstroms)
 Number     Number       Type             X           Y           Z
 ---------------------------------------------------------------------
      1          6           0        0.843454   -0.131755    0.720981
      2          6           0       -0.616161   -0.310975    0.727581
      3          6           0       -0.616161   -0.310975   -0.727581
      4          6           0        0.843454   -0.131755   -0.720981
      5          6           0       -0.000000    0.965296   -0.000000
      6          1           0       -1.364231   -0.236573    1.498202
      7          1           0       -1.364231   -0.236573   -1.498202
 ---------------------------------------------------------------------

 SCF Done:  E(UB3LYP) =  -191.406721186     A.U. after   14 cycles

 The electronic state is 3-A".
 Alpha  occ. eigenvalues --  -10.25926 -10.25887 -10.25676 -10.25640 -10.24495
 Alpha  occ. eigenvalues --   -1.06498  -0.72144  -0.71452  -0.58361  -0.53986
 Alpha  occ. eigenvalues --   -0.51700  -0.45506  -0.34929  -0.32678  -0.31889
 Alpha  occ. eigenvalues --   -0.29631  -0.28038
 Alpha virt. eigenvalues --   -0.00520   0.00502   0.00934   0.01680   0.02990
 Alpha virt. eigenvalues --    0.05239   0.06025   0.06626   0.07176   0.08350
 Alpha virt. eigenvalues --    0.08760   0.08882   0.10047   0.10689   0.11732

  Beta  occ. eigenvalues --  -10.25382 -10.25347 -10.24434 -10.24397 -10.23879
  Beta  occ. eigenvalues --   -1.05055  -0.70541  -0.69647  -0.56554  -0.51874
  Beta  occ. eigenvalues --   -0.49849  -0.43701  -0.31828  -0.30989  -0.27962
  Beta virt. eigenvalues --   -0.15054  -0.14542  -0.00426   0.01179   0.01821
  Beta virt. eigenvalues --    0.01919   0.03465   0.05639   0.06809   0.07492
  Beta virt. eigenvalues --    0.07724   0.08663   0.08964   0.09289   0.10593

 Mulliken charges and spin densities:
               1          2
     1  C    0.008882   0.779436
     2  C   -0.056764   0.084766
     3  C   -0.056764   0.084766
     4  C    0.008882   0.779436
     5  C   -0.298350   0.228492
     6  H    0.197057   0.021552
     7  H    0.197057   0.021552
 Sum of Mulliken charges =  -0.00000   2.00000

 Dipole moment (field-independent basis, Debye):
    X=             -2.2500    Y=             -0.9751    Z=              0.0000  Tot=              2.4522
 Quadrupole moment (field-independent basis, Debye-Ang):
   XX=            -27.6761   YY=            -33.0683   ZZ=            -27.1271
   XY=              0.9746   XZ=             -0.0000   YZ=              0.0000

  Exact polarizability:  51.981  -3.295  46.283  -0.000   0.000  52.791
 Approx polarizability:  86.774  -8.793  84.997  -0.000   0.000  87.323

                      1                      2                      3
                     A"                     A"                     A'
 Frequencies --    225.8536               447.4302               473.6451
 Red. masses --      9.7474                10.5156                 8.6560
 Frc consts  --      0.2929                 1.2403                 1.1441
 IR Inten    --      5.8480                37.9535                 6.1367

                      4                      5                      6
                     A'                     A"                     A"
 Frequencies --    745.2063               842.9712               905.1352
 Red. masses --      2.7228                 1.9277                 2.1702
 Frc consts  --      0.8909                 0.8071                 1.0476
 IR Inten    --    114.1819                 0.0001                43.4575

                      7                      8                      9
                     A'                     A'                     A"
 Frequencies --    929.9816               998.1659              1039.5516
 Red. masses --      1.8985                 1.3293                 1.9223
 Frc consts  --      0.9674                 0.7803                 1.2239
 IR Inten    --     72.6505                 0.0029                 2.6704

                     10                     11                     12
                     A'                     A"                     A'
 Frequencies --   1154.0980              1221.0414              1243.1047
 Red. masses --      6.4629                 2.2700                 3.5363
 Frc consts  --      5.0718                 1.9940                 3.2197
 IR Inten    --      4.9931                 0.0003                 0.0245

                     13                     14                     15
                     A'                     A"                     A'
 Frequencies --   1301.2848              3233.5185              3248.6984
 Red. masses --      6.8680                 1.0910                 1.1061
 Frc consts  --      6.8521                 6.7210                 6.8782
 IR Inten    --      1.6940                 0.7716                 1.3707

 - Thermochemistry -
 -------------------
 Temperature   298.150 Kelvin.  Pressure   1.00000 Atm.
 Atom     1 has atomic number  6 and mass  12.00000

 Molecular mass:    62.01565 amu.
 Principal axes and moments of inertia in atomic units:
                           1         2         3
     Eigenvalues --   154.72723 156.58133 214.00985
           X            0.98773   0.00000  -0.15619
           Y            0.15619   0.00000   0.98773
           Z            0.00000   1.00000  -0.00000
 This molecule is an asymmetric top.
 Rotational symmetry number  1.
 Rotational temperatures (Kelvin)      0.55978     0.55316     0.40472
 Rotational constants (GHZ):          11.66402    11.52590     8.43298
 Zero-point vibrational energy     107721.8 (Joules/Mol)
                                   25.74614 (Kcal/Mol)
 Warning -- explicit consideration of   3 degrees of freedom as
           vibrations may cause significant error
 Vibrational temperatures:    324.95   643.75   681.47  1072.18  1212.85
          (Kelvin)           1302.29  1338.03  1436.14  1495.68  1660.49
                             1756.80  1788.55  1872.26  4652.31  4674.15

 Zero-point correction=                           0.041029 (Hartree/Particle)
 Thermal correction to Energy=                    0.045287
 Thermal correction to Enthalpy=                  0.046231
 Thermal correction to Gibbs Free Energy=         0.013874
 Sum of electronic and zero-point Energies=           -191.365692
 Sum of electronic and thermal Energies=              -191.361435
 Sum of electronic and thermal Enthalpies=            -191.360490
 Sum of electronic and thermal Free Energies=         -191.392847

                     E (Thermal)             CV                S
                      KCal/Mol        Cal/Mol-Kelvin    Cal/Mol-Kelvin
 Total                   28.418             14.189             68.101
 Electronic               0.000              0.000              2.183
 Translational            0.889              2.981             38.294
 Rotational               0.889              2.981             23.165
 Vibrational             26.640              8.227              4.459
 Vibration     1          0.650              1.802              1.912
 Vibration     2          0.807              1.367              0.804
 Vibration     3          0.830              1.309              0.727

 Optimization completed.
    -- Stationary point found.
 Normal termination of Gaussian 09 at Thu Jan 31 04:43:02 2019.
