 Gaussian 09, Revision E.01,
 Gaussian 09:  EM64L-G09RevE.01 30-Nov-2015

 ----------------------------------------------------------
 #p b3lyp/6-311++G(3df,2p) freq symmetry=Loose guess=Huckel
 ----------------------------------------------------------

 ---------
 b3lyp opt
 ---------
 Symbolic Z-matrix:
 Charge =  3 Multiplicity = 2

                         Standard orientation:
 ---------------------------------------------------------------------
 Center     Atomic      Atomic             Coordinates (Angstroms)
 Number     Number       Type             X           Y           Z
 ---------------------------------------------------------------------
      1          6           0       -1.190928    1.373242   -0.196493
      2          6           0       -0.625795   -0.014829    0.242579
      3          6           0        0.828112   -0.051791    0.046997
      4          6           0        2.084642   -0.054731   -0.070892
      5          6           0       -1.473184   -1.234534   -0.223974
      6          1           0        3.190786   -0.075264   -0.169080
      7          1           0       -0.927872   -0.028877    1.379785
 ---------------------------------------------------------------------

 SCF Done:  E(UB3LYP) =  -189.585343652     A.U. after   78 cycles

 The electronic state is 2-A.
 Alpha  occ. eigenvalues --  -11.15266 -11.15264 -11.00843 -10.97520 -10.97367
 Alpha  occ. eigenvalues --   -1.60302  -1.49742  -1.40130  -1.32754  -1.22270
 Alpha  occ. eigenvalues --   -1.18397  -1.09545  -1.08433  -1.03049  -1.00217
 Alpha virt. eigenvalues --   -0.89705  -0.88250  -0.86357  -0.85947  -0.70616
 Alpha virt. eigenvalues --   -0.69024  -0.57220  -0.53951  -0.51029  -0.48881
 Alpha virt. eigenvalues --   -0.47262  -0.43322  -0.42957  -0.42534  -0.39874

  Beta  occ. eigenvalues --  -11.15240 -11.15093 -11.00900 -10.96877 -10.96513
  Beta  occ. eigenvalues --   -1.59682  -1.46364  -1.39614  -1.31986  -1.21902
  Beta  occ. eigenvalues --   -1.17732  -1.09083  -1.06659  -0.99170
  Beta virt. eigenvalues --   -0.90896  -0.89662  -0.88089  -0.85860  -0.85059
  Beta virt. eigenvalues --   -0.68399  -0.65294  -0.56160  -0.53561  -0.50335
  Beta virt. eigenvalues --   -0.47651  -0.46716  -0.43108  -0.42713  -0.42239

 Mulliken charges and spin densities:
               1          2
     1  C    0.672684   0.007318
     2  C    0.023123   0.050455
     3  C    0.069641   0.565974
     4  C    0.691331   0.294729
     5  C    0.678165   0.094180
     6  H    0.496513  -0.011162
     7  H    0.368543  -0.001494
 Sum of Mulliken charges =   3.00000   1.00000

 Dipole moment (field-independent basis, Debye):
    X=             -0.8257    Y=              0.0577    Z=              0.4207  Tot=              0.9284
 Quadrupole moment (field-independent basis, Debye-Ang):
   XX=             21.3813   YY=             -9.8007   ZZ=            -18.3446
   XY=             -0.3042   XZ=             -1.7050   YZ=              0.1092

  Exact polarizability:  69.094   1.121  45.412   0.780   0.099  28.273
 Approx polarizability: 126.697   3.087 101.255   2.939   0.035  46.134

                      1                      2                      3
                      A                      A                      A
 Frequencies --    178.0419               219.6449               309.8830
 Red. masses --      5.5914                 5.5860                 8.4724
 Frc consts  --      0.1044                 0.1588                 0.4794
 IR Inten    --      0.6923                12.6125                 6.6070

                      4                      5                      6
                      A                      A                      A
 Frequencies --    426.5565               440.7425               655.3144
 Red. masses --      6.0632                 6.6051                 4.4512
 Frc consts  --      0.6500                 0.7560                 1.1262
 IR Inten    --     61.6399                44.4969                92.8670

                      7                      8                      9
                      A                      A                      A
 Frequencies --    690.9758               757.3050               810.2090
 Red. masses --      3.0949                 1.2482                 1.3845
 Frc consts  --      0.8706                 0.4218                 0.5355
 IR Inten    --    131.3436                37.8250                 9.4487

                     10                     11                     12
                      A                      A                      A
 Frequencies --    885.4462               913.0549              1064.2737
 Red. masses --      2.4505                 2.0980                 1.4278
 Frc consts  --      1.1320                 1.0305                 0.9529
 IR Inten    --     36.2817               234.8189                58.4518

                     13                     14                     15
                      A                      A                      A
 Frequencies --   1899.0691              2314.0145              3002.5709
 Red. masses --      5.4777                 1.0705                 1.1825
 Frc consts  --     11.6393                 3.3772                 6.2811
 IR Inten    --    431.5829               430.0831               473.7818

 - Thermochemistry -
 -------------------
 Temperature   298.150 Kelvin.  Pressure   1.00000 Atm.
 Atom     1 has atomic number  6 and mass  12.00000

 Molecular mass:    62.01565 amu.
 Principal axes and moments of inertia in atomic units:
                           1         2         3
     Eigenvalues --   159.80710 439.13625 572.12059
           X            0.99988  -0.00277  -0.01526
           Y            0.00276   1.00000  -0.00069
           Z            0.01526   0.00065   0.99988
 This molecule is an asymmetric top.
 Rotational symmetry number  1.
 Rotational temperatures (Kelvin)      0.54199     0.19724     0.15139
 Rotational constants (GHZ):          11.29325     4.10975     3.15448
 Zero-point vibrational energy      87130.6 (Joules/Mol)
                                   20.82472 (Kcal/Mol)
 Warning -- explicit consideration of   5 degrees of freedom as
           vibrations may cause significant error
 Vibrational temperatures:    256.16   316.02   445.85   613.72   634.13
          (Kelvin)            942.85   994.16  1089.59  1165.71  1273.96
                             1313.68  1531.25  2732.33  3329.35  4320.02

 Zero-point correction=                           0.033186 (Hartree/Particle)
 Thermal correction to Energy=                    0.038663
 Thermal correction to Enthalpy=                  0.039607
 Thermal correction to Gibbs Free Energy=         0.004581
 Sum of electronic and zero-point Energies=           -189.552157
 Sum of electronic and thermal Energies=              -189.546680
 Sum of electronic and thermal Enthalpies=            -189.545736
 Sum of electronic and thermal Free Energies=         -189.580762

                     E (Thermal)             CV                S
                      KCal/Mol        Cal/Mol-Kelvin    Cal/Mol-Kelvin
 Total                   24.262             18.548             73.718
 Electronic               0.000              0.000              1.377
 Translational            0.889              2.981             38.294
 Rotational               0.889              2.981             25.199
 Vibrational             22.484             12.587              8.848
 Vibration     1          0.628              1.869              2.349
 Vibration     2          0.647              1.811              1.962
 Vibration     3          0.699              1.655              1.363
 Vibration     4          0.788              1.412              0.870
 Vibration     5          0.801              1.381              0.824

 Optimization completed.
    -- Stationary point found.
 Normal termination of Gaussian 09 at Mon Jun 20 22:48:42 2016.
