 Gaussian 09, Revision E.01,
 Gaussian 09:  EM64L-G09RevE.01 30-Nov-2015

 ---------------------------------------------
 #p b3lyp/6-311++G(3df,2p) freq symmetry=Loose
 ---------------------------------------------

 ---------
 b3lyp opt
 ---------
 Symbolic Z-matrix:
 Charge =  3 Multiplicity = 4

                         Standard orientation:
 ---------------------------------------------------------------------
 Center     Atomic      Atomic             Coordinates (Angstroms)
 Number     Number       Type             X           Y           Z
 ---------------------------------------------------------------------
      1          6           0        1.056576    1.421181    0.000000
      2          6           0       -0.000000    0.465569    0.000000
      3          6           0       -0.500545   -0.886274   -0.000000
      4          6           0       -0.021406   -2.137014   -0.000000
      5          6           0       -0.293811    1.854630    0.000000
      6          1           0        0.214189   -3.250981   -0.000000
      7          1           0       -1.659077   -1.057568   -0.000000
 ---------------------------------------------------------------------

 SCF Done:  E(UB3LYP) =  -189.681800112     A.U. after   17 cycles

 The electronic state is 4-A".
 Alpha  occ. eigenvalues --  -11.12532 -11.04040 -11.03825 -11.03788 -11.01396
 Alpha  occ. eigenvalues --   -1.68046  -1.60331  -1.41432  -1.28718  -1.26430
 Alpha  occ. eigenvalues --   -1.20276  -1.16436  -1.14224  -1.08362  -1.05196
 Alpha  occ. eigenvalues --   -0.99525
 Alpha virt. eigenvalues --   -0.88864  -0.84463  -0.74785  -0.68257  -0.61008
 Alpha virt. eigenvalues --   -0.59181  -0.51325  -0.50150  -0.48941  -0.46466
 Alpha virt. eigenvalues --   -0.43232  -0.42242  -0.40946  -0.40113  -0.36454

  Beta  occ. eigenvalues --  -11.11580 -11.03450 -11.01702 -11.01458 -11.01149
  Beta  occ. eigenvalues --   -1.65062  -1.57507  -1.39932  -1.27635  -1.22991
  Beta  occ. eigenvalues --   -1.15811  -1.11705  -1.09998
  Beta virt. eigenvalues --   -0.97251  -0.87572  -0.85053  -0.81601  -0.79455
  Beta virt. eigenvalues --   -0.68009  -0.64992  -0.58719  -0.57452  -0.49919
  Beta virt. eigenvalues --   -0.48409  -0.47209  -0.45075  -0.42756  -0.41030

 Mulliken charges and spin densities:
               1          2
     1  C    0.464709   1.056521
     2  C    0.611758   0.053743
     3  C    0.079166   0.319899
     4  C    0.519723   0.485940
     5  C    0.464154   1.103994
     6  H    0.523579  -0.011990
     7  H    0.336910  -0.008108
 Sum of Mulliken charges =   3.00000   3.00000

 Dipole moment (field-independent basis, Debye):
    X=             -0.9407    Y=             -6.1813    Z=             -0.0000  Tot=              6.2525
 Quadrupole moment (field-independent basis, Debye-Ang):
   XX=            -11.4892   YY=             32.5731   ZZ=            -20.9359
   XY=              4.6826   XZ=              0.0000   YZ=              0.0000

  Exact polarizability:  33.776   6.575  81.721   0.000   0.000  21.124
 Approx polarizability:  61.792   9.049 158.177   0.000   0.000  31.410

                      1                      2                      3
                     A"                     A'                     A"
 Frequencies --    113.8906               209.3365               340.3554
 Red. masses --      2.9591                 3.6498                 3.4064
 Frc consts  --      0.0226                 0.0942                 0.2325
 IR Inten    --      1.4086                16.5274                21.5360

                      4                      5                      6
                     A'                     A"                     A'
 Frequencies --    416.0941               645.0996               668.3402
 Red. masses --      4.2897                 1.3352                 5.5715
 Frc consts  --      0.4376                 0.3274                 1.4663
 IR Inten    --      5.9232                66.0608                36.3114

                      7                      8                      9
                     A"                     A'                     A'
 Frequencies --    753.8138               876.8383               996.9063
 Red. masses --      1.9143                 1.5294                 1.5124
 Frc consts  --      0.6409                 0.6928                 0.8856
 IR Inten    --      0.1317                 1.9141                57.6189

                     10                     11                     12
                     A'                     A'                     A'
 Frequencies --   1088.5389              1192.3450              1300.5379
 Red. masses --      7.2748                 6.2665                 6.9930
 Frc consts  --      5.0787                 5.2491                 6.9688
 IR Inten    --     92.3426                90.3981               795.2585

                     13                     14                     15
                     A'                     A'                     A'
 Frequencies --   1590.0390              2383.0425              2726.8414
 Red. masses --      6.2478                 1.0747                 1.1410
 Frc consts  --      9.3067                 3.5960                 4.9988
 IR Inten    --     82.5584               580.8009               778.6174

 - Thermochemistry -
 -------------------
 Temperature   298.150 Kelvin.  Pressure   1.00000 Atm.
 Atom     1 has atomic number  6 and mass  12.00000

 Molecular mass:    62.01565 amu.
 Principal axes and moments of inertia in atomic units:
                           1         2         3
     Eigenvalues --    62.75420 523.10447 585.85867
           X            0.14360   0.98964   0.00000
           Y            0.98964  -0.14360   0.00000
           Z           -0.00000  -0.00000   1.00000
 This molecule is an asymmetric top.
 Rotational symmetry number  1.
 Rotational temperatures (Kelvin)      1.38021     0.16558     0.14784
 Rotational constants (GHZ):          28.75889     3.45006     3.08051
 Zero-point vibrational energy      91526.4 (Joules/Mol)
                                   21.87533 (Kcal/Mol)
 Warning -- explicit consideration of   4 degrees of freedom as
           vibrations may cause significant error
 Vibrational temperatures:    163.86   301.19   489.69   598.67   928.15
          (Kelvin)            961.59  1084.57  1261.57  1434.32  1566.16
                             1715.52  1871.18  2287.71  3428.66  3923.31

 Zero-point correction=                           0.034861 (Hartree/Particle)
 Thermal correction to Energy=                    0.040124
 Thermal correction to Enthalpy=                  0.041068
 Thermal correction to Gibbs Free Energy=         0.005791
 Sum of electronic and zero-point Energies=           -189.646940
 Sum of electronic and thermal Energies=              -189.641676
 Sum of electronic and thermal Enthalpies=            -189.640732
 Sum of electronic and thermal Free Energies=         -189.676009

                     E (Thermal)             CV                S
                      KCal/Mol        Cal/Mol-Kelvin    Cal/Mol-Kelvin
 Total                   25.178             16.933             74.247
 Electronic               0.000              0.000              2.755
 Translational            0.889              2.981             38.294
 Rotational               0.889              2.981             24.468
 Vibrational             23.401             10.972              8.731
 Vibration     1          0.607              1.938              3.202
 Vibration     2          0.642              1.826              2.049
 Vibration     3          0.720              1.595              1.210
 Vibration     4          0.779              1.435              0.905

 Optimization completed.
    -- Stationary point found.
 Normal termination of Gaussian 09 at Tue Jul 19 09:26:12 2016.
