 Gaussian 09, Revision E.01,
 Gaussian 09:  EM64L-G09RevE.01 30-Nov-2015

 ---------------------------------------------
 #p b3lyp/6-311++G(3df,2p) freq symmetry=Loose
 ---------------------------------------------

 ---------
 b3lyp opt
 ---------
 Symbolic Z-matrix:
 Charge =  3 Multiplicity = 4

                         Standard orientation:
 ---------------------------------------------------------------------
 Center     Atomic      Atomic             Coordinates (Angstroms)
 Number     Number       Type             X           Y           Z
 ---------------------------------------------------------------------
      1          6           0       -0.104658    0.877858    0.762324
      2          6           0       -0.104658    0.877858   -0.762324
      3          6           0       -0.104658   -0.530348   -1.045236
      4          6           0        0.497104   -1.281869    0.000000
      5          6           0       -0.104658   -0.530348    1.045236
      6          1           0       -0.235423    1.760548    1.446606
      7          1           0       -0.235423    1.760548   -1.446606
 ---------------------------------------------------------------------

 SCF Done:  E(UB3LYP) =  -189.637925028     A.U. after   16 cycles

 The electronic state is 4-A".
 Alpha  occ. eigenvalues --  -11.14773 -11.12856 -11.12853 -11.07430 -11.07407
 Alpha  occ. eigenvalues --   -1.75459  -1.54719  -1.52670  -1.34405  -1.31502
 Alpha  occ. eigenvalues --   -1.25815  -1.21476  -1.20019  -1.13957  -1.08971
 Alpha  occ. eigenvalues --   -1.07430
 Alpha virt. eigenvalues --   -0.95018  -0.93199  -0.80975  -0.77572  -0.56930
 Alpha virt. eigenvalues --   -0.54624  -0.53771  -0.52930  -0.50808  -0.46456
 Alpha virt. eigenvalues --   -0.45312  -0.44745  -0.42545  -0.41742  -0.40643

  Beta  occ. eigenvalues --  -11.12786 -11.11114 -11.11112 -11.06939 -11.06919
  Beta  occ. eigenvalues --   -1.72427  -1.51884  -1.49406  -1.31683  -1.29005
  Beta  occ. eigenvalues --   -1.22221  -1.18482  -1.16161
  Beta virt. eigenvalues --   -0.97564  -0.94626  -0.94061  -0.87239  -0.86198
  Beta virt. eigenvalues --   -0.75018  -0.72811  -0.54791  -0.53143  -0.51737
  Beta virt. eigenvalues --   -0.51311  -0.49250  -0.45123  -0.44077  -0.43666

 Mulliken charges and spin densities:
               1          2
     1  C    0.189214   0.269345
     2  C    0.189214   0.269345
     3  C    0.559936   0.782396
     4  C    0.722434   0.846191
     5  C    0.559936   0.782396
     6  H    0.389633   0.025163
     7  H    0.389633   0.025163
 Sum of Mulliken charges =   3.00000   3.00000

 Dipole moment (field-independent basis, Debye):
    X=              0.0899    Y=              1.1506    Z=              0.0000  Tot=              1.1541
 Quadrupole moment (field-independent basis, Debye-Ang):
   XX=            -19.8264   YY=              0.5273   ZZ=             -3.3805
   XY=             -3.7671   XZ=              0.0000   YZ=             -0.0000

  Exact polarizability:  21.774  -4.165  46.108  -0.000   0.000  46.259
 Approx polarizability:  36.576 -12.026  99.197   0.000  -0.000 109.461

                      1                      2                      3
                     A"                     A'                     A'
 Frequencies --    159.5290               366.1966               525.8508
 Red. masses --      2.7661                 3.9067                11.3639
 Frc consts  --      0.0415                 0.3087                 1.8514
 IR Inten    --      8.3587                10.6857                 0.1338

                      4                      5                      6
                     A"                     A"                     A'
 Frequencies --    620.8186               688.4765               841.7911
 Red. masses --      7.5296                 7.4812                 1.4776
 Frc consts  --      1.7098                 2.0893                 0.6169
 IR Inten    --      1.7368                33.4323                45.2961

                      7                      8                      9
                     A'                     A"                     A'
 Frequencies --    906.3076               931.2061              1044.4436
 Red. masses --      2.8878                 1.5977                 8.5080
 Frc consts  --      1.3976                 0.8163                 5.4683
 IR Inten    --     56.9123                 2.2508                 0.3632

                     10                     11                     12
                     A"                     A'                     A'
 Frequencies --   1081.7873              1091.9205              1166.5340
 Red. masses --      2.4243                 1.4025                 8.5846
 Frc consts  --      1.6716                 0.9853                 6.8828
 IR Inten    --     32.0873               103.1966                18.9131

                     13                     14                     15
                     A"                     A"                     A'
 Frequencies --   1211.1828              2763.8424              2806.0378
 Red. masses --      1.9414                 1.0953                 1.1019
 Frc consts  --      1.6780                 4.9294                 5.1118
 IR Inten    --    159.6542               424.4776               635.1850

 - Thermochemistry -
 -------------------
 Temperature   298.150 Kelvin.  Pressure   1.00000 Atm.
 Atom     1 has atomic number  6 and mass  12.00000

 Molecular mass:    62.01565 amu.
 Principal axes and moments of inertia in atomic units:
                           1         2         3
     Eigenvalues --   165.03975 195.03026 347.00008
           X           -0.18634   0.00000   0.98248
           Y            0.98248   0.00000   0.18634
           Z           -0.00000   1.00000   0.00000
 This molecule is an asymmetric top.
 Rotational symmetry number  1.
 Rotational temperatures (Kelvin)      0.52481     0.44410     0.24961
 Rotational constants (GHZ):          10.93519     9.25365     5.20098
 Zero-point vibrational energy      96933.0 (Joules/Mol)
                                   23.16753 (Kcal/Mol)
 Warning -- explicit consideration of   3 degrees of freedom as
           vibrations may cause significant error
 Vibrational temperatures:    229.53   526.87   756.58   893.22   990.56
          (Kelvin)           1211.15  1303.97  1339.80  1502.72  1556.45
                             1571.03  1678.38  1742.62  3976.55  4037.26

 Zero-point correction=                           0.036920 (Hartree/Particle)
 Thermal correction to Energy=                    0.041482
 Thermal correction to Enthalpy=                  0.042426
 Thermal correction to Gibbs Free Energy=         0.008838
 Sum of electronic and zero-point Energies=           -189.601005
 Sum of electronic and thermal Energies=              -189.596443
 Sum of electronic and thermal Enthalpies=            -189.595499
 Sum of electronic and thermal Free Energies=         -189.629087

                     E (Thermal)             CV                S
                      KCal/Mol        Cal/Mol-Kelvin    Cal/Mol-Kelvin
 Total                   26.030             15.303             70.691
 Electronic               0.000              0.000              2.755
 Translational            0.889              2.981             38.294
 Rotational               0.889              2.981             23.928
 Vibrational             24.253              9.341              5.715
 Vibration     1          0.621              1.892              2.555
 Vibration     2          0.739              1.542              1.096
 Vibration     3          0.881              1.193              0.597

 Optimization completed.
    -- Stationary point found.
 Normal termination of Gaussian 09 at Tue Jul 19 11:09:01 2016.
