 Gaussian 09, Revision E.01,
 Gaussian 09:  EM64L-G09RevE.01 30-Nov-2015

 ---------------------------------------------
 #p b3lyp/6-311++G(3df,2p) freq symmetry=Loose
 ---------------------------------------------

 ---------
 b3lyp opt
 ---------
 Symbolic Z-matrix:
 Charge =  2 Multiplicity = 1

                         Standard orientation:
 ---------------------------------------------------------------------
 Center     Atomic      Atomic             Coordinates (Angstroms)
 Number     Number       Type             X           Y           Z
 ---------------------------------------------------------------------
      1          6           0        0.000005    1.450642    0.315025
      2          6           0        0.000000   -0.000000    0.597865
      3          6           0       -0.000005   -1.450642    0.315025
      4          6           0       -0.000012   -0.698702   -0.754043
      5          6           0        0.000012    0.698702   -0.754043
      6          1           0        0.000014    2.408694    0.840513
      7          1           0       -0.000014   -2.408694    0.840513
 ---------------------------------------------------------------------

 SCF Done:  E(RB3LYP) =  -190.615972277     A.U. after   10 cycles

 The electronic state is 1-A.
 Alpha  occ. eigenvalues --  -10.86661 -10.83544 -10.83492 -10.78851 -10.78848
 Alpha  occ. eigenvalues --   -1.59311  -1.38672  -1.20171  -1.07863  -1.02925
 Alpha  occ. eigenvalues --   -1.01657  -0.99793  -0.97498  -0.87287  -0.80957
 Alpha virt. eigenvalues --   -0.63583  -0.61483  -0.53120  -0.46643  -0.44443
 Alpha virt. eigenvalues --   -0.38229  -0.34129  -0.32751  -0.30859  -0.27909
 Alpha virt. eigenvalues --   -0.27825  -0.24715  -0.23645  -0.22663  -0.21707

 Mulliken charges:
               1
     1  C    0.388099
     2  C    0.169499
     3  C    0.388099
     4  C    0.137677
     5  C    0.137677
     6  H    0.389475
     7  H    0.389475
 Sum of Mulliken charges =   2.00000

 Dipole moment (field-independent basis, Debye):
    X=             -0.0000    Y=              0.0000    Z=              0.7792  Tot=              0.7792
 Quadrupole moment (field-independent basis, Debye-Ang):
   XX=            -23.3308   YY=              0.6366   ZZ=            -16.8353
   XY=              0.0002   XZ=             -0.0000   YZ=             -0.0000

  Exact polarizability:  21.256   0.000  52.628  -0.000  -0.000  31.809
 Approx polarizability:  32.539   0.000 100.730  -0.000  -0.000  72.108

                      1                      2                      3
                      B                      A                      A
 Frequencies --    382.0163               501.5972               587.0373
 Red. masses --      4.9764                11.7998                 4.6384
 Frc consts  --      0.4279                 1.7492                 0.9418
 IR Inten    --      5.5579                 0.0000                 2.0223

                      4                      5                      6
                      B                      B                      B
 Frequencies --    596.8364               675.7453               733.3844
 Red. masses --      8.0153                10.4876                 1.2795
 Frc consts  --      1.6822                 2.8216                 0.4055
 IR Inten    --      4.6965                34.8504                76.7863

                      7                      8                      9
                      A                      A                      A
 Frequencies --    787.6600               815.2376               990.3760
 Red. masses --      1.1806                 6.1990                 1.2672
 Frc consts  --      0.4316                 2.4274                 0.7323
 IR Inten    --      0.0000                43.0866                28.3522

                     10                     11                     12
                      B                      A                      B
 Frequencies --   1024.8694              1245.7200              1679.6500
 Red. masses --      1.2189                 9.1213                 6.1929
 Frc consts  --      0.7543                 8.3396                10.2939
 IR Inten    --      2.7478                 1.3252                82.3994

                     13                     14                     15
                      A                      B                      A
 Frequencies --   1756.7316              3145.7623              3146.6379
 Red. masses --      7.8916                 1.1398                 1.1289
 Frc consts  --     14.3491                 6.6457                 6.5855
 IR Inten    --     24.5121               531.8735                92.1263

 - Thermochemistry -
 -------------------
 Temperature   298.150 Kelvin.  Pressure   1.00000 Atm.
 Atom     1 has atomic number  6 and mass  12.00000

 Molecular mass:    62.01565 amu.
 Principal axes and moments of inertia in atomic units:
                           1         2         3
     Eigenvalues --    77.47831 263.95728 341.43559
           X            0.00001   0.00000   1.00000
           Y            1.00000   0.00000  -0.00001
           Z            0.00000   1.00000   0.00000
 This molecule is an asymmetric top.
 Rotational symmetry number  2.
 Rotational temperatures (Kelvin)      1.11791     0.32814     0.25368
 Rotational constants (GHZ):          23.29350     6.83725     5.28574
 Zero-point vibrational energy     108078.2 (Joules/Mol)
                                   25.83131 (Kcal/Mol)
 Warning -- explicit consideration of   4 degrees of freedom as
           vibrations may cause significant error
 Vibrational temperatures:    549.64   721.69   844.61   858.71   972.25
          (Kelvin)           1055.18  1133.27  1172.94  1424.93  1474.56
                             1792.31  2416.64  2527.54  4526.04  4527.30

 Zero-point correction=                           0.041165 (Hartree/Particle)
 Thermal correction to Energy=                    0.045345
 Thermal correction to Enthalpy=                  0.046289
 Thermal correction to Gibbs Free Energy=         0.015770
 Sum of electronic and zero-point Energies=           -190.574807
 Sum of electronic and thermal Energies=              -190.570627
 Sum of electronic and thermal Enthalpies=            -190.569683
 Sum of electronic and thermal Free Energies=         -190.600203

                     E (Thermal)             CV                S
                      KCal/Mol        Cal/Mol-Kelvin    Cal/Mol-Kelvin
 Total                   28.454             14.740             64.234
 Electronic               0.000              0.000              0.000
 Translational            0.889              2.981             38.294
 Rotational               0.889              2.981             22.084
 Vibrational             26.677              8.778              3.856
 Vibration     1          0.751              1.509              1.031
 Vibration     2          0.857              1.246              0.654
 Vibration     3          0.944              1.059              0.472
 Vibration     4          0.955              1.039              0.455

 Optimization completed.
    -- Stationary point found.
 Normal termination of Gaussian 09 at Tue Jul 19 06:12:09 2016.
