 Gaussian 09, Revision E.01,
 Gaussian 09:  EM64L-G09RevE.01 30-Nov-2015

 ---------------------------------------------
 #p b3lyp/6-311++G(3df,2p) freq symmetry=Loose
 ---------------------------------------------

 ---------
 b3lyp opt
 ---------
 Symbolic Z-matrix:
 Charge =  1 Multiplicity = 4

                         Standard orientation:
 ---------------------------------------------------------------------
 Center     Atomic      Atomic             Coordinates (Angstroms)
 Number     Number       Type             X           Y           Z
 ---------------------------------------------------------------------
      1          6           0       -0.561796   -0.049619   -0.056872
      2          6           0        0.479763    0.936052   -0.229718
      3          6           0        1.483882    0.047169    0.207539
      4          6           0        0.554092   -0.941579   -0.195264
      5          6           0       -1.914634   -0.105937    0.135460
      6          1           0       -2.739895    0.587095    0.238750
      7          1           0        2.492051    0.096392    0.594382
 ---------------------------------------------------------------------

 SCF Done:  E(UB3LYP) =  -191.112120716     A.U. after   19 cycles

 The electronic state is 4-A.
 Alpha  occ. eigenvalues --  -10.52116 -10.51681 -10.51671 -10.49585 -10.49431
 Alpha  occ. eigenvalues --   -1.22016  -1.04560  -0.89686  -0.86439  -0.78506
 Alpha  occ. eigenvalues --   -0.70793  -0.69281  -0.68981  -0.56678  -0.54258
 Alpha  occ. eigenvalues --   -0.54087  -0.46931
 Alpha virt. eigenvalues --   -0.33670  -0.30365  -0.20348  -0.14664  -0.13582
 Alpha virt. eigenvalues --   -0.11949  -0.10547  -0.10241  -0.09016  -0.08151
 Alpha virt. eigenvalues --   -0.06024  -0.05248  -0.04851  -0.04131  -0.02545

  Beta  occ. eigenvalues --  -10.51864 -10.51172 -10.49205 -10.48523 -10.48453
  Beta  occ. eigenvalues --   -1.20180  -0.99824  -0.87241  -0.83555  -0.76382
  Beta  occ. eigenvalues --   -0.69287  -0.67137  -0.64112  -0.51799
  Beta virt. eigenvalues --   -0.43100  -0.36837  -0.32641  -0.28884  -0.28041
  Beta virt. eigenvalues --   -0.16583  -0.13812  -0.13132  -0.10953  -0.09972
  Beta virt. eigenvalues --   -0.09409  -0.08366  -0.07164  -0.05273  -0.04692

 Mulliken charges and spin densities:
               1          2
     1  C    0.734273   0.110777
     2  C   -0.142040   0.591788
     3  C    0.198468   0.288418
     4  C   -0.150721   0.572042
     5  C   -0.239500   1.431351
     6  H    0.283071   0.005548
     7  H    0.316449   0.000076
 Sum of Mulliken charges =   1.00000   3.00000

 Dipole moment (field-independent basis, Debye):
    X=             -0.6541    Y=              0.5948    Z=              1.1957  Tot=              1.4870
 Quadrupole moment (field-independent basis, Debye-Ang):
   XX=             -6.2768   YY=            -27.6364   ZZ=            -25.5313
   XY=             -1.3504   XZ=              1.1971   YZ=              0.2857

  Exact polarizability:  69.968  -0.527  52.723   0.255  -0.281  28.669
 Approx polarizability: 115.659  -0.591 122.487   2.573  -1.401  43.158

                      1                      2                      3
                      A                      A                      A
 Frequencies --    243.0753               328.5305               572.7183
 Red. masses --      3.1106                 3.1151                 2.1166
 Frc consts  --      0.1083                 0.1981                 0.4090
 IR Inten    --      8.5825                11.5590                 6.6662

                      4                      5                      6
                      A                      A                      A
 Frequencies --    656.0023               673.1727               774.5716
 Red. masses --      2.6511                 6.8773                 1.6457
 Frc consts  --      0.6722                 1.8362                 0.5817
 IR Inten    --     21.9473                11.5361                29.9768

                      7                      8                      9
                      A                      A                      A
 Frequencies --    879.4061               907.5176               956.8963
 Red. masses --      2.3982                 2.0472                 3.7121
 Frc consts  --      1.0927                 0.9934                 2.0026
 IR Inten    --     19.3921                20.3036                38.4348

                     10                     11                     12
                      A                      A                      A
 Frequencies --    979.1795              1126.7087              1330.1332
 Red. masses --      5.5369                 1.4737                 7.1554
 Frc consts  --      3.1278                 1.1023                 7.4589
 IR Inten    --     18.4353                 0.1307                80.5348

                     13                     14                     15
                      A                      A                      A
 Frequencies --   1591.4685              3217.6823              3242.2763
 Red. masses --      9.6572                 1.0982                 1.1064
 Frc consts  --     14.4112                 6.6993                 6.8525
 IR Inten    --      2.2524                95.6643                70.2005

 - Thermochemistry -
 -------------------
 Temperature   298.150 Kelvin.  Pressure   1.00000 Atm.
 Atom     1 has atomic number  6 and mass  12.00000

 Molecular mass:    62.01565 amu.
 Principal axes and moments of inertia in atomic units:
                           1         2         3
     Eigenvalues --    85.45496 345.54632 414.86023
           X            0.99979  -0.01879   0.00872
           Y            0.01870   0.99978   0.00994
           Z           -0.00890  -0.00977   0.99991
 This molecule is an asymmetric top.
 Rotational symmetry number  1.
 Rotational temperatures (Kelvin)      1.01356     0.25066     0.20878
 Rotational constants (GHZ):          21.11921     5.22286     4.35024
 Zero-point vibrational energy     104549.7 (Joules/Mol)
                                   24.98797 (Kcal/Mol)
 Warning -- explicit consideration of   3 degrees of freedom as
           vibrations may cause significant error
 Vibrational temperatures:    349.73   472.68   824.01   943.84   968.54
          (Kelvin)           1114.43  1265.27  1305.71  1376.76  1408.82
                             1621.08  1913.76  2289.77  4629.52  4664.91

 Zero-point correction=                           0.039821 (Hartree/Particle)
 Thermal correction to Energy=                    0.044283
 Thermal correction to Enthalpy=                  0.045227
 Thermal correction to Gibbs Free Energy=         0.011904
 Sum of electronic and zero-point Energies=           -191.072300
 Sum of electronic and thermal Energies=              -191.067838
 Sum of electronic and thermal Enthalpies=            -191.066894
 Sum of electronic and thermal Free Energies=         -191.100217

                     E (Thermal)             CV                S
                      KCal/Mol        Cal/Mol-Kelvin    Cal/Mol-Kelvin
 Total                   27.788             15.228             70.134
 Electronic               0.000              0.000              2.755
 Translational            0.889              2.981             38.294
 Rotational               0.889              2.981             24.020
 Vibrational             26.010              9.266              5.066
 Vibration     1          0.659              1.774              1.780
 Vibration     2          0.712              1.618              1.267
 Vibration     3          0.929              1.090              0.499

 Normal termination of Gaussian 09 at Sun Jun 19 03:14:58 2016.
