 Gaussian 09, Revision E.01,
 Gaussian 09:  EM64L-G09RevE.01 30-Nov-2015

 ---------------------------------------------
 #p b3lyp/6-311++G(3df,2p) freq symmetry=Loose
 ---------------------------------------------

 ---------
 b3lyp opt
 ---------
 Symbolic Z-matrix:
 Charge =  2 Multiplicity = 1

                         Standard orientation:
 ---------------------------------------------------------------------
 Center     Atomic      Atomic             Coordinates (Angstroms)
 Number     Number       Type             X           Y           Z
 ---------------------------------------------------------------------
      1          6           0        0.770138    0.000000   -0.000055
      2          6           0       -0.339500   -0.826110    0.000118
      3          6           0       -1.563588    0.000000    0.000111
      4          6           0       -0.339500    0.826110   -0.000070
      5          6           0        2.202495   -0.000000   -0.000157
      6          1           0       -2.190199   -0.000104   -0.915909
      7          1           0       -2.190069    0.000104    0.916221
 ---------------------------------------------------------------------

 SCF Done:  E(RB3LYP) =  -190.525733552     A.U. after   12 cycles

 The electronic state is 1-A.
 Alpha  occ. eigenvalues --  -10.89159 -10.82300 -10.82288 -10.77224 -10.74070
 Alpha  occ. eigenvalues --   -1.51439  -1.30346  -1.19260  -1.09073  -0.98734
 Alpha  occ. eigenvalues --   -0.98163  -0.94415  -0.86454  -0.84778  -0.80725
 Alpha virt. eigenvalues --   -0.67544  -0.66767  -0.59630  -0.53860  -0.46334
 Alpha virt. eigenvalues --   -0.34349  -0.33155  -0.32608  -0.29249  -0.26660
 Alpha virt. eigenvalues --   -0.24906  -0.23911  -0.23566  -0.23124  -0.20829

 Mulliken charges:
               1
     1  C    0.079626
     2  C    1.204725
     3  C   -0.999162
     4  C    1.204726
     5  C   -0.119161
     6  H    0.314623
     7  H    0.314623
 Sum of Mulliken charges =   2.00000

 Dipole moment (field-independent basis, Debye):
    X=             -0.4549    Y=              0.0000    Z=              0.0000  Tot=              0.4549
 Quadrupole moment (field-independent basis, Debye-Ang):
   XX=              2.1621   YY=            -21.8462   ZZ=            -20.5739
   XY=             -0.0000   XZ=             -0.0016   YZ=              0.0001

  Exact polarizability:  68.004  -0.000  37.240  -0.003  -0.001  27.431
 Approx polarizability: 138.631   0.000  92.868  -0.007  -0.006  44.032

                      1                      2                      3
                      A                      A                      A
 Frequencies --    179.9078               190.4211               463.2779
 Red. masses --      8.4765                 4.9630                 2.3904
 Frc consts  --      0.1616                 0.1060                 0.3023
 IR Inten    --      0.0000                 1.5316                 9.3510

                      4                      5                      6
                      A                      A                      A
 Frequencies --    547.7911               674.3572               903.3599
 Red. masses --      9.3832                 9.7183                 2.0001
 Frc consts  --      1.6589                 2.6039                 0.9617
 IR Inten    --     55.9387                80.8547                 8.2124

                      7                      8                      9
                      A                      A                      A
 Frequencies --    926.8826               945.1394              1018.7419
 Red. masses --      1.1023                10.9927                 9.4827
 Frc consts  --      0.5580                 5.7856                 5.7984
 IR Inten    --      0.0000                59.0129                 1.3955

                     10                     11                     12
                      A                      A                      A
 Frequencies --   1084.5429              1164.1637              1279.7732
 Red. masses --      1.2396                 9.1483                 1.0596
 Frc consts  --      0.8591                 7.3049                 1.0225
 IR Inten    --     28.9794                10.2507               333.3501

                     13                     14                     15
                      A                      A                      A
 Frequencies --   1638.3842              2885.7338              2929.3596
 Red. masses --     10.6311                 1.0557                 1.1094
 Frc consts  --     16.8136                 5.1796                 5.6092
 IR Inten    --    742.2418               609.4461               247.0096

 - Thermochemistry -
 -------------------
 Temperature   298.150 Kelvin.  Pressure   1.00000 Atm.
 Atom     1 has atomic number  6 and mass  12.00000

 Molecular mass:    62.01565 amu.
 Principal axes and moments of inertia in atomic units:
                           1         2         3
     Eigenvalues --    64.53075 387.41929 439.86925
           X            1.00000  -0.00000   0.00007
           Y           -0.00000   1.00000   0.00011
           Z           -0.00007  -0.00011   1.00000
 This molecule is an asymmetric top.
 Rotational symmetry number  1.
 Rotational temperatures (Kelvin)      1.34221     0.22357     0.19691
 Rotational constants (GHZ):          27.96715     4.65837     4.10290
 Zero-point vibrational energy     100676.7 (Joules/Mol)
                                   24.06232 (Kcal/Mol)
 Warning -- explicit consideration of   4 degrees of freedom as
           vibrations may cause significant error
 Vibrational temperatures:    258.85   273.97   666.55   788.15   970.25
          (Kelvin)           1299.73  1333.58  1359.84  1465.74  1560.41
                             1674.97  1841.31  2357.27  4151.92  4214.69

 Zero-point correction=                           0.038346 (Hartree/Particle)
 Thermal correction to Energy=                    0.043157
 Thermal correction to Enthalpy=                  0.044101
 Thermal correction to Gibbs Free Energy=         0.011308
 Sum of electronic and zero-point Energies=           -190.487388
 Sum of electronic and thermal Energies=              -190.482577
 Sum of electronic and thermal Enthalpies=            -190.481632
 Sum of electronic and thermal Free Energies=         -190.514426

                     E (Thermal)             CV                S
                      KCal/Mol        Cal/Mol-Kelvin    Cal/Mol-Kelvin
 Total                   27.081             15.523             69.020
 Electronic               0.000              0.000              0.000
 Translational            0.889              2.981             38.294
 Rotational               0.889              2.981             23.912
 Vibrational             25.304              9.561              6.814
 Vibration     1          0.629              1.867              2.329
 Vibration     2          0.634              1.853              2.224
 Vibration     3          0.821              1.332              0.757
 Vibration     4          0.903              1.145              0.549

 Optimization completed.
    -- Stationary point found.
 Normal termination of Gaussian 09 at Tue Jul 19 05:45:41 2016.
