 Gaussian 09, Revision E.01,
 Gaussian 09:  EM64L-G09RevE.01 30-Nov-2015

 ------------------------------------------------------
 #p b3lyp/6-311++G(3df,2p) freq IOp(2/17=3) IOp(2/18=3)
 ------------------------------------------------------

 ---------
 b3lyp opt
 ---------
 Symbolic Z-matrix:
 Charge =  3 Multiplicity = 4

                         Standard orientation:
 ---------------------------------------------------------------------
 Center     Atomic      Atomic             Coordinates (Angstroms)
 Number     Number       Type             X           Y           Z
 ---------------------------------------------------------------------
      1          6           0       -0.000000    1.327859    0.358028
      2          6           0        0.000000    0.000000    0.836783
      3          6           0       -0.000000   -1.327859    0.358028
      4          6           0       -0.202109   -0.707217   -0.907786
      5          6           0        0.202109    0.707217   -0.907786
      6          1           0        0.061311    2.376366    0.788445
      7          1           0       -0.061311   -2.376366    0.788445
 ---------------------------------------------------------------------

 SCF Done:  E(UB3LYP) =  -189.657762289     A.U. after   14 cycles

 The electronic state is 4-B.
 Alpha  occ. eigenvalues --  -11.15254 -11.14548 -11.14515 -11.07076 -11.07074
 Alpha  occ. eigenvalues --   -1.78877  -1.60290  -1.49780  -1.34187  -1.32186
 Alpha  occ. eigenvalues --   -1.26580  -1.24083  -1.23718  -1.13649  -1.07741
 Alpha  occ. eigenvalues --   -1.06669
 Alpha virt. eigenvalues --   -0.94344  -0.88092  -0.79235  -0.77825  -0.63117
 Alpha virt. eigenvalues --   -0.58372  -0.55809  -0.52439  -0.49546  -0.47284
 Alpha virt. eigenvalues --   -0.45022  -0.43097  -0.42472  -0.42339  -0.39489

  Beta  occ. eigenvalues --  -11.14437 -11.12559 -11.12532 -11.06462 -11.06460
  Beta  occ. eigenvalues --   -1.76076  -1.57451  -1.45789  -1.31214  -1.28470
  Beta  occ. eigenvalues --   -1.23887  -1.22432  -1.17580
  Beta virt. eigenvalues --   -0.99468  -0.95094  -0.92605  -0.86790  -0.81233
  Beta virt. eigenvalues --   -0.72257  -0.71784  -0.61562  -0.56012  -0.53182
  Beta virt. eigenvalues --   -0.51426  -0.48626  -0.44951  -0.43882  -0.41898

 Mulliken charges and spin densities:
               1          2
     1  C    0.165855   0.372584
     2  C    0.736413   0.322462
     3  C    0.165855   0.372584
     4  C    0.544362   0.930827
     5  C    0.544362   0.930827
     6  H    0.421576   0.035359
     7  H    0.421576   0.035359
 Sum of Mulliken charges =   3.00000   3.00000

 Dipole moment (field-independent basis, Debye):
    X=             -0.0000    Y=              0.0000    Z=              0.6882  Tot=              0.6882
 Quadrupole moment (field-independent basis, Debye-Ang):
   XX=            -21.1707   YY=              9.2506   ZZ=             -8.1872
   XY=              1.2295   XZ=             -0.0000   YZ=             -0.0000

  Exact polarizability:  20.326   1.945  49.691   0.000   0.000  37.379
 Approx polarizability:  31.966   6.525  99.844  -0.000   0.000  95.829

                      1                      2                      3
                      B                      B                      A
 Frequencies --    320.4944               452.6498               515.5621
 Red. masses --      3.9840                 9.3195                 7.4735
 Frc consts  --      0.2411                 1.1250                 1.1704
 IR Inten    --     17.0743                 5.9769                 4.5609

                      4                      5                      6
                      A                      A                      B
 Frequencies --    572.9258               711.3191               723.0191
 Red. masses --      4.6893                 7.3644                 1.3222
 Frc consts  --      0.9069                 2.1954                 0.4072
 IR Inten    --     14.8943                 0.7858                92.6956

                      7                      8                      9
                      A                      A                      B
 Frequencies --    789.9728               880.0699               962.5537
 Red. masses --      1.6027                 3.9726                 2.1174
 Frc consts  --      0.5893                 1.8128                 1.1558
 IR Inten    --      2.4625                 8.6358                28.3658

                     10                     11                     12
                      A                      B                      A
 Frequencies --    988.3574               993.4159              1190.2542
 Red. masses --      1.2512                 2.1327                 6.6423
 Frc consts  --      0.7201                 1.2401                 5.5443
 IR Inten    --     80.8698                 5.0546                 1.2304

                     13                     14                     15
                      B                      B                      A
 Frequencies --   1280.4193              2648.6505              2701.7232
 Red. masses --      7.5092                 1.1016                 1.1107
 Frc consts  --      7.2535                 4.5534                 4.7768
 IR Inten    --     91.2652              1512.8460               221.1418

 - Thermochemistry -
 -------------------
 Temperature   298.150 Kelvin.  Pressure   1.00000 Atm.
 Atom     1 has atomic number  6 and mass  12.00000

 Molecular mass:    62.01565 amu.
 Principal axes and moments of inertia in atomic units:
                           1         2         3
     Eigenvalues --   118.71879 238.15894 351.34737
           X            0.05726  -0.00000   0.99836
           Y            0.99836  -0.00000  -0.05726
           Z            0.00000   1.00000   0.00000
 This molecule is an asymmetric top.
 Rotational symmetry number  2.
 Rotational temperatures (Kelvin)      0.72957     0.36368     0.24652
 Rotational constants (GHZ):          15.20182     7.57789     5.13663
 Zero-point vibrational energy      94094.6 (Joules/Mol)
                                   22.48915 (Kcal/Mol)
 Warning -- explicit consideration of   4 degrees of freedom as
           vibrations may cause significant error
 Vibrational temperatures:    461.12   651.26   741.78   824.31  1023.43
          (Kelvin)           1040.26  1136.59  1266.22  1384.90  1422.02
                             1429.30  1712.51  1842.24  3810.81  3887.17

 Zero-point correction=                           0.035839 (Hartree/Particle)
 Thermal correction to Energy=                    0.040216
 Thermal correction to Enthalpy=                  0.041161
 Thermal correction to Gibbs Free Energy=         0.008846
 Sum of electronic and zero-point Energies=           -189.621924
 Sum of electronic and thermal Energies=              -189.617546
 Sum of electronic and thermal Enthalpies=            -189.616602
 Sum of electronic and thermal Free Energies=         -189.648917

                     E (Thermal)             CV                S
                      KCal/Mol        Cal/Mol-Kelvin    Cal/Mol-Kelvin
 Total                   25.236             15.611             68.012
 Electronic               0.000              0.000              2.755
 Translational            0.889              2.981             38.294
 Rotational               0.889              2.981             22.434
 Vibrational             23.459              9.649              4.530
 Vibration     1          0.706              1.634              1.308
 Vibration     2          0.811              1.355              0.788
 Vibration     3          0.871              1.216              0.620
 Vibration     4          0.929              1.090              0.499

 Optimization completed.
    -- Stationary point found.
 Normal termination of Gaussian 09 at Thu Jan 31 05:14:44 2019.
