 Gaussian 09, Revision E.01,
 Gaussian 09:  EM64L-G09RevE.01 30-Nov-2015

 ---------------------------------------------
 #p b3lyp/6-311++G(3df,2p) freq symmetry=Loose
 ---------------------------------------------

 ---------
 b3lyp opt
 ---------
 Symbolic Z-matrix:
 Charge =  0 Multiplicity = 1

                         Standard orientation:
 ---------------------------------------------------------------------
 Center     Atomic      Atomic             Coordinates (Angstroms)
 Number     Number       Type             X           Y           Z
 ---------------------------------------------------------------------
      1          6           0       -0.117755    0.850481    0.000000
      2          6           0       -0.242604   -0.424661    0.684210
      3          6           0        0.556199   -1.490610   -0.000000
      4          6           0       -0.242604   -0.424661   -0.684210
      5          6           0       -0.242604    2.147855    0.000000
      6          1           0        1.645157   -1.485959    0.000000
      7          1           0        0.091045   -2.464459   -0.000000
 ---------------------------------------------------------------------

 SCF Done:  E(RB3LYP) =  -191.425898837     A.U. after   12 cycles

 The electronic state is 1-A'.
 Alpha  occ. eigenvalues --  -10.28162 -10.27126 -10.27055 -10.24303 -10.23714
 Alpha  occ. eigenvalues --   -1.01902  -0.79820  -0.70828  -0.56061  -0.53894
 Alpha  occ. eigenvalues --   -0.51801  -0.40197  -0.39596  -0.33080  -0.30309
 Alpha  occ. eigenvalues --   -0.26423
 Alpha virt. eigenvalues --   -0.16343  -0.08711  -0.01893   0.01133   0.01209
 Alpha virt. eigenvalues --    0.02701   0.03183   0.03382   0.06231   0.07025
 Alpha virt. eigenvalues --    0.07836   0.09067   0.09092   0.09474   0.11255

 Mulliken charges:
               1
     1  C    0.929234
     2  C   -0.254054
     3  C   -0.321531
     4  C   -0.254054
     5  C   -0.459288
     6  H    0.189545
     7  H    0.170149
 Sum of Mulliken charges =  -0.00000

 Dipole moment (field-independent basis, Debye):
    X=              1.1122    Y=             -4.2309    Z=             -0.0000  Tot=              4.3746
 Quadrupole moment (field-independent basis, Debye-Ang):
   XX=            -28.8653   YY=            -33.4922   ZZ=            -30.8595
   XY=             -0.6234   XZ=             -0.0000   YZ=              0.0000

  Exact polarizability:  41.398  -7.107  77.510  -0.000  -0.000  45.693
 Approx polarizability:  60.682 -10.621 125.784  -0.000   0.000  95.071

                      1                      2                      3
                     A"                     A'                     A"
 Frequencies --    166.4531               220.0193               359.3064
 Red. masses --      8.9812                 4.1920                10.2873
 Frc consts  --      0.1466                 0.1196                 0.7825
 IR Inten    --     12.0895                 1.8804               136.0572

                      4                      5                      6
                     A'                     A'                     A"
 Frequencies --    465.0873               760.6620               786.7266
 Red. masses --      7.5532                 7.9998                 3.0857
 Frc consts  --      0.9626                 2.7272                 1.1253
 IR Inten    --      0.5847                 5.6549                 0.0055

                      7                      8                      9
                     A"                     A'                     A"
 Frequencies --    941.4890              1075.5524              1110.6029
 Red. masses --      1.4511                 1.4171                 1.2509
 Frc consts  --      0.7578                 0.9659                 0.9091
 IR Inten    --      0.9110                 1.4259                 6.9311

                     10                     11                     12
                     A'                     A'                     A'
 Frequencies --   1216.3163              1365.4251              1525.5660
 Red. masses --      5.8438                 5.6541                 1.1970
 Frc consts  --      5.0937                 6.2108                 1.6413
 IR Inten    --     66.4788                 1.6191                 2.0502

                     13                     14                     15
                     A'                     A'                     A'
 Frequencies --   1815.0042              3070.4986              3215.8136
 Red. masses --     11.5840                 1.0633                 1.1074
 Frc consts  --     22.4836                 5.9064                 6.7474
 IR Inten    --     38.7316                42.4376                 0.1080

 - Thermochemistry -
 -------------------
 Temperature   298.150 Kelvin.  Pressure   1.00000 Atm.
 Atom     1 has atomic number  6 and mass  12.00000

 Molecular mass:    62.01565 amu.
 Principal axes and moments of inertia in atomic units:
                           1         2         3
     Eigenvalues --    59.91745 399.29769 419.62525
           X           -0.17663   0.00000   0.98428
           Y            0.98428   0.00000   0.17663
           Z           -0.00000   1.00000  -0.00000
 This molecule is an asymmetric top.
 Rotational symmetry number  1.
 Rotational temperatures (Kelvin)      1.44555     0.21692     0.20641
 Rotational constants (GHZ):          30.12046     4.51979     4.30084
 Zero-point vibrational energy     108229.3 (Joules/Mol)
                                   25.86742 (Kcal/Mol)
 Warning -- explicit consideration of   4 degrees of freedom as
           vibrations may cause significant error
 Vibrational temperatures:    239.49   316.56   516.96   669.16  1094.42
          (Kelvin)           1131.92  1354.59  1547.48  1597.91  1750.01
                             1964.54  2194.95  2611.38  4417.76  4626.83

 Zero-point correction=                           0.041222 (Hartree/Particle)
 Thermal correction to Energy=                    0.046103
 Thermal correction to Enthalpy=                  0.047047
 Thermal correction to Gibbs Free Energy=         0.014165
 Sum of electronic and zero-point Energies=           -191.384676
 Sum of electronic and thermal Energies=              -191.379796
 Sum of electronic and thermal Enthalpies=            -191.378852
 Sum of electronic and thermal Free Energies=         -191.411734

                     E (Thermal)             CV                S
                      KCal/Mol        Cal/Mol-Kelvin    Cal/Mol-Kelvin
 Total                   28.930             15.355             69.206
 Electronic               0.000              0.000              0.000
 Translational            0.889              2.981             38.294
 Rotational               0.889              2.981             23.822
 Vibrational             27.153              9.393              7.091
 Vibration     1          0.624              1.884              2.475
 Vibration     2          0.647              1.811              1.959
 Vibration     3          0.734              1.556              1.125
 Vibration     4          0.823              1.328              0.751

 Optimization completed.
    -- Stationary point found.
 Normal termination of Gaussian 09 at Tue Jul 19 04:39:45 2016.
