 Gaussian 09, Revision E.01,
 Gaussian 09:  EM64L-G09RevE.01 30-Nov-2015

 ------------------------------------------------------
 #p b3lyp/6-311++G(3df,2p) freq IOp(2/17=3) IOp(2/18=3)
 ------------------------------------------------------

 ---------
 b3lyp opt
 ---------
 Symbolic Z-matrix:
 Charge =  1 Multiplicity = 4

                         Standard orientation:
 ---------------------------------------------------------------------
 Center     Atomic      Atomic             Coordinates (Angstroms)
 Number     Number       Type             X           Y           Z
 ---------------------------------------------------------------------
      1          6           0       -0.000000   -0.000000    2.558272
      2          6           0        0.000000    0.000000    1.289319
      3          6           0        0.000000    0.000000    0.000000
      4          6           0        0.000000    0.000000   -1.289319
      5          6           0        0.000000   -0.000000   -2.558272
      6          1           0       -0.000000   -0.000000    3.629155
      7          1           0        0.000000   -0.000000   -3.629155
 ---------------------------------------------------------------------

 SCF Done:  E(UB3LYP) =  -191.203223555     A.U. after   12 cycles

 Unable to determine electronic state:  an orbital has unidentified symmetry.
 Alpha  occ. eigenvalues --  -10.47940 -10.47937 -10.47251 -10.47249 -10.45278
 Alpha  occ. eigenvalues --   -1.08188  -1.04216  -0.97134  -0.87312  -0.77120
 Alpha  occ. eigenvalues --   -0.76194  -0.64259  -0.62874  -0.57970  -0.56047
 Alpha  occ. eigenvalues --   -0.45883  -0.44997
 Alpha virt. eigenvalues --   -0.25617  -0.24001  -0.14537  -0.12510  -0.12384
 Alpha virt. eigenvalues --   -0.10214  -0.09885  -0.09480  -0.07907  -0.07354
 Alpha virt. eigenvalues --   -0.05978  -0.05768  -0.05756  -0.02152  -0.01661

  Beta  occ. eigenvalues --  -10.47986 -10.47983 -10.45517 -10.45514 -10.44020
  Beta  occ. eigenvalues --   -1.05153  -1.00705  -0.92549  -0.85115  -0.75426
  Beta  occ. eigenvalues --   -0.74761  -0.59984  -0.57885  -0.52802
  Beta virt. eigenvalues --   -0.45969  -0.33660  -0.32527  -0.20764  -0.19367
  Beta virt. eigenvalues --   -0.14257  -0.11904  -0.11376  -0.09299  -0.09163
  Beta virt. eigenvalues --   -0.09038  -0.04990  -0.04959  -0.04952  -0.04786

 Mulliken charges and spin densities:
               1          2
     1  C    0.394541   0.959575
     2  C    0.111063   0.083386
     3  C   -0.782328   0.975597
     4  C    0.111063   0.083386
     5  C    0.394541   0.959575
     6  H    0.385560  -0.030759
     7  H    0.385560  -0.030759
 Sum of Mulliken charges =   1.00000   3.00000

 Dipole moment (field-independent basis, Debye):
    X=              0.0000    Y=             -0.0000    Z=             -0.0000  Tot=              0.0000
 Quadrupole moment (field-independent basis, Debye-Ang):
   XX=            -25.8115   YY=            -27.5218   ZZ=             13.7772
   XY=              0.0000   XZ=             -0.0000   YZ=             -0.0000

  Exact polarizability:  27.717   0.000  28.617  -0.000   0.000 141.968
 Approx polarizability:  38.468  -0.000  38.577  -0.000  -0.000 324.865

                      1                      2                      3
                     ?A                     ?A                     ?B
 Frequencies --    112.1391               132.5578               386.9964
 Red. masses --      5.1667                 4.9397                11.2511
 Frc consts  --      0.0383                 0.0511                 0.9928
 IR Inten    --     10.5051                10.7305                 0.0000

                      4                      5                      6
                     ?B                     ?A                     ?A
 Frequencies --    405.1177               418.0206               447.0651
 Red. masses --      1.4935                 1.2040                 1.3340
 Frc consts  --      0.1444                 0.1240                 0.1571
 IR Inten    --      0.0000                42.9991                82.1815

                      7                      8                      9
                     ?B                     ?B                     ?A
 Frequencies --    449.7000               464.3254               500.7899
 Red. masses --      1.1380                 3.3550                 5.6404
 Frc consts  --      0.1356                 0.4262                 0.8334
 IR Inten    --      0.0000                 0.0000                 5.5456

                     10                     11                     12
                     ?A                     SGG                    SGU
 Frequencies --    536.0926               779.9508              1371.0050
 Red. masses --      9.5044                 7.1425                 6.9414
 Frc consts  --      1.6094                 2.5600                 7.6873
 IR Inten    --     13.2351                 0.0000               165.0385

                     13                     14                     15
                     SGG                    SGU                    SGU
 Frequencies --   1871.1129              1888.8851              3350.6760
 Red. masses --      7.6111                11.5658                 1.1125
 Frc consts  --     15.6999                24.3130                 7.3593
 IR Inten    --      0.0000               338.4129               561.2124

                     16
                     SGG
 Frequencies --   3363.6344
 Red. masses --      1.1267
 Frc consts  --      7.5110
 IR Inten    --      0.0000

 - Thermochemistry -
 -------------------
 Temperature   298.150 Kelvin.  Pressure   1.00000 Atm.
 Atom     1 has atomic number  6 and mass  12.00000

 Molecular mass:    62.01565 amu.
 Principal axes and moments of inertia in atomic units:
                           1         2         3
     Eigenvalues --     0.00000 798.19733 798.19733
           X           -0.00000  -0.58478   0.81119
           Y           -0.00000   0.81119   0.58478
           Z            1.00000  -0.00000   0.00000
 This molecule is a prolate symmetric top.
 Rotational symmetry number  2.
 Warning -- assumption of classical behavior for rotation
           may cause significant error
 Rotational temperature (Kelvin)      0.10851
 Rotational constant (GHZ):           2.261021
 Zero-point vibrational energy      98560.7 (Joules/Mol)
                                   23.55658 (Kcal/Mol)
 Warning -- explicit consideration of  10 degrees of freedom as
           vibrations may cause significant error
 Vibrational temperatures:    161.34   190.72   556.80   582.87   601.44
          (Kelvin)            643.23   647.02   668.06   720.52   771.32
                             1122.17  1972.57  2692.11  2717.68  4820.87
                             4839.51

 Zero-point correction=                           0.037540 (Hartree/Particle)
 Thermal correction to Energy=                    0.043504
 Thermal correction to Enthalpy=                  0.044448
 Thermal correction to Gibbs Free Energy=         0.011083
 Sum of electronic and zero-point Energies=           -191.165684
 Sum of electronic and thermal Energies=              -191.159719
 Sum of electronic and thermal Enthalpies=            -191.158775
 Sum of electronic and thermal Free Energies=         -191.192140

                     E (Thermal)             CV                S
                      KCal/Mol        Cal/Mol-Kelvin    Cal/Mol-Kelvin
 Total                   27.299             20.532             70.223
 Electronic               0.000              0.000              2.755
 Translational            0.889              2.981             38.294
 Rotational               0.592              1.987             16.345
 Vibrational             25.818             15.564             12.829
 Vibration     1          0.607              1.939              3.232
 Vibration     2          0.613              1.921              2.909
 Vibration     3          0.755              1.498              1.012
 Vibration     4          0.770              1.459              0.944
 Vibration     5          0.781              1.431              0.899
 Vibration     6          0.806              1.367              0.805
 Vibration     7          0.809              1.362              0.797
 Vibration     8          0.822              1.329              0.754
 Vibration     9          0.856              1.248              0.656
 Vibration    10          0.891              1.170              0.574

 Optimization completed.
    -- Stationary point found.
 Normal termination of Gaussian 09 at Thu Jan 31 04:51:58 2019.
