 Gaussian 09, Revision E.01,
 Gaussian 09:  EM64L-G09RevE.01 30-Nov-2015

 ---------------------------------------------
 #p b3lyp/6-311++G(3df,2p) freq symmetry=Loose
 ---------------------------------------------

 ---------
 b3lyp opt
 ---------
 Symbolic Z-matrix:
 Charge =  0 Multiplicity = 3

                         Standard orientation:
 ---------------------------------------------------------------------
 Center     Atomic      Atomic             Coordinates (Angstroms)
 Number     Number       Type             X           Y           Z
 ---------------------------------------------------------------------
      1          6           0        0.000000    1.290589    0.344434
      2          6           0        0.000000    0.000000    0.841671
      3          6           0       -0.000000   -1.290589    0.344434
      4          6           0       -0.000000   -0.736740   -0.897491
      5          6           0        0.000000    0.736740   -0.897491
      6          1           0        0.000000    2.264162    0.793330
      7          1           0       -0.000000   -2.264162    0.793330
 ---------------------------------------------------------------------

 SCF Done:  E(UB3LYP) =  -191.484399510     A.U. after   14 cycles

 The electronic state is 3-A2.
 Alpha  occ. eigenvalues --  -10.27409 -10.24043 -10.24012 -10.21804 -10.21801
 Alpha  occ. eigenvalues --   -0.96062  -0.78830  -0.67765  -0.57173  -0.53341
 Alpha  occ. eigenvalues --   -0.48772  -0.48159  -0.44142  -0.32555  -0.27515
 Alpha  occ. eigenvalues --   -0.24265  -0.23986
 Alpha virt. eigenvalues --   -0.07636  -0.00249   0.01104   0.01131   0.01908
 Alpha virt. eigenvalues --    0.05012   0.05601   0.05723   0.05724   0.07957
 Alpha virt. eigenvalues --    0.08920   0.09721   0.10599   0.11161   0.11734

  Beta  occ. eigenvalues --  -10.26983 -10.22428 -10.22399 -10.21778 -10.21775
  Beta  occ. eigenvalues --   -0.94532  -0.77856  -0.64538  -0.56540  -0.51881
  Beta  occ. eigenvalues --   -0.47615  -0.45987  -0.40587  -0.28401  -0.26452
  Beta virt. eigenvalues --   -0.12887  -0.09575  -0.06299  -0.00244   0.01152
  Beta virt. eigenvalues --    0.02674   0.05242   0.05852   0.06018   0.06309
  Beta virt. eigenvalues --    0.06389   0.08112   0.08967   0.10319   0.10621

 Mulliken charges and spin densities:
               1          2
     1  C   -0.044455  -0.095716
     2  C    0.182287   0.194689
     3  C   -0.044455  -0.095716
     4  C   -0.267114   1.000796
     5  C   -0.267114   1.000796
     6  H    0.220426  -0.002425
     7  H    0.220426  -0.002425
 Sum of Mulliken charges =  -0.00000   2.00000

 Dipole moment (field-independent basis, Debye):
    X=             -0.0000    Y=             -0.0000    Z=              1.8307  Tot=              1.8307
 Quadrupole moment (field-independent basis, Debye-Ang):
   XX=            -30.8568   YY=            -24.8771   ZZ=            -30.1665
   XY=              0.0000   XZ=              0.0000   YZ=              0.0000

  Exact polarizability:  35.713   0.000  67.909   0.000  -0.000  58.092
 Approx polarizability:  51.288   0.000 117.903  -0.000   0.000 128.838

                      1                      2                      3
                     B2                     B1                     A1
 Frequencies --    323.0293               361.2730               505.4071
 Red. masses --      9.1653                 8.3044                 8.5550
 Frc consts  --      0.5635                 0.6386                 1.2875
 IR Inten    --     42.9803                 3.4383                29.4819

                      4                      5                      6
                     A2                     B1                     A2
 Frequencies --    627.8110               682.8901               750.1837
 Red. masses --     11.0602                 1.1272                 1.1949
 Frc consts  --      2.5685                 0.3097                 0.3962
 IR Inten    --      0.0000                57.1412                 0.0000

                      7                      8                      9
                     A1                     B2                     A1
 Frequencies --    902.6562              1011.1537              1065.0235
 Red. masses --      2.6176                 7.5094                 7.0719
 Frc consts  --      1.2566                 4.5237                 4.7261
 IR Inten    --      4.5003                11.7153                 1.8646

                     10                     11                     12
                     B2                     A1                     A1
 Frequencies --   1141.8730              1187.7796              1421.8508
 Red. masses --      1.2455                 1.6125                 8.2109
 Frc consts  --      0.9568                 1.3403                 9.7802
 IR Inten    --      0.0244                11.8916                 9.0000

                     13                     14                     15
                     B2                     B2                     A1
 Frequencies --   1579.4019              3290.8495              3294.4213
 Red. masses --      7.0601                 1.1030                 1.1038
 Frc consts  --     10.3764                 7.0379                 7.0582
 IR Inten    --      7.8107                 5.4274                 0.1467

 - Thermochemistry -
 -------------------
 Temperature   298.150 Kelvin.  Pressure   1.00000 Atm.
 Atom     1 has atomic number  6 and mass  12.00000

 Molecular mass:    62.01565 amu.
 Principal axes and moments of inertia in atomic units:
                           1         2         3
     Eigenvalues --   113.94758 226.17277 340.12035
           X            0.00000  -0.00000   1.00000
           Y            1.00000   0.00000  -0.00000
           Z           -0.00000   1.00000   0.00000
 This molecule is an asymmetric top.
 Rotational symmetry number  2.
 Rotational temperatures (Kelvin)      0.76012     0.38295     0.25466
 Rotational constants (GHZ):          15.83835     7.97948     5.30618
 Zero-point vibrational energy     108534.8 (Joules/Mol)
                                   25.94044 (Kcal/Mol)
 Warning -- explicit consideration of   3 degrees of freedom as
           vibrations may cause significant error
 Vibrational temperatures:    464.77   519.79   727.17   903.28   982.53
          (Kelvin)           1079.35  1298.72  1454.82  1532.33  1642.90
                             1708.95  2045.72  2272.40  4734.79  4739.93

 Zero-point correction=                           0.041339 (Hartree/Particle)
 Thermal correction to Energy=                    0.045658
 Thermal correction to Enthalpy=                  0.046602
 Thermal correction to Gibbs Free Energy=         0.014651
 Sum of electronic and zero-point Energies=           -191.443061
 Sum of electronic and thermal Energies=              -191.438741
 Sum of electronic and thermal Enthalpies=            -191.437797
 Sum of electronic and thermal Free Energies=         -191.469748

                     E (Thermal)             CV                S
                      KCal/Mol        Cal/Mol-Kelvin    Cal/Mol-Kelvin
 Total                   28.651             14.740             67.246
 Electronic               0.000              0.000              2.183
 Translational            0.889              2.981             38.294
 Rotational               0.889              2.981             22.310
 Vibrational             26.873              8.778              4.460
 Vibration     1          0.708              1.629              1.295
 Vibration     2          0.735              1.552              1.117
 Vibration     3          0.861              1.238              0.645

 Normal termination of Gaussian 09 at Tue Jul 19 07:54:28 2016.
