 Gaussian 09, Revision E.01,
 Gaussian 09:  EM64L-G09RevE.01 30-Nov-2015

 ---------------------------------------------
 #p b3lyp/6-311++G(3df,2p) freq symmetry=Loose
 ---------------------------------------------

 ---------
 b3lyp opt
 ---------
 Symbolic Z-matrix:
 Charge =  3 Multiplicity = 2

                         Standard orientation:
 ---------------------------------------------------------------------
 Center     Atomic      Atomic             Coordinates (Angstroms)
 Number     Number       Type             X           Y           Z
 ---------------------------------------------------------------------
      1          6           0       -1.003782   -0.734225    0.000101
      2          6           0       -1.003782    0.734225   -0.000021
      3          6           0        0.527611    0.812414   -0.000089
      4          6           0        1.551147    0.000000   -0.000062
      5          6           0        0.527611   -0.812414    0.000047
      6          1           0       -1.796421   -1.528064    0.000199
      7          1           0       -1.796421    1.528064   -0.000056
 ---------------------------------------------------------------------

 SCF Done:  E(UB3LYP) =  -189.688249986     A.U. after   17 cycles

 The electronic state is 2-A.
 Alpha  occ. eigenvalues --  -11.15033 -11.15024 -11.11337 -11.08942 -11.08908
 Alpha  occ. eigenvalues --   -1.80978  -1.62026  -1.45654  -1.33898  -1.32965
 Alpha  occ. eigenvalues --   -1.24213  -1.24018  -1.20232  -1.15556  -1.08448
 Alpha virt. eigenvalues --   -0.94939  -0.94448  -0.80108  -0.77629  -0.75519
 Alpha virt. eigenvalues --   -0.68302  -0.57912  -0.54037  -0.53053  -0.51434
 Alpha virt. eigenvalues --   -0.45635  -0.44178  -0.44024  -0.41041  -0.40712

  Beta  occ. eigenvalues --  -11.15319 -11.15309 -11.10400 -11.08237 -11.08208
  Beta  occ. eigenvalues --   -1.80355  -1.59641  -1.45270  -1.33363  -1.31864
  Beta  occ. eigenvalues --   -1.24134  -1.21667  -1.19909  -1.14084
  Beta virt. eigenvalues --   -0.96658  -0.93700  -0.93272  -0.80869  -0.73130
  Beta virt. eigenvalues --   -0.72084  -0.67356  -0.57422  -0.53540  -0.51824
  Beta virt. eigenvalues --   -0.51249  -0.45208  -0.43948  -0.43728  -0.40770

 Mulliken charges and spin densities:
               1          2
     1  C    0.249182   0.441201
     2  C    0.249182   0.441201
     3  C    0.476987  -0.165855
     4  C    0.694927   0.472784
     5  C    0.476987  -0.165855
     6  H    0.426367  -0.011738
     7  H    0.426367  -0.011738
 Sum of Mulliken charges =   3.00000   1.00000

 Dipole moment (field-independent basis, Debye):
    X=             -1.6670    Y=             -0.0000    Z=              0.0001  Tot=              1.6670
 Quadrupole moment (field-independent basis, Debye-Ang):
   XX=              3.7711   YY=             -5.3668   ZZ=            -20.5367
   XY=              0.0000   XZ=             -0.0010   YZ=             -0.0013

  Exact polarizability:  44.895   0.000  36.226  -0.001  -0.001  18.950
 Approx polarizability:  97.876  -0.000  76.161  -0.003  -0.004  29.294

                      1                      2                      3
                      A                      A                      A
 Frequencies --    323.9076               387.6673               577.3034
 Red. masses --      2.5139                 6.5003                10.2524
 Frc consts  --      0.1554                 0.5756                 2.0132
 IR Inten    --      0.0000                 0.9799                14.9576

                      4                      5                      6
                      A                      A                      A
 Frequencies --    636.8071               647.8040               775.3801
 Red. masses --     10.4917                 1.2550                 5.2153
 Frc consts  --      2.5067                 0.3103                 1.8474
 IR Inten    --      1.5275                49.1556                18.9723

                      7                      8                      9
                      A                      A                      A
 Frequencies --    850.8131               892.1727               986.4556
 Red. masses --      1.8181                 7.9579                 1.3633
 Frc consts  --      0.7754                 3.7320                 0.7816
 IR Inten    --      0.0000                12.7184                 0.7285

                     10                     11                     12
                      A                      A                      A
 Frequencies --   1134.0867              1205.3805              1518.3993
 Red. masses --      1.2329                 2.9209                10.8233
 Frc consts  --      0.9343                 2.5004                14.7022
 IR Inten    --     49.4052               139.2746                 2.1610

                     13                     14                     15
                      A                      A                      A
 Frequencies --   1609.5239              2825.5998              2853.7771
 Red. masses --     10.7366                 1.1039                 1.1133
 Frc consts  --     16.3874                 5.1926                 5.3419
 IR Inten    --     35.4761               532.5954               505.8762

 - Thermochemistry -
 -------------------
 Temperature   298.150 Kelvin.  Pressure   1.00000 Atm.
 Atom     1 has atomic number  6 and mass  12.00000

 Molecular mass:    62.01565 amu.
 Principal axes and moments of inertia in atomic units:
                           1         2         3
     Eigenvalues --   119.57707 235.81658 355.39365
           X            1.00000  -0.00000   0.00004
           Y           -0.00000   1.00000   0.00008
           Z           -0.00004  -0.00008   1.00000
 This molecule is an asymmetric top.
 Rotational symmetry number  1.
 Rotational temperatures (Kelvin)      0.72433     0.36729     0.24371
 Rotational constants (GHZ):          15.09270     7.65316     5.07815
 Zero-point vibrational energy     103028.8 (Joules/Mol)
                                   24.62449 (Kcal/Mol)
 Warning -- explicit consideration of   3 degrees of freedom as
           vibrations may cause significant error
 Vibrational temperatures:    466.03   557.77   830.61   916.22   932.04
          (Kelvin)           1115.60  1224.13  1283.64  1419.29  1631.70
                             1734.27  2184.64  2315.74  4065.40  4105.94

 Zero-point correction=                           0.039242 (Hartree/Particle)
 Thermal correction to Energy=                    0.043527
 Thermal correction to Enthalpy=                  0.044471
 Thermal correction to Gibbs Free Energy=         0.012257
 Sum of electronic and zero-point Energies=           -189.649008
 Sum of electronic and thermal Energies=              -189.644723
 Sum of electronic and thermal Enthalpies=            -189.643779
 Sum of electronic and thermal Free Energies=         -189.675993

                     E (Thermal)             CV                S
                      KCal/Mol        Cal/Mol-Kelvin    Cal/Mol-Kelvin
 Total                   27.314             14.795             67.800
 Electronic               0.000              0.000              1.377
 Translational            0.889              2.981             38.294
 Rotational               0.889              2.981             23.820
 Vibrational             25.536              8.833              4.309
 Vibration     1          0.708              1.628              1.290
 Vibration     2          0.756              1.497              1.009
 Vibration     3          0.934              1.080              0.490

 Optimization completed.
    -- Stationary point found.
 Normal termination of Gaussian 09 at Tue Jul 19 08:40:59 2016.
