 Gaussian 09, Revision E.01,
 Gaussian 09:  EM64L-G09RevE.01 30-Nov-2015

 ---------------------------------------------
 #p b3lyp/6-311++G(3df,2p) freq symmetry=Loose
 ---------------------------------------------

 ---------
 b3lyp opt
 ---------
 Symbolic Z-matrix:
 Charge =  2 Multiplicity = 3

                         Standard orientation:
 ---------------------------------------------------------------------
 Center     Atomic      Atomic             Coordinates (Angstroms)
 Number     Number       Type             X           Y           Z
 ---------------------------------------------------------------------
      1          6           0       -0.587011   -0.052630    0.329285
      2          6           0        0.643942    0.776300    0.082064
      3          6           0        1.717685    0.046996   -0.233988
      4          6           0        0.678218   -0.768057   -0.032591
      5          6           0       -1.835479   -0.055342   -0.290997
      6          1           0       -2.777784    0.464493   -0.537338
      7          1           0       -0.926346   -0.148089    1.414699
 ---------------------------------------------------------------------

 SCF Done:  E(UB3LYP) =  -190.493131885     A.U. after   18 cycles

 The electronic state is 3-A.
 Alpha  occ. eigenvalues --  -10.84669 -10.79775 -10.79035 -10.78921 -10.77286
 Alpha  occ. eigenvalues --   -1.51538  -1.33859  -1.18135  -1.06508  -1.05460
 Alpha  occ. eigenvalues --   -1.01233  -0.94814  -0.87071  -0.86263  -0.80135
 Alpha  occ. eigenvalues --   -0.77217
 Alpha virt. eigenvalues --   -0.65709  -0.56721  -0.52579  -0.50034  -0.36946
 Alpha virt. eigenvalues --   -0.34291  -0.30538  -0.30059  -0.27745  -0.25007
 Alpha virt. eigenvalues --   -0.24288  -0.22860  -0.22443  -0.21970  -0.20498

  Beta  occ. eigenvalues --  -10.83042 -10.79739 -10.78397 -10.78358 -10.75481
  Beta  occ. eigenvalues --   -1.51070  -1.31887  -1.15364  -1.04655  -1.03761
  Beta  occ. eigenvalues --   -1.00770  -0.92630  -0.85629  -0.80198
  Beta virt. eigenvalues --   -0.64480  -0.63737  -0.61864  -0.55655  -0.48751
  Beta virt. eigenvalues --   -0.47105  -0.36349  -0.33398  -0.29959  -0.29474
  Beta virt. eigenvalues --   -0.27287  -0.24435  -0.23547  -0.22250  -0.21602

 Mulliken charges and spin densities:
               1          2
     1  C    0.533830  -0.074234
     2  C    0.352542   0.201203
     3  C    0.085969   0.805695
     4  C    0.378495   0.177749
     5  C   -0.050556   0.904015
     6  H    0.385618  -0.003543
     7  H    0.314102  -0.010885
 Sum of Mulliken charges =   2.00000   2.00000

 Dipole moment (field-independent basis, Debye):
    X=             -4.8524    Y=              0.3832    Z=              0.2399  Tot=              4.8734
 Quadrupole moment (field-independent basis, Debye-Ang):
   XX=              3.8042   YY=            -22.2935   ZZ=            -18.7644
   XY=             -1.4724   XZ=              0.8922   YZ=             -0.7552

  Exact polarizability:  57.838   0.141  33.117   0.063   0.177  27.701
 Approx polarizability: 101.865   1.333  74.397  -0.545   2.097  45.840

                      1                      2                      3
                      A                      A                      A
 Frequencies --    216.8885               345.5575               458.0830
 Red. masses --      3.9262                 1.9545                 4.0275
 Frc consts  --      0.1088                 0.1375                 0.4979
 IR Inten    --      8.0755                29.1351                 4.2973

                      4                      5                      6
                      A                      A                      A
 Frequencies --    517.6281               639.4721               658.2141
 Red. masses --      2.4898                 5.3670                 8.0847
 Frc consts  --      0.3930                 1.2931                 2.0637
 IR Inten    --     21.7156                40.1832                26.4094

                      7                      8                      9
                      A                      A                      A
 Frequencies --    771.9373               887.5410               920.9472
 Red. masses --      1.6938                 2.8668                 1.2340
 Frc consts  --      0.5947                 1.3305                 0.6166
 IR Inten    --     15.8234                18.0753                21.3919

                     10                     11                     12
                      A                      A                      A
 Frequencies --   1062.6990              1267.5056              1337.7890
 Red. masses --      1.6657                11.4009                 4.2769
 Frc consts  --      1.1083                10.7917                 4.5098
 IR Inten    --      8.4879                 3.9178                30.6483

                     13                     14                     15
                      A                      A                      A
 Frequencies --   1684.5783              2640.4607              3031.2185
 Red. masses --     11.5518                 1.0734                 1.1036
 Frc consts  --     19.3145                 4.4094                 5.9746
 IR Inten    --     60.3563               282.3025               329.1899

 - Thermochemistry -
 -------------------
 Temperature   298.150 Kelvin.  Pressure   1.00000 Atm.
 Atom     1 has atomic number  6 and mass  12.00000

 Molecular mass:    62.01565 amu.
 Principal axes and moments of inertia in atomic units:
                           1         2         3
     Eigenvalues --    71.39469 372.26531 405.51085
           X            0.99990  -0.01371   0.00198
           Y            0.01379   0.99872  -0.04868
           Z           -0.00131   0.04870   0.99881
 This molecule is an asymmetric top.
 Rotational symmetry number  1.
 Rotational temperatures (Kelvin)      1.21317     0.23267     0.21359
 Rotational constants (GHZ):          25.27837     4.84800     4.45054
 Zero-point vibrational energy      98336.1 (Joules/Mol)
                                   23.50290 (Kcal/Mol)
 Warning -- explicit consideration of   4 degrees of freedom as
           vibrations may cause significant error
 Vibrational temperatures:    312.05   497.18   659.08   744.75   920.06
          (Kelvin)            947.02  1110.64  1276.97  1325.04  1528.98
                             1823.66  1924.78  2423.73  3799.03  4361.24

 Zero-point correction=                           0.037454 (Hartree/Particle)
 Thermal correction to Energy=                    0.042173
 Thermal correction to Enthalpy=                  0.043117
 Thermal correction to Gibbs Free Energy=         0.009709
 Sum of electronic and zero-point Energies=           -190.455678
 Sum of electronic and thermal Energies=              -190.450959
 Sum of electronic and thermal Enthalpies=            -190.450014
 Sum of electronic and thermal Free Energies=         -190.483423

                     E (Thermal)             CV                S
                      KCal/Mol        Cal/Mol-Kelvin    Cal/Mol-Kelvin
 Total                   26.464             16.112             70.313
 Electronic               0.000              0.000              2.183
 Translational            0.889              2.981             38.294
 Rotational               0.889              2.981             23.892
 Vibrational             24.687             10.150              5.944
 Vibration     1          0.646              1.815              1.985
 Vibration     2          0.724              1.584              1.186
 Vibration     3          0.816              1.343              0.772
 Vibration     4          0.873              1.211              0.615

 Normal termination of Gaussian 09 at Sun Jun 19 04:13:28 2016.
