 Gaussian 09, Revision E.01,
 Gaussian 09:  EM64L-G09RevE.01 30-Nov-2015

 ------------------------------------------------------
 #p b3lyp/6-311++G(3df,2p) freq IOp(2/17=3) IOp(2/18=3)
 ------------------------------------------------------

 ---------
 b3lyp opt
 ---------
 Symbolic Z-matrix:
 Charge =  0 Multiplicity = 1

                         Standard orientation:
 ---------------------------------------------------------------------
 Center     Atomic      Atomic             Coordinates (Angstroms)
 Number     Number       Type             X           Y           Z
 ---------------------------------------------------------------------
      1          6           0        0.075604    1.041574    0.001255
      2          6           0        0.000500    0.001199   -1.044541
      3          6           0       -0.939890   -0.455038   -0.000879
      4          6           0       -0.000263   -0.001262    1.044541
      5          6           0        0.863734   -0.586330   -0.000376
      6          1           0        0.001714    0.002065   -2.116918
      7          1           0        0.000169   -0.002923    2.116917
 ---------------------------------------------------------------------

 SCF Done:  E(RB3LYP) =  -191.477406496     A.U. after   11 cycles

 The electronic state is 1-A.
 Alpha  occ. eigenvalues --  -10.27238 -10.27237 -10.25460 -10.25454 -10.25450
 Alpha  occ. eigenvalues --   -1.06429  -0.74056  -0.63476  -0.63471  -0.59472
 Alpha  occ. eigenvalues --   -0.46812  -0.41498  -0.41487  -0.33465  -0.27999
 Alpha  occ. eigenvalues --   -0.27994
 Alpha virt. eigenvalues --   -0.06542  -0.06531  -0.00172   0.00548   0.02616
 Alpha virt. eigenvalues --    0.02729   0.02731   0.06563   0.07232   0.07235
 Alpha virt. eigenvalues --    0.08837   0.09137   0.09139   0.09329   0.11276

 Mulliken charges:
               1
     1  C   -0.658148
     2  C    0.675650
     3  C   -0.658900
     4  C    0.675608
     5  C   -0.658715
     6  H    0.312253
     7  H    0.312252
 Sum of Mulliken charges =  -0.00000

 Dipole moment (field-independent basis, Debye):
    X=              0.0024    Y=             -0.0006    Z=             -0.0000  Tot=              0.0024
 Quadrupole moment (field-independent basis, Debye-Ang):
   XX=            -33.8205   YY=            -33.8197   ZZ=            -21.0544
   XY=             -0.0012   XZ=             -0.0047   YZ=             -0.0150

  Exact polarizability:  51.231  -0.000  51.261   0.015  -0.019  45.977
 Approx polarizability: 111.409  -0.011 111.445   0.014   0.046  72.258

                      1                      2                      3
                      A                      A                      A
 Frequencies --    525.1799               526.0666               737.8511
 Red. masses --      9.1091                 9.0813                11.9751
 Frc consts  --      1.4803                 1.4807                 3.8412
 IR Inten    --     48.1964                48.3314                 0.0000

                      4                      5                      6
                      A                      A                      A
 Frequencies --    740.0145               838.9024               852.0307
 Red. masses --     11.9706                10.4630                 2.5618
 Frc consts  --      3.8623                 4.3384                 1.0957
 IR Inten    --      0.0002                 0.0033                15.7101

                      7                      8                      9
                      A                      A                      A
 Frequencies --    852.8404              1020.3554              1020.6023
 Red. masses --      2.5529                 1.1871                 1.1872
 Frc consts  --      1.0940                 0.7282                 0.7286
 IR Inten    --     15.7421                 0.0000                 0.0000

                     10                     11                     12
                      A                      A                      A
 Frequencies --   1129.8598              1130.2237              1294.9412
 Red. masses --      1.5897                 1.5931                 7.2222
 Frc consts  --      1.1957                 1.1990                 7.1354
 IR Inten    --      9.4238                 9.3502                28.3968

                     13                     14                     15
                      A                      A                      A
 Frequencies --   1318.5146              3310.2355              3311.7661
 Red. masses --      6.1395                 1.1018                 1.1105
 Frc consts  --      6.2886                 7.1136                 7.1761
 IR Inten    --      0.0000                10.8318                 0.0006

 - Thermochemistry -
 -------------------
 Temperature   298.150 Kelvin.  Pressure   1.00000 Atm.
 Atom     1 has atomic number  6 and mass  12.00000

 Molecular mass:    62.01565 amu.
 Principal axes and moments of inertia in atomic units:
                           1         2         3
     Eigenvalues --   140.16573 195.83785 195.86249
           X           -0.00036   0.00012   1.00000
           Y           -0.00118   1.00000  -0.00012
           Z            1.00000   0.00118   0.00036
 This molecule is an asymmetric top.
 Rotational symmetry number  1.
 Rotational temperatures (Kelvin)      0.61794     0.44227     0.44222
 Rotational constants (GHZ):          12.87577     9.21549     9.21433
 Zero-point vibrational energy     111308.8 (Joules/Mol)
                                   26.60345 (Kcal/Mol)
 Warning -- explicit consideration of   2 degrees of freedom as
           vibrations may cause significant error
 Vibrational temperatures:    755.62   756.89  1061.60  1064.71  1206.99
          (Kelvin)           1225.88  1227.05  1468.06  1468.42  1625.61
                             1626.14  1863.13  1897.05  4762.68  4764.89

 Zero-point correction=                           0.042395 (Hartree/Particle)
 Thermal correction to Energy=                    0.046167
 Thermal correction to Enthalpy=                  0.047111
 Thermal correction to Gibbs Free Energy=         0.016671
 Sum of electronic and zero-point Energies=           -191.435011
 Sum of electronic and thermal Energies=              -191.431240
 Sum of electronic and thermal Enthalpies=            -191.430296
 Sum of electronic and thermal Free Energies=         -191.460736

                     E (Thermal)             CV                S
                      KCal/Mol        Cal/Mol-Kelvin    Cal/Mol-Kelvin
 Total                   28.970             13.098             64.066
 Electronic               0.000              0.000              0.000
 Translational            0.889              2.981             38.294
 Rotational               0.889              2.981             23.201
 Vibrational             27.193              7.136              2.571
 Vibration     1          0.880              1.194              0.598
 Vibration     2          0.881              1.192              0.596

 Optimization completed.
    -- Stationary point found.
 Normal termination of Gaussian 09 at Thu Jan 31 04:32:38 2019.
