 Gaussian 09, Revision E.01,
 Gaussian 09:  EM64L-G09RevE.01 30-Nov-2015

 ---------------------------------------------
 #p b3lyp/6-311++G(3df,2p) freq symmetry=Loose
 ---------------------------------------------

 ---------
 b3lyp opt
 ---------
 Symbolic Z-matrix:
 Charge =  2 Multiplicity = 3

                         Standard orientation:
 ---------------------------------------------------------------------
 Center     Atomic      Atomic             Coordinates (Angstroms)
 Number     Number       Type             X           Y           Z
 ---------------------------------------------------------------------
      1          6           0        0.000000   -0.000000    0.483247
      2          6           0        0.000000   -0.806262   -0.691297
      3          6           0       -0.000000    0.000000   -1.798571
      4          6           0        0.000000    0.806262   -0.691297
      5          6           0        0.000000   -0.000000    1.887595
      6          1           0        0.000000    0.950130    2.430970
      7          1           0       -0.000000   -0.950130    2.430970
 ---------------------------------------------------------------------

 SCF Done:  E(UB3LYP) =  -190.563141710     A.U. after   14 cycles

 The electronic state is 3-B1.
 Alpha  occ. eigenvalues --  -10.82353 -10.81671 -10.81608 -10.81601 -10.76333
 Alpha  occ. eigenvalues --   -1.54251  -1.31666  -1.19842  -1.09818  -1.00239
 Alpha  occ. eigenvalues --   -0.98785  -0.97095  -0.90504  -0.88632  -0.81275
 Alpha  occ. eigenvalues --   -0.80237
 Alpha virt. eigenvalues --   -0.60790  -0.59569  -0.55998  -0.42787  -0.34152
 Alpha virt. eigenvalues --   -0.32343  -0.30838  -0.29273  -0.27600  -0.27275
 Alpha virt. eigenvalues --   -0.24896  -0.22775  -0.22161  -0.21266  -0.21119

  Beta  occ. eigenvalues --  -10.81339 -10.81322 -10.80893 -10.79971 -10.75759
  Beta  occ. eigenvalues --   -1.53191  -1.28830  -1.17438  -1.08565  -0.98843
  Beta  occ. eigenvalues --   -0.97664  -0.93819  -0.90010  -0.82274
  Beta virt. eigenvalues --   -0.69822  -0.65454  -0.59025  -0.54424  -0.53640
  Beta virt. eigenvalues --   -0.37455  -0.33482  -0.32121  -0.30389  -0.27649
  Beta virt. eigenvalues --   -0.27133  -0.26934  -0.24230  -0.22041  -0.21236

 Mulliken charges and spin densities:
               1          2
     1  C    0.244896   0.321445
     2  C    1.021610   0.169934
     3  C   -0.350922   1.040997
     4  C    1.021610   0.169934
     5  C   -0.588639   0.319765
     6  H    0.325723  -0.011037
     7  H    0.325723  -0.011037
 Sum of Mulliken charges =   2.00000   2.00000

 Dipole moment (field-independent basis, Debye):
    X=              0.0000    Y=             -0.0000    Z=              2.4451  Tot=              2.4451
 Quadrupole moment (field-independent basis, Debye-Ang):
   XX=            -22.4331   YY=            -19.3114   ZZ=              4.5274
   XY=              0.0000   XZ=             -0.0000   YZ=              0.0000

  Exact polarizability:  22.345  -0.000  36.267   0.000   0.000  66.519
 Approx polarizability:  34.335   0.000  83.341  -0.000   0.000 116.076

                      1                      2                      3
                     B1                     A2                     B2
 Frequencies --    252.9295               307.6550               357.9536
 Red. masses --      5.7716                 1.1145                 3.0925
 Frc consts  --      0.2175                 0.0621                 0.2335
 IR Inten    --      3.1203                 0.0000                 4.3343

                      4                      5                      6
                     B1                     A1                     B2
 Frequencies --    589.0757               630.3668               745.0694
 Red. masses --      9.7186                 8.5736                 5.3754
 Frc consts  --      1.9870                 2.0072                 1.7582
 IR Inten    --      3.7474                59.1071                18.9620

                      7                      8                      9
                     A1                     B2                     B1
 Frequencies --    929.6038              1056.7324              1077.8719
 Red. masses --      6.4448                 1.6151                 1.3408
 Frc consts  --      3.2814                 1.0626                 0.9178
 IR Inten    --     16.8683                 2.0901                18.4160

                     10                     11                     12
                     B2                     A1                     A1
 Frequencies --   1155.6660              1426.7337              1503.5653
 Red. masses --     11.9544                 1.1257                11.8953
 Frc consts  --      9.4068                 1.3500                15.8442
 IR Inten    --      3.6005                27.3449               145.9327

                     13                     14                     15
                     A1                     A1                     B2
 Frequencies --   1607.4982              3038.8358              3156.0708
 Red. masses --     10.6295                 1.0527                 1.1273
 Frc consts  --     16.1832                 5.7275                 6.6157
 IR Inten    --      0.8501               188.6459               129.4951

 - Thermochemistry -
 -------------------
 Temperature   298.150 Kelvin.  Pressure   1.00000 Atm.
 Atom     1 has atomic number  6 and mass  12.00000

 Molecular mass:    62.01565 amu.
 Principal axes and moments of inertia in atomic units:
                           1         2         3
     Eigenvalues --    62.21160 383.47051 445.68211
           X           -0.00000  -0.00000   1.00000
           Y            0.00000   1.00000   0.00000
           Z            1.00000  -0.00000   0.00000
 This molecule is an asymmetric top.
 Rotational symmetry number  2.
 Rotational temperatures (Kelvin)      1.39225     0.22587     0.19434
 Rotational constants (GHZ):          29.00972     4.70634     4.04939
 Zero-point vibrational energy     106680.7 (Joules/Mol)
                                   25.49731 (Kcal/Mol)
 Warning -- explicit consideration of   4 degrees of freedom as
           vibrations may cause significant error
 Vibrational temperatures:    363.91   442.65   515.01   847.55   906.96
          (Kelvin)           1071.99  1337.49  1520.40  1550.82  1662.74
                             2052.75  2163.29  2312.83  4372.20  4540.88

 Zero-point correction=                           0.040633 (Hartree/Particle)
 Thermal correction to Energy=                    0.045256
 Thermal correction to Enthalpy=                  0.046200
 Thermal correction to Gibbs Free Energy=         0.013572
 Sum of electronic and zero-point Energies=           -190.522509
 Sum of electronic and thermal Energies=              -190.517885
 Sum of electronic and thermal Enthalpies=            -190.516941
 Sum of electronic and thermal Free Energies=         -190.549569

                     E (Thermal)             CV                S
                      KCal/Mol        Cal/Mol-Kelvin    Cal/Mol-Kelvin
 Total                   28.399             15.243             68.672
 Electronic               0.000              0.000              2.183
 Translational            0.889              2.981             38.294
 Rotational               0.889              2.981             22.501
 Vibrational             26.621              9.282              5.693
 Vibration     1          0.664              1.758              1.710
 Vibration     2          0.698              1.659              1.375
 Vibration     3          0.733              1.559              1.131
 Vibration     4          0.946              1.055              0.469

 Optimization completed.
    -- Stationary point found.
 Normal termination of Gaussian 09 at Tue Jul 19 07:07:57 2016.
