 Gaussian 09, Revision E.01,
 Gaussian 09:  EM64L-G09RevE.01 30-Nov-2015

 ---------------------------------------------
 #p b3lyp/6-311++G(3df,2p) freq symmetry=Loose
 ---------------------------------------------

 ---------
 b3lyp opt
 ---------
 Symbolic Z-matrix:
 Charge =  1 Multiplicity = 2

                         Standard orientation:
 ---------------------------------------------------------------------
 Center     Atomic      Atomic             Coordinates (Angstroms)
 Number     Number       Type             X           Y           Z
 ---------------------------------------------------------------------
      1          6           0        0.000000   -2.388255    0.000000
      2          6           0        0.000000   -1.082655    0.000000
      3          6           0       -0.000000    0.197118   -0.000000
      4          6           0       -0.000000    1.467522   -0.000000
      5          6           0       -0.000000    2.789679   -0.000000
      6          1           0       -0.000000   -2.950227    0.934078
      7          1           0       -0.000000   -2.950227   -0.934078
 ---------------------------------------------------------------------

 SCF Done:  E(UB3LYP) =  -191.220002391     A.U. after   17 cycles

 The electronic state is 2-A".
 Alpha  occ. eigenvalues --  -10.50735 -10.49998 -10.49994 -10.48105 -10.46111
 Alpha  occ. eigenvalues --   -1.10390  -1.04905  -0.98021  -0.89499  -0.76110
 Alpha  occ. eigenvalues --   -0.72397  -0.63965  -0.62688  -0.54724  -0.53539
 Alpha  occ. eigenvalues --   -0.51615
 Alpha virt. eigenvalues --   -0.38844  -0.31286  -0.24275  -0.16747  -0.13232
 Alpha virt. eigenvalues --   -0.12937  -0.10623  -0.10286  -0.08797  -0.07651
 Alpha virt. eigenvalues --   -0.07251  -0.06167  -0.05603  -0.04394  -0.02726

  Beta  occ. eigenvalues --  -10.50834 -10.49376 -10.49356 -10.48248 -10.45708
  Beta  occ. eigenvalues --   -1.09307  -1.03783  -0.96544  -0.88529  -0.75658
  Beta  occ. eigenvalues --   -0.71226  -0.63699  -0.59943  -0.54231  -0.52283
  Beta virt. eigenvalues --   -0.41860  -0.38692  -0.27136  -0.23701  -0.16653
  Beta virt. eigenvalues --   -0.12839  -0.12056  -0.10179  -0.09215  -0.08554
  Beta virt. eigenvalues --   -0.07461  -0.06794  -0.06066  -0.05607  -0.04271

 Mulliken charges and spin densities:
               1          2
     1  C   -0.359727  -0.083173
     2  C    0.718956   0.174312
     3  C   -0.647572   0.191358
     4  C    1.176405   0.352358
     5  C   -0.412066   0.304336
     6  H    0.262002   0.030404
     7  H    0.262002   0.030404
 Sum of Mulliken charges =   1.00000   1.00000

 Dipole moment (field-independent basis, Debye):
    X=             -0.0000    Y=             -4.6750    Z=              0.0000  Tot=              4.6750
 Quadrupole moment (field-independent basis, Debye-Ang):
   XX=            -26.3711   YY=             -5.1725   ZZ=            -24.0103
   XY=              0.0000   XZ=             -0.0000   YZ=             -0.0000

  Exact polarizability:  29.917   0.000 135.155  -0.000  -0.000  33.377
 Approx polarizability:  42.945  -0.000 328.341  -0.000  -0.000  45.406

                      1                      2                      3
                     A"                     A'                     A"
 Frequencies --     89.1499               120.6250               249.2858
 Red. masses --      7.4106                 6.8748                 3.7240
 Frc consts  --      0.0347                 0.0589                 0.1363
 IR Inten    --      3.8292                 0.0375                16.6022

                      4                      5                      6
                     A'                     A"                     A'
 Frequencies --    269.0247               463.1100               609.1716
 Red. masses --      6.8429                 5.5907                10.5042
 Frc consts  --      0.2918                 0.7065                 2.2966
 IR Inten    --      8.3959                 1.9403                 4.4614

                      7                      8                      9
                     A'                     A"                     A'
 Frequencies --    761.3006               935.0670              1002.2342
 Red. masses --      6.5194                 1.5586                 1.3361
 Frc consts  --      2.2262                 0.8029                 0.7908
 IR Inten    --      2.8679                 1.3017                30.2601

                     10                     11                     12
                     A'                     A'                     A'
 Frequencies --   1313.5346              1432.8959              1878.1104
 Red. masses --      2.0095                 1.9425                10.9116
 Frc consts  --      2.0428                 2.3498                22.6767
 IR Inten    --    187.1277                23.8172                67.0302

                     13                     14                     15
                     A'                     A'                     A"
 Frequencies --   2071.6901              3069.4188              3155.1670
 Red. masses --     11.9675                 1.0557                 1.1149
 Frc consts  --     30.2623                 5.8602                 6.5395
 IR Inten    --    636.4435               159.0051                63.6535

 - Thermochemistry -
 -------------------
 Temperature   298.150 Kelvin.  Pressure   1.00000 Atm.
 Atom     1 has atomic number  6 and mass  12.00000

 Molecular mass:    62.01565 amu.
 Principal axes and moments of inertia in atomic units:
                           1         2         3
     Eigenvalues --     6.28028 782.77565 789.05593
           X            0.00000   0.00000   1.00000
           Y            1.00000   0.00000  -0.00000
           Z           -0.00000   1.00000  -0.00000
 This molecule is an asymmetric top.
 Rotational symmetry number  1.
 Rotational temperatures (Kelvin)     13.79140     0.11065     0.10977
 Rotational constants (GHZ):         287.36653     2.30557     2.28722
 Zero-point vibrational energy     104193.5 (Joules/Mol)
                                   24.90283 (Kcal/Mol)
 Warning -- explicit consideration of   6 degrees of freedom as
           vibrations may cause significant error
 Vibrational temperatures:    128.27   173.55   358.67   387.07   666.31
          (Kelvin)            876.46  1095.34  1345.35  1441.99  1889.88
                             2061.62  2702.18  2980.70  4416.20  4539.58

 Zero-point correction=                           0.039685 (Hartree/Particle)
 Thermal correction to Energy=                    0.045518
 Thermal correction to Enthalpy=                  0.046462
 Thermal correction to Gibbs Free Energy=         0.011137
 Sum of electronic and zero-point Energies=           -191.180317
 Sum of electronic and thermal Energies=              -191.174485
 Sum of electronic and thermal Enthalpies=            -191.173541
 Sum of electronic and thermal Free Energies=         -191.208865

                     E (Thermal)             CV                S
                      KCal/Mol        Cal/Mol-Kelvin    Cal/Mol-Kelvin
 Total                   28.563             17.498             74.347
 Electronic               0.000              0.000              1.377
 Translational            0.889              2.981             38.294
 Rotational               0.889              2.981             22.877
 Vibrational             26.785             11.537             11.798
 Vibration     1          0.602              1.957              3.679
 Vibration     2          0.609              1.932              3.090
 Vibration     3          0.662              1.764              1.736
 Vibration     4          0.673              1.730              1.602
 Vibration     5          0.821              1.332              0.757
 Vibration     6          0.968              1.012              0.434

 Optimization completed.
    -- Stationary point found.
 Normal termination of Gaussian 09 at Tue Jul 19 07:30:51 2016.
