 Gaussian 09, Revision E.01,
 Gaussian 09:  EM64L-G09RevE.01 30-Nov-2015

 ---------------------------------------------
 #p b3lyp/6-311++G(3df,2p) freq symmetry=Loose
 ---------------------------------------------

 ---------
 b3lyp opt
 ---------
 Symbolic Z-matrix:
 Charge =  0 Multiplicity = 3

                         Standard orientation:
 ---------------------------------------------------------------------
 Center     Atomic      Atomic             Coordinates (Angstroms)
 Number     Number       Type             X           Y           Z
 ---------------------------------------------------------------------
      1          6           0       -0.000000    0.721278    0.000000
      2          6           0        0.844567   -0.535632    0.000000
      3          6           0       -0.257805   -1.387760   -0.000000
      4          6           0       -1.105903   -0.275455   -0.000000
      5          6           0        0.265098    1.993539    0.000000
      6          1           0        1.917865   -0.641314    0.000000
      7          1           0       -0.393605   -2.454509   -0.000000
 ---------------------------------------------------------------------

 SCF Done:  E(UB3LYP) =  -191.445733291     A.U. after   19 cycles

 The electronic state is 3-A".
 Alpha  occ. eigenvalues --  -10.26573 -10.24817 -10.23918 -10.22971 -10.21047
 Alpha  occ. eigenvalues --   -0.94040  -0.76750  -0.67687  -0.62304  -0.50749
 Alpha  occ. eigenvalues --   -0.46196  -0.45001  -0.43102  -0.30707  -0.30308
 Alpha  occ. eigenvalues --   -0.27745  -0.23159
 Alpha virt. eigenvalues --   -0.12612  -0.05603  -0.00774   0.01183   0.03578
 Alpha virt. eigenvalues --    0.04113   0.05828   0.06194   0.06567   0.06978
 Alpha virt. eigenvalues --    0.08377   0.08984   0.10392   0.10712   0.11310

  Beta  occ. eigenvalues --  -10.24151 -10.23825 -10.23773 -10.23135 -10.21011
  Beta  occ. eigenvalues --   -0.92042  -0.76214  -0.63763  -0.62037  -0.47091
  Beta  occ. eigenvalues --   -0.44943  -0.43542  -0.39696  -0.30383  -0.27399
  Beta virt. eigenvalues --   -0.15276  -0.10267  -0.09490  -0.04566  -0.00720
  Beta virt. eigenvalues --    0.01296   0.04302   0.04429   0.06000   0.06664
  Beta virt. eigenvalues --    0.07140   0.07327   0.08540   0.09997   0.10461

 Mulliken charges and spin densities:
               1          2
     1  C    0.423710  -0.048336
     2  C    0.115596   0.692742
     3  C   -0.394912  -0.285490
     4  C    0.204939   1.524195
     5  C   -0.850594   0.100173
     6  H    0.254695   0.011328
     7  H    0.246566   0.005388
 Sum of Mulliken charges =  -0.00000   2.00000

 Dipole moment (field-independent basis, Debye):
    X=              0.4661    Y=             -3.5478    Z=             -0.0000  Tot=              3.5782
 Quadrupole moment (field-independent basis, Debye-Ang):
   XX=            -26.8874   YY=            -32.7671   ZZ=            -31.3752
   XY=             -1.5669   XZ=             -0.0000   YZ=             -0.0000

  Exact polarizability:  54.437   4.625  77.544  -0.000  -0.000  37.071
 Approx polarizability:  92.343  10.536 136.501   0.000   0.000  53.251

                      1                      2                      3
                     A'                     A"                     A"
 Frequencies --    185.4446               200.7975               493.8663
 Red. masses --      7.2811                 4.6830                 1.2571
 Frc consts  --      0.1475                 0.1112                 0.1806
 IR Inten    --     11.6191                 1.5704                49.6990

                      4                      5                      6
                     A"                     A'                     A'
 Frequencies --    637.4052               689.3051               778.7063
 Red. masses --      7.2485                 9.3876                 8.1412
 Frc consts  --      1.7351                 2.6280                 2.9086
 IR Inten    --      0.0522                15.8334                 1.4872

                      7                      8                      9
                     A"                     A'                     A'
 Frequencies --    848.3999               901.2572               960.1118
 Red. masses --      1.2975                 2.3393                 3.7528
 Frc consts  --      0.5503                 1.1195                 2.0382
 IR Inten    --     15.9318                 4.0338                 7.6502

                     10                     11                     12
                     A'                     A'                     A'
 Frequencies --   1113.3816              1238.3844              1373.5098
 Red. masses --      1.5523                 1.6516                 5.2463
 Frc consts  --      1.1337                 1.4924                 5.8314
 IR Inten    --      4.1551                 6.3419                14.1370

                     13                     14                     15
                     A'                     A'                     A'
 Frequencies --   1745.6561              3219.5333              3268.7480
 Red. masses --     11.5756                 1.0906                 1.1049
 Frc consts  --     20.7831                 6.6604                 6.9553
 IR Inten    --    171.5231                 5.5692                 0.7964

 - Thermochemistry -
 -------------------
 Temperature   298.150 Kelvin.  Pressure   1.00000 Atm.
 Atom     1 has atomic number  6 and mass  12.00000

 Molecular mass:    62.01565 amu.
 Principal axes and moments of inertia in atomic units:
                           1         2         3
     Eigenvalues --    98.04548 317.74856 415.79404
           X            0.14239   0.98981   0.00000
           Y            0.98981  -0.14239   0.00000
           Z           -0.00000  -0.00000   1.00000
 This molecule is an asymmetric top.
 Rotational symmetry number  1.
 Rotational temperatures (Kelvin)      0.88340     0.27259     0.20831
 Rotational constants (GHZ):          18.40718     5.67978     4.34047
 Zero-point vibrational energy     105597.4 (Joules/Mol)
                                   25.23838 (Kcal/Mol)
 Warning -- explicit consideration of   3 degrees of freedom as
           vibrations may cause significant error
 Vibrational temperatures:    266.81   288.90   710.56   917.08   991.76
          (Kelvin)           1120.38  1220.66  1296.71  1381.39  1601.91
                             1781.76  1976.17  2511.61  4632.18  4702.99

 Zero-point correction=                           0.040220 (Hartree/Particle)
 Thermal correction to Energy=                    0.044977
 Thermal correction to Enthalpy=                  0.045921
 Thermal correction to Gibbs Free Energy=         0.012141
 Sum of electronic and zero-point Energies=           -191.405513
 Sum of electronic and thermal Energies=              -191.400756
 Sum of electronic and thermal Enthalpies=            -191.399812
 Sum of electronic and thermal Free Energies=         -191.433592

                     E (Thermal)             CV                S
                      KCal/Mol        Cal/Mol-Kelvin    Cal/Mol-Kelvin
 Total                   28.224             15.506             71.097
 Electronic               0.000              0.000              2.183
 Translational            0.889              2.981             38.294
 Rotational               0.889              2.981             24.075
 Vibrational             26.446              9.544              6.545
 Vibration     1          0.632              1.860              2.273
 Vibration     2          0.638              1.839              2.126
 Vibration     3          0.850              1.264              0.674

 Optimization completed.
    -- Stationary point found.
 Normal termination of Gaussian 09 at Tue Jul 19 07:17:58 2016.
