 Gaussian 09, Revision E.01,
 Gaussian 09:  EM64L-G09RevE.01 30-Nov-2015

 ---------------------------------------------
 #p b3lyp/6-311++G(3df,2p) freq symmetry=Loose
 ---------------------------------------------

 ---------
 b3lyp opt
 ---------
 Symbolic Z-matrix:
 Charge =  1 Multiplicity = 4

                         Standard orientation:
 ---------------------------------------------------------------------
 Center     Atomic      Atomic             Coordinates (Angstroms)
 Number     Number       Type             X           Y           Z
 ---------------------------------------------------------------------
      1          6           0       -2.327783   -0.567655   -0.000123
      2          6           0       -1.238581   -0.018113   -0.000028
      3          6           0        0.000027    0.699623    0.000093
      4          6           0        1.238384   -0.018525    0.000023
      5          6           0        2.327905   -0.567445   -0.000028
      6          1           0        0.000128    1.416233    0.851324
      7          1           0        0.000163    1.416459   -0.850948
 ---------------------------------------------------------------------

 SCF Done:  E(UB3LYP) =  -191.040235962     A.U. after   19 cycles

 The electronic state is 4-A.
 Alpha  occ. eigenvalues --  -10.50322 -10.50322 -10.48303 -10.46148 -10.46147
 Alpha  occ. eigenvalues --   -1.09037  -1.03312  -0.98722  -0.79761  -0.74586
 Alpha  occ. eigenvalues --   -0.71411  -0.63974  -0.63596  -0.57224  -0.55143
 Alpha  occ. eigenvalues --   -0.54758  -0.54616
 Alpha virt. eigenvalues --   -0.23207  -0.22950  -0.22061  -0.20303  -0.16965
 Alpha virt. eigenvalues --   -0.11515  -0.11073  -0.10708  -0.08544  -0.06779
 Alpha virt. eigenvalues --   -0.06775  -0.06610  -0.05699  -0.04570  -0.03225

  Beta  occ. eigenvalues --  -10.48151 -10.47569 -10.47568 -10.45928 -10.45927
  Beta  occ. eigenvalues --   -1.08118  -0.99803  -0.94971  -0.78675  -0.73668
  Beta  occ. eigenvalues --   -0.69721  -0.53323  -0.52761  -0.51020
  Beta virt. eigenvalues --   -0.44758  -0.41182  -0.40877  -0.20455  -0.18825
  Beta virt. eigenvalues --   -0.17730  -0.17040  -0.16536  -0.10666  -0.10620
  Beta virt. eigenvalues --   -0.10154  -0.08354  -0.06300  -0.05949  -0.05781

 Mulliken charges and spin densities:
               1          2
     1  C    0.167659   1.338318
     2  C    0.548881   0.067778
     3  C   -0.961926   0.057674
     4  C    0.548931   0.067244
     5  C    0.167354   1.338985
     6  H    0.264551   0.065000
     7  H    0.264551   0.065000
 Sum of Mulliken charges =   1.00000   3.00000

 Dipole moment (field-independent basis, Debye):
    X=              0.0001    Y=              0.9730    Z=              0.0001  Tot=              0.9730
 Quadrupole moment (field-independent basis, Debye-Ang):
   XX=             -8.9684   YY=            -21.6807   ZZ=            -24.5845
   XY=              0.0000   XZ=              0.0003   YZ=              0.0004

  Exact polarizability: 149.680   0.005  43.872   0.002   0.002  32.499
 Approx polarizability: 378.578   0.008  63.825   0.007   0.002  45.611

                      1                      2                      3
                      A                      A                      A
 Frequencies --    131.2813               225.1805               239.3716
 Red. masses --      9.8966                 2.0176                 8.8539
 Frc consts  --      0.1005                 0.0603                 0.2989
 IR Inten    --      0.0396                17.7740                 0.6022

                      4                      5                      6
                      A                      A                      A
 Frequencies --    321.6640               514.9883               650.2358
 Red. masses --      7.0171                11.3645                 2.9653
 Frc consts  --      0.4278                 1.7758                 0.7387
 IR Inten    --      0.0000                 0.2198                10.3263

                      7                      8                      9
                      A                      A                      A
 Frequencies --    865.9563              1030.7944              1096.3163
 Red. masses --      8.5851                 1.7795                 1.0809
 Frc consts  --      3.7930                 1.1140                 0.7654
 IR Inten    --      6.9507               104.2424                 0.0000

                     10                     11                     12
                      A                      A                      A
 Frequencies --   1217.9402              1236.8321              2058.5399
 Red. masses --      1.0446                 2.3204                11.6804
 Frc consts  --      0.9130                 2.0914                29.1626
 IR Inten    --     79.5153               270.8594              1562.5584

                     13                     14                     15
                      A                      A                      A
 Frequencies --   2184.6582              2835.6511              2870.2950
 Red. masses --     11.9272                 1.0760                 1.0620
 Frc consts  --     33.5393                 5.0976                 5.1550
 IR Inten    --      0.0622                78.2496               121.7911

 - Thermochemistry -
 -------------------
 Temperature   298.150 Kelvin.  Pressure   1.00000 Atm.
 Atom     1 has atomic number  6 and mass  12.00000

 Molecular mass:    62.01565 amu.
 Principal axes and moments of inertia in atomic units:
                           1         2         3
     Eigenvalues --    67.81004 601.09921 658.48029
           X            1.00000   0.00000  -0.00002
           Y           -0.00000   1.00000  -0.00013
           Z            0.00002   0.00013   1.00000
 This molecule is an asymmetric top.
 Rotational symmetry number  1.
 Rotational temperatures (Kelvin)      1.27730     0.14409     0.13154
 Rotational constants (GHZ):          26.61466     3.00240     2.74077
 Zero-point vibrational energy     104551.9 (Joules/Mol)
                                   24.98849 (Kcal/Mol)
 Warning -- explicit consideration of   5 degrees of freedom as
           vibrations may cause significant error
 Vibrational temperatures:    188.88   323.98   344.40   462.80   740.95
          (Kelvin)            935.54  1245.92  1483.08  1577.35  1752.34
                             1779.52  2961.78  3143.23  4079.86  4129.71

 Zero-point correction=                           0.039822 (Hartree/Particle)
 Thermal correction to Energy=                    0.045246
 Thermal correction to Enthalpy=                  0.046190
 Thermal correction to Gibbs Free Energy=         0.010472
 Sum of electronic and zero-point Energies=           -191.000414
 Sum of electronic and thermal Energies=              -190.994990
 Sum of electronic and thermal Enthalpies=            -190.994046
 Sum of electronic and thermal Free Energies=         -191.029764

                     E (Thermal)             CV                S
                      KCal/Mol        Cal/Mol-Kelvin    Cal/Mol-Kelvin
 Total                   28.392             16.810             75.175
 Electronic               0.000              0.000              2.755
 Translational            0.889              2.981             38.294
 Rotational               0.889              2.981             24.799
 Vibrational             26.615             10.849              9.327
 Vibration     1          0.612              1.922              2.927
 Vibration     2          0.650              1.803              1.917
 Vibration     3          0.657              1.780              1.808
 Vibration     4          0.707              1.632              1.302
 Vibration     5          0.870              1.217              0.622

 Optimization completed.
    -- Stationary point found.
 Normal termination of Gaussian 09 at Tue Jul 19 09:27:49 2016.
