 Gaussian 09, Revision E.01,
 Gaussian 09:  EM64L-G09RevE.01 30-Nov-2015

 ---------------------------------------------
 #p b3lyp/6-311++G(3df,2p) freq symmetry=Loose
 ---------------------------------------------

 ---------
 b3lyp opt
 ---------
 Symbolic Z-matrix:
 Charge =  3 Multiplicity = 4

                         Standard orientation:
 ---------------------------------------------------------------------
 Center     Atomic      Atomic             Coordinates (Angstroms)
 Number     Number       Type             X           Y           Z
 ---------------------------------------------------------------------
      1          6           0       -0.241837   -0.828462   -0.000000
      2          6           0       -0.111372    0.482980   -0.794089
      3          6           0        0.000000    1.599126    0.000000
      4          6           0       -0.111372    0.482980    0.794089
      5          6           0        0.666302   -1.964872    0.000000
      6          1           0        0.055479    2.722796    0.000000
      7          1           0       -1.265876   -1.353318   -0.000000
 ---------------------------------------------------------------------

 SCF Done:  E(UB3LYP) =  -189.617275617     A.U. after   16 cycles

 The electronic state is 4-A".
 Alpha  occ. eigenvalues --  -11.15298 -11.11560 -11.11543 -11.06832 -11.02498
 Alpha  occ. eigenvalues --   -1.77553  -1.57686  -1.42671  -1.35007  -1.26979
 Alpha  occ. eigenvalues --   -1.22293  -1.20592  -1.18123  -1.11525  -1.11120
 Alpha  occ. eigenvalues --   -1.04006
 Alpha virt. eigenvalues --   -0.90067  -0.85849  -0.81127  -0.76313  -0.59805
 Alpha virt. eigenvalues --   -0.56835  -0.53791  -0.49822  -0.48557  -0.47550
 Alpha virt. eigenvalues --   -0.45789  -0.43711  -0.42822  -0.41711  -0.37820

  Beta  occ. eigenvalues --  -11.11673 -11.10121 -11.10112 -11.06641 -11.02490
  Beta  occ. eigenvalues --   -1.76279  -1.54834  -1.39059  -1.29962  -1.25644
  Beta  occ. eigenvalues --   -1.21055  -1.18699  -1.12073
  Beta virt. eigenvalues --   -0.95111  -0.93105  -0.85118  -0.84831  -0.82656
  Beta virt. eigenvalues --   -0.75117  -0.72245  -0.58218  -0.54155  -0.52968
  Beta virt. eigenvalues --   -0.48591  -0.47126  -0.46397  -0.44588  -0.43045

 Mulliken charges and spin densities:
               1          2
     1  C    0.200356  -0.100295
     2  C    0.716455   0.700939
     3  C    0.057243  -0.055056
     4  C    0.716455   0.700939
     5  C    0.508289   1.728734
     6  H    0.443351   0.025006
     7  H    0.357850  -0.000266
 Sum of Mulliken charges =   3.00000   3.00000

 Dipole moment (field-independent basis, Debye):
    X=              0.2738    Y=             -1.4565    Z=              0.0000  Tot=              1.4820
 Quadrupole moment (field-independent basis, Debye-Ang):
   XX=            -15.6021   YY=             18.7060   ZZ=            -16.6787
   XY=             -2.9538   XZ=             -0.0000   YZ=              0.0000

  Exact polarizability:  26.414  -4.052  53.042  -0.000  -0.000  28.059
 Approx polarizability:  44.857  -9.637  88.952   0.000  -0.000  64.754

                      1                      2                      3
                     A'                     A"                     A"
 Frequencies --    251.8740               329.5498               452.9745
 Red. masses --      5.4064                 5.4217                 9.0109
 Frc consts  --      0.2021                 0.3469                 1.0893
 IR Inten    --      8.2555                 4.4044                 0.7959

                      4                      5                      6
                     A'                     A'                     A'
 Frequencies --    526.5128               689.0481               816.0665
 Red. masses --      6.2211                 7.5671                 1.2629
 Frc consts  --      1.0161                 2.1168                 0.4955
 IR Inten    --      0.9776                10.3240                47.9817

                      7                      8                      9
                     A"                     A'                     A"
 Frequencies --    894.4421               911.7968               956.3357
 Red. masses --      1.6140                 7.7190                 1.2316
 Frc consts  --      0.7608                 3.7810                 0.6637
 IR Inten    --      0.2598                18.5645               117.2543

                     10                     11                     12
                     A'                     A"                     A'
 Frequencies --    997.4573              1053.1547              1218.3352
 Red. masses --      3.2137                 3.1999                 1.5559
 Frc consts  --      1.8838                 2.0911                 1.3607
 IR Inten    --     29.7108                 4.4127                 8.7233

                     13                     14                     15
                     A'                     A'                     A'
 Frequencies --   1489.8467              2533.7358              2805.9865
 Red. masses --      6.4738                 1.0816                 1.1302
 Frc consts  --      8.4662                 4.0910                 5.2432
 IR Inten    --    128.6409               479.4840               691.3808

 - Thermochemistry -
 -------------------
 Temperature   298.150 Kelvin.  Pressure   1.00000 Atm.
 Atom     1 has atomic number  6 and mass  12.00000

 Molecular mass:    62.01565 amu.
 Principal axes and moments of inertia in atomic units:
                           1         2         3
     Eigenvalues --    76.20916 385.88679 417.76561
           X           -0.13390   0.00000   0.99099
           Y            0.99099   0.00000   0.13390
           Z            0.00000   1.00000  -0.00000
 This molecule is an asymmetric top.
 Rotational symmetry number  1.
 Rotational temperatures (Kelvin)      1.13653     0.22445     0.20733
 Rotational constants (GHZ):          23.68142     4.67687     4.31999
 Zero-point vibrational energy      95265.3 (Joules/Mol)
                                   22.76896 (Kcal/Mol)
 Warning -- explicit consideration of   4 degrees of freedom as
           vibrations may cause significant error
 Vibrational temperatures:    362.39   474.15   651.73   757.53   991.39
          (Kelvin)           1174.14  1286.90  1311.87  1375.95  1435.12
                             1515.25  1752.91  2143.55  3645.48  4037.18

 Zero-point correction=                           0.036285 (Hartree/Particle)
 Thermal correction to Energy=                    0.040881
 Thermal correction to Enthalpy=                  0.041826
 Thermal correction to Gibbs Free Energy=         0.008303
 Sum of electronic and zero-point Energies=           -189.580991
 Sum of electronic and thermal Energies=              -189.576394
 Sum of electronic and thermal Enthalpies=            -189.575450
 Sum of electronic and thermal Free Energies=         -189.608973

                     E (Thermal)             CV                S
                      KCal/Mol        Cal/Mol-Kelvin    Cal/Mol-Kelvin
 Total                   25.653             15.753             70.555
 Electronic               0.000              0.000              2.755
 Translational            0.889              2.981             38.294
 Rotational               0.889              2.981             24.022
 Vibrational             23.876              9.791              5.484
 Vibration     1          0.664              1.760              1.717
 Vibration     2          0.712              1.616              1.262
 Vibration     3          0.812              1.354              0.787
 Vibration     4          0.881              1.191              0.595

 Optimization completed.
    -- Stationary point found.
 Normal termination of Gaussian 09 at Tue Jul 19 10:25:48 2016.
