 Gaussian 09, Revision E.01,
 Gaussian 09:  EM64L-G09RevE.01 30-Nov-2015

 ---------------------------------------------
 #p b3lyp/6-311++G(3df,2p) freq symmetry=Loose
 ---------------------------------------------

 ---------
 b3lyp opt
 ---------
 Symbolic Z-matrix:
 Charge =  2 Multiplicity = 3

                         Standard orientation:
 ---------------------------------------------------------------------
 Center     Atomic      Atomic             Coordinates (Angstroms)
 Number     Number       Type             X           Y           Z
 ---------------------------------------------------------------------
      1          6           0       -0.000000   -2.394530   -0.000000
      2          6           0       -0.000000   -1.070345   -0.000000
      3          6           0        0.000000    0.202090    0.000000
      4          6           0        0.000000    1.496746    0.000000
      5          6           0        0.000000    2.754338    0.000000
      6          1           0       -0.000000   -2.964902    0.944092
      7          1           0       -0.000000   -2.964902   -0.944092
 ---------------------------------------------------------------------

 SCF Done:  E(UB3LYP) =  -190.630984757     A.U. after   18 cycles

 The electronic state is 3-A".
 Alpha  occ. eigenvalues --  -10.80868 -10.75080 -10.73523 -10.72232 -10.71440
 Alpha  occ. eigenvalues --   -1.33331  -1.29067  -1.21723  -1.13085  -0.96718
 Alpha  occ. eigenvalues --   -0.92677  -0.89324  -0.86406  -0.86084  -0.78783
 Alpha  occ. eigenvalues --   -0.76672
 Alpha virt. eigenvalues --   -0.62432  -0.54520  -0.47014  -0.35306  -0.32701
 Alpha virt. eigenvalues --   -0.30564  -0.28861  -0.26167  -0.25615  -0.24313
 Alpha virt. eigenvalues --   -0.22926  -0.22081  -0.20875  -0.19889  -0.18993

  Beta  occ. eigenvalues --  -10.77368 -10.74820 -10.73091 -10.72078 -10.71660
  Beta  occ. eigenvalues --   -1.31924  -1.26827  -1.19796  -1.11739  -0.96426
  Beta  occ. eigenvalues --   -0.91426  -0.85988  -0.82416  -0.77217
  Beta virt. eigenvalues --   -0.65382  -0.64069  -0.60931  -0.48635  -0.45181
  Beta virt. eigenvalues --   -0.32556  -0.31167  -0.29282  -0.28668  -0.25276
  Beta virt. eigenvalues --   -0.25268  -0.24263  -0.22450  -0.21724  -0.20714

 Mulliken charges and spin densities:
               1          2
     1  C   -0.250273  -0.102197
     2  C    0.919736   0.011407
     3  C   -0.594495   0.274237
     4  C    0.839634   0.164096
     5  C    0.446918   1.594929
     6  H    0.319240   0.028764
     7  H    0.319240   0.028764
 Sum of Mulliken charges =   2.00000   2.00000

 Dipole moment (field-independent basis, Debye):
    X=              0.0000    Y=             -0.9728    Z=             -0.0000  Tot=              0.9728
 Quadrupole moment (field-independent basis, Debye-Ang):
   XX=            -23.6666   YY=             32.8568   ZZ=            -20.8703
   XY=             -0.0000   XZ=              0.0000   YZ=              0.0000

  Exact polarizability:  23.720   0.000 122.048   0.000  -0.000  25.432
 Approx polarizability:  32.356   0.000 301.470   0.000   0.000  34.995

                      1                      2                      3
                     A'                     A"                     A'
 Frequencies --    146.2706               150.6717               308.5554
 Red. masses --      5.8252                 4.8597                 7.6479
 Frc consts  --      0.0734                 0.0650                 0.4290
 IR Inten    --     15.0203                12.7317                 0.7691

                      4                      5                      6
                     A"                     A"                     A'
 Frequencies --    359.3651               550.7411               618.6438
 Red. masses --      3.5489                 6.7289                10.7064
 Frc consts  --      0.2700                 1.2025                 2.4142
 IR Inten    --      0.3166                 1.0087                 8.2942

                      7                      8                      9
                     A'                     A"                     A'
 Frequencies --    762.2989               898.4256              1043.4816
 Red. masses --      6.3720                 1.7053                 1.3546
 Frc consts  --      2.1816                 0.8110                 0.8690
 IR Inten    --      5.3158                 4.6813                24.5258

                     10                     11                     12
                     A'                     A'                     A'
 Frequencies --   1308.2854              1413.0211              1863.8622
 Red. masses --      1.2422                 4.8649                11.6126
 Frc consts  --      1.2527                 5.7229                23.7688
 IR Inten    --    159.5707                44.4927                 2.9296

                     13                     14                     15
                     A'                     A'                     A"
 Frequencies --   2068.9982              2948.1538              3034.1036
 Red. masses --     11.9561                 1.0516                 1.1149
 Frc consts  --     30.1550                 5.3850                 6.0470
 IR Inten    --    399.8773               526.6317               195.5885

 - Thermochemistry -
 -------------------
 Temperature   298.150 Kelvin.  Pressure   1.00000 Atm.
 Atom     1 has atomic number  6 and mass  12.00000

 Molecular mass:    62.01565 amu.
 Principal axes and moments of inertia in atomic units:
                           1         2         3
     Eigenvalues --     6.41566 778.93232 785.34798
           X            0.00000   0.00000   1.00000
           Y            1.00000   0.00000  -0.00000
           Z           -0.00000   1.00000  -0.00000
 This molecule is an asymmetric top.
 Rotational symmetry number  1.
 Rotational temperatures (Kelvin)     13.50038     0.11120     0.11029
 Rotational constants (GHZ):         281.30268     2.31694     2.29801
 Zero-point vibrational energy     104523.0 (Joules/Mol)
                                   24.98159 (Kcal/Mol)
 Warning -- explicit consideration of   6 degrees of freedom as
           vibrations may cause significant error
 Vibrational temperatures:    210.45   216.78   443.94   517.05   792.39
          (Kelvin)            890.09  1096.78  1292.63  1501.34  1882.33
                             2033.02  2681.68  2976.82  4241.73  4365.39

 Zero-point correction=                           0.039811 (Hartree/Particle)
 Thermal correction to Energy=                    0.045230
 Thermal correction to Enthalpy=                  0.046174
 Thermal correction to Gibbs Free Energy=         0.011626
 Sum of electronic and zero-point Energies=           -190.591174
 Sum of electronic and thermal Energies=              -190.585755
 Sum of electronic and thermal Enthalpies=            -190.584811
 Sum of electronic and thermal Free Energies=         -190.619358

                     E (Thermal)             CV                S
                      KCal/Mol        Cal/Mol-Kelvin    Cal/Mol-Kelvin
 Total                   28.382             16.938             72.712
 Electronic               0.000              0.000              2.183
 Translational            0.889              2.981             38.294
 Rotational               0.889              2.981             22.889
 Vibrational             26.605             10.977              9.346
 Vibration     1          0.617              1.907              2.720
 Vibration     2          0.618              1.902              2.664
 Vibration     3          0.698              1.657              1.370
 Vibration     4          0.734              1.556              1.125
 Vibration     5          0.906              1.138              0.543
 Vibration     6          0.979              0.993              0.419

 Optimization completed.
    -- Stationary point found.
 Normal termination of Gaussian 09 at Tue Jul 19 09:06:45 2016.
