 Gaussian 09, Revision E.01,
 Gaussian 09:  EM64L-G09RevE.01 30-Nov-2015

 ---------------------------------------------
 #p b3lyp/6-311++G(3df,2p) freq symmetry=Loose
 ---------------------------------------------

 ---------
 b3lyp opt
 ---------
 Symbolic Z-matrix:
 Charge =  1 Multiplicity = 4

                         Standard orientation:
 ---------------------------------------------------------------------
 Center     Atomic      Atomic             Coordinates (Angstroms)
 Number     Number       Type             X           Y           Z
 ---------------------------------------------------------------------
      1          6           0        0.698251    0.917109   -0.107721
      2          6           0        0.866218   -0.528047   -0.240333
      3          6           0       -0.866247   -0.528047   -0.240227
      4          6           0       -0.698265    0.917109   -0.107636
      5          6           0        0.000055   -0.354568    0.903860
      6          1           0        1.550519   -1.270667   -0.623925
      7          1           0       -1.550595   -1.270667   -0.623736
 ---------------------------------------------------------------------

 SCF Done:  E(UB3LYP) =  -191.063353793     A.U. after   14 cycles

 The electronic state is 4-A.
 Alpha  occ. eigenvalues --  -10.54647 -10.52987 -10.52933 -10.52335 -10.52328
 Alpha  occ. eigenvalues --   -1.30441  -0.98560  -0.97824  -0.85357  -0.77218
 Alpha  occ. eigenvalues --   -0.76216  -0.72137  -0.65273  -0.60093  -0.57639
 Alpha  occ. eigenvalues --   -0.53711  -0.51313
 Alpha virt. eigenvalues --   -0.27471  -0.24227  -0.23277  -0.16449  -0.13729
 Alpha virt. eigenvalues --   -0.13519  -0.12077  -0.10702  -0.08325  -0.07183
 Alpha virt. eigenvalues --   -0.07003  -0.06871  -0.06221  -0.06094  -0.04591

  Beta  occ. eigenvalues --  -10.53173 -10.51631 -10.51627 -10.51359 -10.51311
  Beta  occ. eigenvalues --   -1.28148  -0.96093  -0.94763  -0.82811  -0.75488
  Beta  occ. eigenvalues --   -0.71197  -0.68786  -0.62387  -0.56319
  Beta virt. eigenvalues --   -0.40446  -0.37831  -0.36894  -0.24872  -0.21486
  Beta virt. eigenvalues --   -0.19534  -0.15761  -0.12773  -0.12669  -0.11407
  Beta virt. eigenvalues --   -0.09637  -0.07455  -0.06751  -0.06660  -0.06219

 Mulliken charges and spin densities:
               1          2
     1  C    0.066740   0.851287
     2  C    0.075700   0.291180
     3  C    0.075700   0.291180
     4  C    0.066740   0.851287
     5  C    0.064644   0.714931
     6  H    0.325238   0.000068
     7  H    0.325238   0.000068
 Sum of Mulliken charges =   1.00000   3.00000

 Dipole moment (field-independent basis, Debye):
    X=             -0.0001    Y=             -1.8211    Z=             -0.8313  Tot=              2.0018
 Quadrupole moment (field-independent basis, Debye-Ang):
   XX=            -19.4451   YY=            -20.9909   ZZ=            -24.9743
   XY=              0.0001   XZ=             -0.0003   YZ=              1.6915

  Exact polarizability:  44.353  -0.000  43.782  -0.001  -2.232  34.102
 Approx polarizability:  79.840  -0.001  79.044  -0.001 -10.975  62.278

                      1                      2                      3
                      A                      A                      A
 Frequencies --    354.6854               372.5531               519.1201
 Red. masses --      8.1199                 8.1344                 5.3976
 Frc consts  --      0.6019                 0.6652                 0.8570
 IR Inten    --      4.5821                 0.1164                 6.5583

                      4                      5                      6
                      A                      A                      A
 Frequencies --    786.3728               792.2451               795.0730
 Red. masses --      5.2810                 1.4344                 1.2004
 Frc consts  --      1.9241                 0.5304                 0.4471
 IR Inten    --      6.1364                 3.9612                65.2714

                      7                      8                      9
                      A                      A                      A
 Frequencies --    900.1868               964.4769              1021.7462
 Red. masses --      4.0587                 1.6987                 1.4129
 Frc consts  --      1.9378                 0.9310                 0.8691
 IR Inten    --      2.6013                22.0194                 0.8377

                     10                     11                     12
                      A                      A                      A
 Frequencies --   1070.9858              1175.0298              1321.3308
 Red. masses --      2.6039                 5.4583                 7.7432
 Frc consts  --      1.7597                 4.4402                 7.9652
 IR Inten    --      5.0557                 2.1896                 5.9164

                     13                     14                     15
                      A                      A                      A
 Frequencies --   1384.0760              3232.7436              3240.4962
 Red. masses --     10.2837                 1.1023                 1.1057
 Frc consts  --     11.6070                 6.7872                 6.8411
 IR Inten    --      6.0839                99.1961                84.3080

 - Thermochemistry -
 -------------------
 Temperature   298.150 Kelvin.  Pressure   1.00000 Atm.
 Atom     1 has atomic number  6 and mass  12.00000

 Molecular mass:    62.01565 amu.
 Principal axes and moments of inertia in atomic units:
                           1         2         3
     Eigenvalues --   156.29079 166.58268 236.51324
           X            1.00000  -0.00001   0.00006
           Y           -0.00000   0.99653   0.08318
           Z           -0.00006  -0.08318   0.99653
 This molecule is an asymmetric top.
 Rotational symmetry number  1.
 Rotational temperatures (Kelvin)      0.55418     0.51994     0.36621
 Rotational constants (GHZ):          11.54733    10.83391     7.63061
 Zero-point vibrational energy     107251.9 (Joules/Mol)
                                   25.63382 (Kcal/Mol)
 Warning -- explicit consideration of   3 degrees of freedom as
           vibrations may cause significant error
 Vibrational temperatures:    510.31   536.02   746.90  1131.41  1139.86
          (Kelvin)           1143.93  1295.17  1387.67  1470.06  1540.91
                             1690.60  1901.10  1991.37  4651.19  4662.35

 Zero-point correction=                           0.040850 (Hartree/Particle)
 Thermal correction to Energy=                    0.045024
 Thermal correction to Enthalpy=                  0.045968
 Thermal correction to Gibbs Free Energy=         0.013493
 Sum of electronic and zero-point Energies=           -191.022504
 Sum of electronic and thermal Energies=              -191.018330
 Sum of electronic and thermal Enthalpies=            -191.017386
 Sum of electronic and thermal Free Energies=         -191.049860

                     E (Thermal)             CV                S
                      KCal/Mol        Cal/Mol-Kelvin    Cal/Mol-Kelvin
 Total                   28.253             14.308             68.348
 Electronic               0.000              0.000              2.755
 Translational            0.889              2.981             38.294
 Rotational               0.889              2.981             23.336
 Vibrational             26.475              8.347              3.964
 Vibration     1          0.731              1.566              1.145
 Vibration     2          0.744              1.529              1.069
 Vibration     3          0.874              1.208              0.612

 Optimization completed.
    -- Stationary point found.
 Normal termination of Gaussian 09 at Tue Jul 19 12:29:36 2016.
