 Gaussian 09, Revision E.01,
 Gaussian 09:  EM64L-G09RevE.01 30-Nov-2015

 ---------------------------------------------
 #p b3lyp/6-311++G(3df,2p) freq symmetry=Loose
 ---------------------------------------------

 ---------
 b3lyp opt
 ---------
 Symbolic Z-matrix:
 Charge =  3 Multiplicity = 2

                         Standard orientation:
 ---------------------------------------------------------------------
 Center     Atomic      Atomic             Coordinates (Angstroms)
 Number     Number       Type             X           Y           Z
 ---------------------------------------------------------------------
      1          6           0       -0.000002    1.937582   -0.475472
      2          6           0       -0.000000    0.686233   -0.105107
      3          6           0        0.000000   -0.686233   -0.105107
      4          6           0        0.000002   -1.937582   -0.475472
      5          6           0        0.000000   -0.000000    1.385632
      6          1           0       -0.000003   -3.048968   -0.673419
      7          1           0        0.000003    3.048968   -0.673419
 ---------------------------------------------------------------------

 SCF Done:  E(UB3LYP) =  -189.718062994     A.U. after   16 cycles

 The electronic state is 2-A.
 Alpha  occ. eigenvalues --  -11.09364 -11.07981 -11.07978 -11.01520 -11.01459
 Alpha  occ. eigenvalues --   -1.65148  -1.54220  -1.48014  -1.27841  -1.25921
 Alpha  occ. eigenvalues --   -1.23796  -1.14781  -1.08747  -1.04300  -1.04081
 Alpha virt. eigenvalues --   -0.88241  -0.87462  -0.85596  -0.76080  -0.65403
 Alpha virt. eigenvalues --   -0.58978  -0.56434  -0.54716  -0.53401  -0.50732
 Alpha virt. eigenvalues --   -0.44983  -0.42572  -0.42207  -0.41641  -0.39769

  Beta  occ. eigenvalues --  -11.09613 -11.07152 -11.07150 -11.01340 -11.01277
  Beta  occ. eigenvalues --   -1.64718  -1.51461  -1.46146  -1.27859  -1.24987
  Beta  occ. eigenvalues --   -1.23298  -1.11536  -1.08485  -1.04406
  Beta virt. eigenvalues --   -0.93243  -0.86579  -0.85278  -0.84511  -0.73865
  Beta virt. eigenvalues --   -0.61746  -0.58492  -0.55652  -0.54629  -0.52609
  Beta virt. eigenvalues --   -0.50495  -0.44388  -0.42346  -0.41813  -0.41629

 Mulliken charges and spin densities:
               1          2
     1  C    0.651414   0.348677
     2  C    0.159874   0.234105
     3  C    0.159874   0.234105
     4  C    0.651414   0.348677
     5  C    0.353853  -0.138437
     6  H    0.511785  -0.013564
     7  H    0.511785  -0.013564
 Sum of Mulliken charges =   3.00000   1.00000

 Dipole moment (field-independent basis, Debye):
    X=             -0.0000    Y=             -0.0000    Z=             -2.1023  Tot=              2.1023
 Quadrupole moment (field-independent basis, Debye-Ang):
   XX=            -21.1601   YY=             36.8575   ZZ=            -13.0389
   XY=             -0.0000   XZ=             -0.0000   YZ=              0.0000

  Exact polarizability:  21.719  -0.000  80.397   0.000   0.000  39.832
 Approx polarizability:  33.425  -0.000 203.662   0.000   0.000 104.839

                      1                      2                      3
                      A                      B                      B
 Frequencies --    174.4599               225.2340               240.6287
 Red. masses --      3.2398                 7.8808                 3.4910
 Frc consts  --      0.0581                 0.2356                 0.1191
 IR Inten    --     77.3495                83.2874                49.7568

                      4                      5                      6
                      B                      A                      A
 Frequencies --    285.4755               406.7873               535.1074
 Red. masses --      5.1527                 4.5637                10.9616
 Frc consts  --      0.2474                 0.4449                 1.8493
 IR Inten    --      0.1979                 0.0000               236.8332

                      7                      8                      9
                      B                      A                      B
 Frequencies --    745.3371               748.0719               848.4769
 Red. masses --      1.3704                 1.3992                 1.3857
 Frc consts  --      0.4485                 0.4613                 0.5877
 IR Inten    --     37.0758                 0.0000                13.3787

                     10                     11                     12
                      A                      A                      B
 Frequencies --    848.6272               863.2063              1528.6739
 Red. masses --      3.3922                 1.7007                 5.4889
 Frc consts  --      1.4393                 0.7466                 7.5572
 IR Inten    --      5.4703                11.5628              1113.3253

                     13                     14                     15
                      A                      B                      A
 Frequencies --   1893.1183              2815.0714              2830.2502
 Red. masses --      6.8841                 1.1622                 1.1623
 Frc consts  --     14.5362                 5.4262                 5.4857
 IR Inten    --    132.0953              1340.4026                43.1064

 - Thermochemistry -
 -------------------
 Temperature   298.150 Kelvin.  Pressure   1.00000 Atm.
 Atom     1 has atomic number  6 and mass  12.00000

 Molecular mass:    62.01565 amu.
 Principal axes and moments of inertia in atomic units:
                           1         2         3
     Eigenvalues --   105.76032 429.03206 534.79238
           X           -0.00000   0.00000   1.00000
           Y            1.00000   0.00000   0.00000
           Z           -0.00000   1.00000   0.00000
 This molecule is an asymmetric top.
 Rotational symmetry number  2.
 Rotational temperatures (Kelvin)      0.81896     0.20188     0.16196
 Rotational constants (GHZ):          17.06444     4.20654     3.37466
 Zero-point vibrational energy      89651.3 (Joules/Mol)
                                   21.42717 (Kcal/Mol)
 Warning -- explicit consideration of   6 degrees of freedom as
           vibrations may cause significant error
 Vibrational temperatures:    251.01   324.06   346.21   410.74   585.28
          (Kelvin)            769.90  1072.37  1076.31  1220.77  1220.98
                             1241.96  2199.42  2723.77  4050.25  4072.09

 Zero-point correction=                           0.034146 (Hartree/Particle)
 Thermal correction to Energy=                    0.039932
 Thermal correction to Enthalpy=                  0.040877
 Thermal correction to Gibbs Free Energy=         0.006127
 Sum of electronic and zero-point Energies=           -189.683917
 Sum of electronic and thermal Energies=              -189.678131
 Sum of electronic and thermal Enthalpies=            -189.677186
 Sum of electronic and thermal Free Energies=         -189.711936

                     E (Thermal)             CV                S
                      KCal/Mol        Cal/Mol-Kelvin    Cal/Mol-Kelvin
 Total                   25.058             19.017             73.136
 Electronic               0.000              0.000              1.377
 Translational            0.889              2.981             38.294
 Rotational               0.889              2.981             23.321
 Vibrational             23.281             13.055             10.144
 Vibration     1          0.627              1.874              2.387
 Vibration     2          0.650              1.803              1.917
 Vibration     3          0.658              1.778              1.798
 Vibration     4          0.683              1.701              1.501
 Vibration     5          0.772              1.455              0.938
 Vibration     6          0.890              1.172              0.576

 Optimization completed.
    -- Stationary point found.
 Normal termination of Gaussian 09 at Tue Jul 19 06:27:53 2016.
