 Gaussian 09, Revision E.01,
 Gaussian 09:  EM64L-G09RevE.01 30-Nov-2015

 ---------------------------------------------
 #p b3lyp/6-311++G(3df,2p) freq symmetry=Loose
 ---------------------------------------------

 ---------
 b3lyp opt
 ---------
 Symbolic Z-matrix:
 Charge =  3 Multiplicity = 4

                         Standard orientation:
 ---------------------------------------------------------------------
 Center     Atomic      Atomic             Coordinates (Angstroms)
 Number     Number       Type             X           Y           Z
 ---------------------------------------------------------------------
      1          6           0       -1.328400    0.113723    0.000000
      2          6           0        0.000000    0.663746   -0.000000
      3          6           0        1.240117    0.070518   -0.000000
      4          6           0        2.474847   -0.307853   -0.000000
      5          6           0       -2.021171   -0.974076    0.000000
      6          1           0       -2.270712    0.813987   -0.000000
      7          1           0        0.078346    1.789666   -0.000000
 ---------------------------------------------------------------------

 SCF Done:  E(UB3LYP) =  -189.655384048     A.U. after   18 cycles

 The electronic state is 4-A'.
 Alpha  occ. eigenvalues --  -11.09933 -11.09864 -11.01862 -11.01791 -10.95902
 Alpha  occ. eigenvalues --   -1.59099  -1.55477  -1.47366  -1.32091  -1.21300
 Alpha  occ. eigenvalues --   -1.16461  -1.13562  -1.11275  -1.09365  -1.06784
 Alpha  occ. eigenvalues --   -1.04104
 Alpha virt. eigenvalues --   -0.88320  -0.83132  -0.75547  -0.72033  -0.60888
 Alpha virt. eigenvalues --   -0.55348  -0.53028  -0.47131  -0.43913  -0.43096
 Alpha virt. eigenvalues --   -0.41727  -0.41462  -0.39648  -0.39532  -0.36198

  Beta  occ. eigenvalues --  -11.07550 -11.06307 -11.01975 -11.00946 -10.95661
  Beta  occ. eigenvalues --   -1.57361  -1.51611  -1.44271  -1.30615  -1.20029
  Beta  occ. eigenvalues --   -1.13604  -1.08909  -1.01549
  Beta virt. eigenvalues --   -0.91541  -0.89182  -0.87819  -0.85559  -0.79174
  Beta virt. eigenvalues --   -0.68485  -0.65970  -0.58941  -0.54667  -0.51910
  Beta virt. eigenvalues --   -0.46625  -0.42933  -0.42764  -0.41483  -0.40872

 Mulliken charges and spin densities:
               1          2
     1  C    0.347405  -0.047317
     2  C   -0.038757  -0.032921
     3  C    0.871707   0.557068
     4  C    0.701716   1.473988
     5  C    0.470917   1.023960
     6  H    0.322167  -0.006597
     7  H    0.324845   0.031818
 Sum of Mulliken charges =   3.00000   3.00000

 Dipole moment (field-independent basis, Debye):
    X=             -0.1088    Y=             -0.2864    Z=              0.0000  Tot=              0.3064
 Quadrupole moment (field-independent basis, Debye-Ang):
   XX=             35.6041   YY=             -8.6058   ZZ=            -22.3319
   XY=              2.0726   XZ=             -0.0000   YZ=             -0.0000

  Exact polarizability:  79.172   2.018  35.292  -0.000   0.000  22.752
 Approx polarizability: 167.585   8.800  72.054  -0.000  -0.000  30.278

                      1                      2                      3
                     A'                     A"                     A"
 Frequencies --    176.7244               181.6164               304.8838
 Red. masses --     10.3620                 2.4604                 3.8035
 Frc consts  --      0.1907                 0.0478                 0.2083
 IR Inten    --      5.2722                 1.6345                27.0157

                      4                      5                      6
                     A'                     A"                     A'
 Frequencies --    310.1957               527.6710               546.9162
 Red. masses --      6.4981                 1.5007                 7.5840
 Frc consts  --      0.3684                 0.2462                 1.3366
 IR Inten    --      3.3442                50.1388                 8.4906

                      7                      8                      9
                     A'                     A"                     A'
 Frequencies --    820.2774               863.7115               950.3463
 Red. masses --      5.2403                 1.7705                 1.3931
 Frc consts  --      2.0774                 0.7782                 0.7413
 IR Inten    --      3.5499                 3.7942                12.7475

                     10                     11                     12
                     A'                     A'                     A'
 Frequencies --   1102.6305              1351.0632              1693.8739
 Red. masses --      1.5403                 2.1888                 9.5092
 Frc consts  --      1.1033                 2.3540                16.0751
 IR Inten    --     21.5752                 3.0178               476.2394

                     13                     14                     15
                     A'                     A'                     A'
 Frequencies --   1813.7641              2393.9122              2725.2925
 Red. masses --     11.1818                 1.0745                 1.0807
 Frc consts  --     21.6732                 3.6279                 4.7292
 IR Inten    --    483.0971               603.9522               452.7179

 - Thermochemistry -
 -------------------
 Temperature   298.150 Kelvin.  Pressure   1.00000 Atm.
 Atom     1 has atomic number  6 and mass  12.00000

 Molecular mass:    62.01565 amu.
 Principal axes and moments of inertia in atomic units:
                           1         2         3
     Eigenvalues --    74.33219 600.91923 675.25142
           X            0.99661  -0.08226   0.00000
           Y            0.08226   0.99661   0.00000
           Z            0.00000  -0.00000   1.00000
 This molecule is an asymmetric top.
 Rotational symmetry number  1.
 Rotational temperatures (Kelvin)      1.16523     0.14414     0.12827
 Rotational constants (GHZ):          24.27940     3.00330     2.67270
 Zero-point vibrational energy      94283.0 (Joules/Mol)
                                   22.53417 (Kcal/Mol)
 Warning -- explicit consideration of   6 degrees of freedom as
           vibrations may cause significant error
 Vibrational temperatures:    254.27   261.31   438.66   446.30   759.20
          (Kelvin)            786.89  1180.19  1242.69  1367.33  1586.44
                             1943.88  2437.10  2609.60  3444.30  3921.08

 Zero-point correction=                           0.035910 (Hartree/Particle)
 Thermal correction to Energy=                    0.041366
 Thermal correction to Enthalpy=                  0.042310
 Thermal correction to Gibbs Free Energy=         0.006631
 Sum of electronic and zero-point Energies=           -189.619474
 Sum of electronic and thermal Energies=              -189.614018
 Sum of electronic and thermal Enthalpies=            -189.613074
 Sum of electronic and thermal Free Energies=         -189.648753

                     E (Thermal)             CV                S
                      KCal/Mol        Cal/Mol-Kelvin    Cal/Mol-Kelvin
 Total                   25.957             17.423             75.091
 Electronic               0.000              0.000              2.755
 Translational            0.889              2.981             38.294
 Rotational               0.889              2.981             24.915
 Vibrational             24.180             11.461              9.128
 Vibration     1          0.628              1.871              2.363
 Vibration     2          0.630              1.865              2.312
 Vibration     3          0.696              1.664              1.390
 Vibration     4          0.699              1.654              1.361
 Vibration     5          0.883              1.189              0.592
 Vibration     6          0.902              1.146              0.551

 Optimization completed.
    -- Stationary point found.
 Normal termination of Gaussian 09 at Tue Jul 19 12:13:59 2016.
