 Gaussian 09, Revision E.01,
 Gaussian 09:  EM64L-G09RevE.01 30-Nov-2015

 ---------------------------------------------
 #p b3lyp/6-311++G(3df,2p) freq symmetry=Loose
 ---------------------------------------------

 ---------
 b3lyp opt
 ---------
 Symbolic Z-matrix:
 Charge =  3 Multiplicity = 4

                         Standard orientation:
 ---------------------------------------------------------------------
 Center     Atomic      Atomic             Coordinates (Angstroms)
 Number     Number       Type             X           Y           Z
 ---------------------------------------------------------------------
      1          6           0       -1.871923   -0.421745    0.000315
      2          6           0       -0.576511    0.128483    0.000066
      3          6           0        0.889153    0.060302   -0.000133
      4          6           0        2.061397   -0.808486   -0.000195
      5          6           0        0.299779    1.257818   -0.000193
      6          1           0       -2.405821   -0.649232   -0.963882
      7          1           0       -2.405548   -0.649001    0.964717
 ---------------------------------------------------------------------

 SCF Done:  E(UB3LYP) =  -189.644932594     A.U. after   18 cycles

 The electronic state is 4-A.
 Alpha  occ. eigenvalues --  -11.14270 -11.06074 -11.04675 -11.04414 -11.00643
 Alpha  occ. eigenvalues --   -1.70681  -1.51107  -1.48667  -1.26436  -1.23089
 Alpha  occ. eigenvalues --   -1.18596  -1.17530  -1.13925  -1.11111  -1.06684
 Alpha  occ. eigenvalues --   -1.00350
 Alpha virt. eigenvalues --   -0.92600  -0.84566  -0.77598  -0.71220  -0.56213
 Alpha virt. eigenvalues --   -0.55580  -0.52115  -0.48744  -0.46640  -0.44865
 Alpha virt. eigenvalues --   -0.43435  -0.41622  -0.41099  -0.39548  -0.37753

  Beta  occ. eigenvalues --  -11.10372 -11.04420 -11.04115 -11.03984 -11.00384
  Beta  occ. eigenvalues --   -1.69565  -1.48721  -1.44174  -1.24613  -1.18496
  Beta  occ. eigenvalues --   -1.17165  -1.15115  -1.10427
  Beta virt. eigenvalues --   -0.91658  -0.88562  -0.88434  -0.83438  -0.76740
  Beta virt. eigenvalues --   -0.75786  -0.67563  -0.54941  -0.52468  -0.48398
  Beta virt. eigenvalues --   -0.47344  -0.44785  -0.44484  -0.42837  -0.41443

 Mulliken charges and spin densities:
               1          2
     1  C   -0.045995   0.159638
     2  C    0.450771   0.091471
     3  C    0.659342   0.105554
     4  C    0.705924   1.753831
     5  C    0.481675   0.901916
     6  H    0.374141  -0.006205
     7  H    0.374141  -0.006205
 Sum of Mulliken charges =   3.00000   3.00000

 Dipole moment (field-independent basis, Debye):
    X=             -0.4683    Y=             -2.3796    Z=              0.0004  Tot=              2.4252
 Quadrupole moment (field-independent basis, Debye-Ang):
   XX=             25.0812   YY=            -11.0336   ZZ=            -17.4098
   XY=             -0.8991   XZ=             -0.0059   YZ=             -0.0006

  Exact polarizability:  69.178   0.550  33.463  -0.007  -0.001  23.569
 Approx polarizability: 128.602  -4.860  63.197  -0.013  -0.003  34.409

                      1                      2                      3
                      A                      A                      A
 Frequencies --    229.8588               325.1511               424.9626
 Red. masses --      4.6287                 3.3972                 1.9944
 Frc consts  --      0.1441                 0.2116                 0.2122
 IR Inten    --     15.8026                13.5516                 2.4240

                      4                      5                      6
                      A                      A                      A
 Frequencies --    466.8528               567.4152               618.9632
 Red. masses --      7.5749                 1.5121                 9.5518
 Frc consts  --      0.9727                 0.2868                 2.1561
 IR Inten    --      5.5879                 0.3529                28.4809

                      7                      8                      9
                      A                      A                      A
 Frequencies --    747.1084               849.5348               910.0663
 Red. masses --     11.0421                 6.8947                 1.7450
 Frc consts  --      3.6314                 2.9318                 0.8515
 IR Inten    --     42.3487               114.0124                 1.7469

                     10                     11                     12
                      A                      A                      A
 Frequencies --   1097.4513              1270.7285              1317.5885
 Red. masses --      1.4649                 1.3739                 3.6100
 Frc consts  --      1.0395                 1.3071                 3.6925
 IR Inten    --     12.4545                51.6109               101.5730

                     13                     14                     15
                      A                      A                      A
 Frequencies --   1615.4789              2736.6827              2828.0934
 Red. masses --     11.5377                 1.0448                 1.1219
 Frc consts  --     17.7407                 4.6104                 5.2869
 IR Inten    --    100.7605               773.7547               367.2460

 - Thermochemistry -
 -------------------
 Temperature   298.150 Kelvin.  Pressure   1.00000 Atm.
 Atom     1 has atomic number  6 and mass  12.00000

 Molecular mass:    62.01565 amu.
 Principal axes and moments of inertia in atomic units:
                           1         2         3
     Eigenvalues --   113.51395 431.67859 531.80604
           X            0.99935   0.03592   0.00014
           Y           -0.03592   0.99935   0.00012
           Z           -0.00014  -0.00012   1.00000
 This molecule is an asymmetric top.
 Rotational symmetry number  1.
 Rotational temperatures (Kelvin)      0.76302     0.20064     0.16287
 Rotational constants (GHZ):          15.89885     4.18075     3.39361
 Zero-point vibrational energy      95736.8 (Joules/Mol)
                                   22.88163 (Kcal/Mol)
 Warning -- explicit consideration of   6 degrees of freedom as
           vibrations may cause significant error
 Vibrational temperatures:    330.72   467.82   611.43   671.70   816.38
          (Kelvin)            890.55  1074.92  1222.29  1309.38  1578.99
                             1828.29  1895.71  2324.31  3937.47  4068.99

 Zero-point correction=                           0.036464 (Hartree/Particle)
 Thermal correction to Energy=                    0.041330
 Thermal correction to Enthalpy=                  0.042274
 Thermal correction to Gibbs Free Energy=         0.007961
 Sum of electronic and zero-point Energies=           -189.608468
 Sum of electronic and thermal Energies=              -189.603603
 Sum of electronic and thermal Enthalpies=            -189.602659
 Sum of electronic and thermal Free Energies=         -189.636972

                     E (Thermal)             CV                S
                      KCal/Mol        Cal/Mol-Kelvin    Cal/Mol-Kelvin
 Total                   25.935             16.652             72.218
 Electronic               0.000              0.000              2.755
 Translational            0.889              2.981             38.294
 Rotational               0.889              2.981             24.770
 Vibrational             24.157             10.690              6.399
 Vibration     1          0.652              1.795              1.880
 Vibration     2          0.709              1.625              1.284
 Vibration     3          0.787              1.416              0.875
 Vibration     4          0.824              1.324              0.746
 Vibration     5          0.923              1.102              0.509
 Vibration     6          0.979              0.992              0.418

 Optimization completed.
    -- Stationary point found.
 Normal termination of Gaussian 09 at Tue Jul 19 09:40:51 2016.
