 Gaussian 09, Revision E.01,
 Gaussian 09:  EM64L-G09RevE.01 30-Nov-2015

 ------------------------------------------------------
 #p b3lyp/6-311++G(3df,2p) freq IOp(2/17=3) IOp(2/18=3)
 ------------------------------------------------------

 ---------
 b3lyp opt
 ---------
 Symbolic Z-matrix:
 Charge =  2 Multiplicity = 1

                         Standard orientation:
 ---------------------------------------------------------------------
 Center     Atomic      Atomic             Coordinates (Angstroms)
 Number     Number       Type             X           Y           Z
 ---------------------------------------------------------------------
      1          6           0       -1.922161    0.000000   -0.413583
      2          6           0       -0.703454    0.000000   -0.120422
      3          6           0        0.703454   -0.000000   -0.120422
      4          6           0        1.922161   -0.000000   -0.413583
      5          6           0       -0.000000    0.000000    1.256438
      6          1           0        3.005428   -0.000000   -0.565284
      7          1           0       -3.005428    0.000000   -0.565284
 ---------------------------------------------------------------------

 SCF Done:  E(RB3LYP) =  -190.573896103     A.U. after   12 cycles

 The electronic state is 1-A1.
 Alpha  occ. eigenvalues --  -10.81697 -10.78343 -10.78340 -10.73720 -10.73670
 Alpha  occ. eigenvalues --   -1.41695  -1.28102  -1.22542  -1.03049  -1.02830
 Alpha  occ. eigenvalues --   -0.99465  -0.89650  -0.86193  -0.78838  -0.77547
 Alpha virt. eigenvalues --   -0.62717  -0.62196  -0.59692  -0.48514  -0.38374
 Alpha virt. eigenvalues --   -0.33342  -0.31741  -0.31264  -0.30940  -0.26023
 Alpha virt. eigenvalues --   -0.25562  -0.25260  -0.23074  -0.22705  -0.22281

 Mulliken charges:
               1
     1  C    0.676372
     2  C   -0.152164
     3  C   -0.152164
     4  C    0.676372
     5  C    0.045985
     6  H    0.452799
     7  H    0.452799
 Sum of Mulliken charges =   2.00000

 Dipole moment (field-independent basis, Debye):
    X=              0.0000    Y=              0.0000    Z=             -1.9328  Tot=              1.9328
 Quadrupole moment (field-independent basis, Debye-Ang):
   XX=             19.6540   YY=            -24.1982   ZZ=            -19.6668
   XY=             -0.0000   XZ=             -0.0000   YZ=             -0.0000

  Exact polarizability:  83.276   0.000  24.387  -0.000  -0.000  38.686
 Approx polarizability: 234.811  -0.000  36.976  -0.000   0.000  90.535

                      1                      2                      3
                     A1                     B1                     B2
 Frequencies --    112.8057               222.4444               225.2850
 Red. masses --      3.1933                 4.1790                 3.9697
 Frc consts  --      0.0239                 0.1218                 0.1187
 IR Inten    --     52.3555                 6.5512                31.2095

                      4                      5                      6
                     A2                     B1                     A1
 Frequencies --    398.9994               558.1213               689.8416
 Red. masses --      6.7417                10.9557                 8.4428
 Frc consts  --      0.6324                 2.0107                 2.3672
 IR Inten    --      0.0000               197.7354               108.5050

                      7                      8                      9
                     A2                     B2                     A1
 Frequencies --    708.9020               713.6491               892.9781
 Red. masses --      1.2692                 1.3018                 4.0118
 Frc consts  --      0.3758                 0.3906                 1.8848
 IR Inten    --      0.0000                66.5984                45.2434

                     10                     11                     12
                     B1                     A1                     B1
 Frequencies --    904.7132               919.7809              1778.4886
 Red. masses --      1.4034                 1.6868                 5.6193
 Frc consts  --      0.6768                 0.8408                10.4722
 IR Inten    --     10.4756                 0.6862               820.9031

                     13                     14                     15
                     A1                     B1                     A1
 Frequencies --   2021.1244              3157.8451              3162.6032
 Red. masses --      6.7325                 1.1579                 1.1547
 Frc consts  --     16.2037                 6.8033                 6.8046
 IR Inten    --    102.3435               732.0506                12.7347

 - Thermochemistry -
 -------------------
 Temperature   298.150 Kelvin.  Pressure   1.00000 Atm.
 Atom     1 has atomic number  6 and mass  12.00000

 Molecular mass:    62.01565 amu.
 Principal axes and moments of inertia in atomic units:
                           1         2         3
     Eigenvalues --    85.77952 424.08451 509.86403
           X            1.00000   0.00000   0.00000
           Y           -0.00000   0.00000   1.00000
           Z            0.00000   1.00000  -0.00000
 This molecule is an asymmetric top.
 Rotational symmetry number  2.
 Rotational temperatures (Kelvin)      1.00973     0.20424     0.16988
 Rotational constants (GHZ):          21.03930     4.25562     3.53965
 Zero-point vibrational energy      98498.0 (Joules/Mol)
                                   23.54159 (Kcal/Mol)
 Warning -- explicit consideration of   5 degrees of freedom as
           vibrations may cause significant error
 Vibrational temperatures:    162.30   320.05   324.13   574.07   803.01
          (Kelvin)            992.53  1019.95  1026.78  1284.79  1301.68
                             1323.36  2558.85  2907.94  4543.43  4550.27

 Zero-point correction=                           0.037516 (Hartree/Particle)
 Thermal correction to Energy=                    0.043096
 Thermal correction to Enthalpy=                  0.044040
 Thermal correction to Gibbs Free Energy=         0.010194
 Sum of electronic and zero-point Energies=           -190.536380
 Sum of electronic and thermal Energies=              -190.530800
 Sum of electronic and thermal Enthalpies=            -190.529856
 Sum of electronic and thermal Free Energies=         -190.563702

                     E (Thermal)             CV                S
                      KCal/Mol        Cal/Mol-Kelvin    Cal/Mol-Kelvin
 Total                   27.043             18.084             71.236
 Electronic               0.000              0.000              0.000
 Translational            0.889              2.981             38.294
 Rotational               0.889              2.981             23.054
 Vibrational             25.266             12.122              9.888
 Vibration     1          0.607              1.939              3.220
 Vibration     2          0.648              1.807              1.939
 Vibration     3          0.650              1.803              1.916
 Vibration     4          0.765              1.472              0.966
 Vibration     5          0.914              1.122              0.528

 Optimization completed.
    -- Stationary point found.
 Normal termination of Gaussian 09 at Thu Jan 31 05:01:09 2019.
