 Gaussian 09, Revision E.01,
 Gaussian 09:  EM64L-G09RevE.01 30-Nov-2015

 ---------------------------------------------
 #p b3lyp/6-311++G(3df,2p) freq symmetry=Loose
 ---------------------------------------------

 ---------
 b3lyp opt
 ---------
 Symbolic Z-matrix:
 Charge =  3 Multiplicity = 2

                         Standard orientation:
 ---------------------------------------------------------------------
 Center     Atomic      Atomic             Coordinates (Angstroms)
 Number     Number       Type             X           Y           Z
 ---------------------------------------------------------------------
      1          6           0       -0.493113    0.000003   -0.075036
      2          6           0        0.522137   -1.080007   -0.133947
      3          6           0        1.271423   -0.000016    0.363993
      4          6           0        0.522137    1.080018   -0.133851
      5          6           0       -2.027228   -0.000006    0.131372
      6          1           0        0.613931   -2.148064   -0.457688
      7          1           0        0.613931    2.148104   -0.457497
 ---------------------------------------------------------------------

 SCF Done:  E(UB3LYP) =  -189.690675076     A.U. after   18 cycles

 The electronic state is 2-A.
 Alpha  occ. eigenvalues --  -11.15907 -11.08693 -11.06533 -11.06531 -11.06280
 Alpha  occ. eigenvalues --   -1.74836  -1.50336  -1.45831  -1.31799  -1.27860
 Alpha  occ. eigenvalues --   -1.21130  -1.18745  -1.18127  -1.08983  -1.04876
 Alpha virt. eigenvalues --   -0.91166  -0.89236  -0.87469  -0.80411  -0.72979
 Alpha virt. eigenvalues --   -0.60698  -0.55522  -0.52828  -0.52661  -0.49842
 Alpha virt. eigenvalues --   -0.48817  -0.45389  -0.44075  -0.41608  -0.41512

  Beta  occ. eigenvalues --  -11.15638 -11.07250 -11.06573 -11.06569 -11.05842
  Beta  occ. eigenvalues --   -1.74019  -1.48734  -1.45685  -1.29458  -1.27728
  Beta  occ. eigenvalues --   -1.20498  -1.18564  -1.15488  -1.08829
  Beta virt. eigenvalues --   -0.92204  -0.89089  -0.87634  -0.86930  -0.76722
  Beta virt. eigenvalues --   -0.71008  -0.59724  -0.55187  -0.52370  -0.52148
  Beta virt. eigenvalues --   -0.49102  -0.48553  -0.44746  -0.43948  -0.41364

 Mulliken charges and spin densities:
               1          2
     1  C    0.442895   0.201759
     2  C    0.227964  -0.018190
     3  C    0.627845   0.677413
     4  C    0.227964  -0.018190
     5  C    0.594140   0.149818
     6  H    0.439596   0.003695
     7  H    0.439596   0.003695
 Sum of Mulliken charges =   3.00000   1.00000

 Dipole moment (field-independent basis, Debye):
    X=             -0.8335    Y=              0.0000    Z=             -0.4756  Tot=              0.9597
 Quadrupole moment (field-independent basis, Debye-Ang):
   XX=              2.4453   YY=             -0.1944   ZZ=            -19.7181
   XY=              0.0000   XZ=             -0.6586   YZ=              0.0009

  Exact polarizability:  63.750  -0.000  38.360   1.273   0.001  22.874
 Approx polarizability: 146.428  -0.000  67.343   6.913   0.001  36.143

                      1                      2                      3
                      A                      A                      A
 Frequencies --    273.4251               299.5735               345.0232
 Red. masses --      6.6258                 5.7772                 3.0965
 Frc consts  --      0.2919                 0.3055                 0.2172
 IR Inten    --      0.6721                 1.0339                43.6494

                      4                      5                      6
                      A                      A                      A
 Frequencies --    547.4584               644.0445               782.0064
 Red. masses --      7.6051                 5.5647                 6.0764
 Frc consts  --      1.3429                 1.3600                 2.1894
 IR Inten    --    114.6194                18.3868                35.3276

                      7                      8                      9
                      A                      A                      A
 Frequencies --    871.3875               975.8352              1004.4896
 Red. masses --      1.9032                 1.4283                 1.8167
 Frc consts  --      0.8514                 0.8013                 1.0800
 IR Inten    --    133.5337                 0.0914               131.9403

                     10                     11                     12
                      A                      A                      A
 Frequencies --   1047.8597              1102.1039              1253.7590
 Red. masses --      1.2295                 1.9991                 6.5609
 Frc consts  --      0.7954                 1.4306                 6.0763
 IR Inten    --      1.4093                 3.3228                86.0300

                     13                     14                     15
                      A                      A                      A
 Frequencies --   1307.6152              2868.4179              2884.6368
 Red. masses --      6.5511                 1.1203                 1.1236
 Frc consts  --      6.5997                 5.4311                 5.5085
 IR Inten    --    194.9507               780.2330                78.2356

 - Thermochemistry -
 -------------------
 Temperature   298.150 Kelvin.  Pressure   1.00000 Atm.
 Atom     1 has atomic number  6 and mass  12.00000

 Molecular mass:    62.01565 amu.
 Principal axes and moments of inertia in atomic units:
                           1         2         3
     Eigenvalues --   142.82213 291.45044 414.99400
           X            0.99997  -0.00000  -0.00755
           Y           -0.00000   1.00000  -0.00004
           Z            0.00755   0.00004   0.99997
 This molecule is an asymmetric top.
 Rotational symmetry number  1.
 Rotational temperatures (Kelvin)      0.60645     0.29718     0.20871
 Rotational constants (GHZ):          12.63629     6.19227     4.34884
 Zero-point vibrational energy      96943.2 (Joules/Mol)
                                   23.16998 (Kcal/Mol)
 Warning -- explicit consideration of   4 degrees of freedom as
           vibrations may cause significant error
 Vibrational temperatures:    393.40   431.02   496.41   787.67   926.64
          (Kelvin)           1125.13  1253.73  1404.01  1445.23  1507.63
                             1585.68  1803.88  1881.36  4127.01  4150.34

 Zero-point correction=                           0.036924 (Hartree/Particle)
 Thermal correction to Energy=                    0.041627
 Thermal correction to Enthalpy=                  0.042571
 Thermal correction to Gibbs Free Energy=         0.009352
 Sum of electronic and zero-point Energies=           -189.653751
 Sum of electronic and thermal Energies=              -189.649048
 Sum of electronic and thermal Enthalpies=            -189.648104
 Sum of electronic and thermal Free Energies=         -189.681323

                     E (Thermal)             CV                S
                      KCal/Mol        Cal/Mol-Kelvin    Cal/Mol-Kelvin
 Total                   26.121             15.950             69.917
 Electronic               0.000              0.000              1.377
 Translational            0.889              2.981             38.294
 Rotational               0.889              2.981             24.361
 Vibrational             24.344              9.989              5.884
 Vibration     1          0.676              1.722              1.574
 Vibration     2          0.692              1.674              1.419
 Vibration     3          0.723              1.585              1.189
 Vibration     4          0.903              1.145              0.549

 Normal termination of Gaussian 09 at Tue Jul 19 07:41:10 2016.
