 Gaussian 09, Revision E.01,
 Gaussian 09:  EM64L-G09RevE.01 30-Nov-2015

 ---------------------------------------------
 #p b3lyp/6-311++G(3df,2p) freq symmetry=Loose
 ---------------------------------------------

 ---------
 b3lyp opt
 ---------
 Symbolic Z-matrix:
 Charge =  3 Multiplicity = 2

                         Standard orientation:
 ---------------------------------------------------------------------
 Center     Atomic      Atomic             Coordinates (Angstroms)
 Number     Number       Type             X           Y           Z
 ---------------------------------------------------------------------
      1          6           0        0.000000    0.000000    2.589385
      2          6           0       -0.000000    0.000000    1.302052
      3          6           0        0.000000   -0.000000    0.000016
      4          6           0       -0.000000   -0.000000   -1.302001
      5          6           0       -0.000000    0.000000   -2.589448
      6          1           0        0.000000   -0.000000    3.712141
      7          1           0        0.000000   -0.000000   -3.712157
 ---------------------------------------------------------------------

 SCF Done:  E(UB3LYP) =  -189.879283629     A.U. after   15 cycles

 Unable to determine electronic state:  an orbital has unidentified symmetry.
 Alpha  occ. eigenvalues --  -11.04315 -11.04310 -11.02931 -10.97674 -10.97667
 Alpha  occ. eigenvalues --   -1.57185  -1.53418  -1.45882  -1.37142  -1.22251
 Alpha  occ. eigenvalues --   -1.21837  -1.10734  -1.09569  -1.04361  -1.02090
 Alpha virt. eigenvalues --   -0.87419  -0.86421  -0.72060  -0.70322  -0.55913
 Alpha virt. eigenvalues --   -0.55289  -0.54764  -0.51509  -0.49475  -0.45198
 Alpha virt. eigenvalues --   -0.44608  -0.40182  -0.39899  -0.37059  -0.36311

  Beta  occ. eigenvalues --  -11.03772 -11.03767 -11.03447 -10.97127 -10.97121
  Beta  occ. eigenvalues --   -1.56368  -1.50870  -1.44739  -1.36530  -1.21617
  Beta  occ. eigenvalues --   -1.21261  -1.09536  -1.08161  -1.01060
  Beta virt. eigenvalues --   -0.93768  -0.86280  -0.84175  -0.69580  -0.67599
  Beta virt. eigenvalues --   -0.54549  -0.54222  -0.53431  -0.50508  -0.49355
  Beta virt. eigenvalues --   -0.45092  -0.44157  -0.39908  -0.39895  -0.36955

 Mulliken charges and spin densities:
               1          2
     1  C    0.640122   0.175285
     2  C    0.643516   0.240653
     3  C   -0.573737   0.188622
     4  C    0.643649   0.240588
     5  C    0.640212   0.175312
     6  H    0.503101  -0.010230
     7  H    0.503136  -0.010229
 Sum of Mulliken charges =   3.00000   1.00000

 Dipole moment (field-independent basis, Debye):
    X=              0.0000    Y=             -0.0000    Z=             -0.0010  Tot=              0.0010
 Quadrupole moment (field-independent basis, Debye-Ang):
   XX=            -21.9331   YY=            -20.4146   ZZ=             74.0193
   XY=              0.0000   XZ=             -0.0000   YZ=              0.0000

  Exact polarizability:  20.353   0.000  20.074  -0.002   0.000 122.758
 Approx polarizability:  27.660  -0.000  28.207   0.000   0.000 366.826

                      1                      2                      3
                     ?A                     ?A                     ?B
 Frequencies --    145.5973               148.6882               304.4730
 Red. masses --      3.7044                 3.7767                 4.5111
 Frc consts  --      0.0463                 0.0492                 0.2464
 IR Inten    --     40.1786                45.7213                 0.0002

                      4                      5                      6
                     ?B                     ?A                     ?A
 Frequencies --    309.2260               611.0666               657.8722
 Red. masses --      3.9451                 4.7959                 5.6675
 Frc consts  --      0.2223                 1.0551                 1.4452
 IR Inten    --      0.0000                14.8137                32.0503

                      7                      8                      9
                     SG                     ?B                     ?A
 Frequencies --    753.7015               798.2067               805.7354
 Red. masses --      7.0124                 1.3444                 1.4532
 Frc consts  --      2.3470                 0.5047                 0.5558
 IR Inten    --      0.0000                 0.0068                33.1012

                     10                     11                     12
                     ?B                     ?A                     SG
 Frequencies --    832.5497               842.6022              1313.9421
 Red. masses --      1.4044                 1.5363                 7.2554
 Frc consts  --      0.5736                 0.6427                 7.3801
 IR Inten    --      0.0012                18.7337               410.9727

                     13                     14                     15
                     SG                     SG                     SG
 Frequencies --   1914.8565              1928.6189              2892.2764
 Red. masses --      5.9880                 6.5270                 1.1928
 Frc consts  --     12.9362                14.3039                 5.8790
 IR Inten    --      0.0627              2147.0536              1125.2857

                     16
                     SG
 Frequencies --   2896.0881
 Red. masses --      1.1775
 Frc consts  --      5.8187
 IR Inten    --      3.2334

 - Thermochemistry -
 -------------------
 Temperature   298.150 Kelvin.  Pressure   1.00000 Atm.
 Atom     1 has atomic number  6 and mass  12.00000

 Molecular mass:    62.01565 amu.
 Principal axes and moments of inertia in atomic units:
                           1         2         3
     Eigenvalues --     0.00000 819.14578 819.14578
           X            0.00000   0.99095   0.13425
           Y            0.00000  -0.13425   0.99095
           Z            1.00000  -0.00000  -0.00000
 This molecule is a prolate symmetric top.
 Rotational symmetry number  1.
 Warning -- assumption of classical behavior for rotation
           may cause significant error
 Rotational temperature (Kelvin)      0.10574
 Rotational constant (GHZ):           2.203199
 Zero-point vibrational energy     102612.7 (Joules/Mol)
                                   24.52502 (Kcal/Mol)
 Warning -- explicit consideration of   5 degrees of freedom as
           vibrations may cause significant error
 Vibrational temperatures:    209.48   213.93   438.07   444.91   879.19
          (Kelvin)            946.53  1084.41  1148.44  1159.27  1197.85
                             1212.32  1890.47  2755.05  2774.85  4161.34
                             4166.82

 Zero-point correction=                           0.039083 (Hartree/Particle)
 Thermal correction to Energy=                    0.044246
 Thermal correction to Enthalpy=                  0.045190
 Thermal correction to Gibbs Free Energy=         0.013137
 Sum of electronic and zero-point Energies=           -189.840201
 Sum of electronic and thermal Energies=              -189.835038
 Sum of electronic and thermal Enthalpies=            -189.834094
 Sum of electronic and thermal Free Energies=         -189.866147

                     E (Thermal)             CV                S
                      KCal/Mol        Cal/Mol-Kelvin    Cal/Mol-Kelvin
 Total                   27.765             17.402             67.461
 Electronic               0.000              0.000              1.377
 Translational            0.889              2.981             38.294
 Rotational               0.592              1.987             17.774
 Vibrational             26.283             12.434             10.015
 Vibration     1          0.617              1.907              2.729
 Vibration     2          0.618              1.904              2.689
 Vibration     3          0.695              1.665              1.392
 Vibration     4          0.699              1.656              1.366
 Vibration     5          0.970              1.008              0.431

 Optimization completed.
    -- Stationary point found.
 Normal termination of Gaussian 09 at Tue Jul 19 06:27:49 2016.
