 Gaussian 09, Revision E.01,
 Gaussian 09:  EM64L-G09RevE.01 30-Nov-2015

 ---------------------------------------------
 #p b3lyp/6-311++G(3df,2p) freq symmetry=Loose
 ---------------------------------------------

 ---------
 b3lyp opt
 ---------
 Symbolic Z-matrix:
 Charge =  1 Multiplicity = 4

                         Standard orientation:
 ---------------------------------------------------------------------
 Center     Atomic      Atomic             Coordinates (Angstroms)
 Number     Number       Type             X           Y           Z
 ---------------------------------------------------------------------
      1          6           0        1.231643    0.355548   -0.000000
      2          6           0       -0.000000    1.092915   -0.000000
      3          6           0       -1.200197    0.276180   -0.000000
      4          6           0       -0.671225   -1.046685    0.000000
      5          6           0        0.633893   -0.898763    0.000000
      6          1           0        2.255414    0.693398   -0.000000
      7          1           0       -2.220100    0.631429   -0.000000
 ---------------------------------------------------------------------

 SCF Done:  E(UB3LYP) =  -191.135291717     A.U. after   18 cycles

 The electronic state is 4-A'.
 Alpha  occ. eigenvalues --  -10.51689 -10.50698 -10.50442 -10.50387 -10.49300
 Alpha  occ. eigenvalues --   -1.19673  -1.01533  -0.97555  -0.82331  -0.78194
 Alpha  occ. eigenvalues --   -0.74373  -0.69608  -0.69268  -0.58766  -0.53247
 Alpha  occ. eigenvalues --   -0.52178  -0.50916
 Alpha virt. eigenvalues --   -0.36536  -0.25739  -0.21015  -0.15137  -0.12601
 Alpha virt. eigenvalues --   -0.11992  -0.10769  -0.10375  -0.08809  -0.07833
 Alpha virt. eigenvalues --   -0.06177  -0.05364  -0.04307  -0.03616  -0.02745

  Beta  occ. eigenvalues --  -10.50829 -10.49896 -10.49642 -10.49489 -10.47416
  Beta  occ. eigenvalues --   -1.16805  -0.98186  -0.94046  -0.80161  -0.76314
  Beta  occ. eigenvalues --   -0.72497  -0.68102  -0.62235  -0.54155
  Beta virt. eigenvalues --   -0.41369  -0.40229  -0.36347  -0.33928  -0.18067
  Beta virt. eigenvalues --   -0.15141  -0.14798  -0.12370  -0.11105  -0.10211
  Beta virt. eigenvalues --   -0.09829  -0.08413  -0.07510  -0.05586  -0.04811

 Mulliken charges and spin densities:
               1          2
     1  C   -0.139037   0.518799
     2  C    0.258257   1.255774
     3  C   -0.306113   0.505512
     4  C    0.088364   1.229074
     5  C    0.564313  -0.469079
     6  H    0.283085  -0.019474
     7  H    0.251132  -0.020605
 Sum of Mulliken charges =   1.00000   3.00000

 Dipole moment (field-independent basis, Debye):
    X=              0.4046    Y=              0.6040    Z=             -0.0000  Tot=              0.7270
 Quadrupole moment (field-independent basis, Debye-Ang):
   XX=            -13.8813   YY=            -22.8832   ZZ=            -26.2746
   XY=             -0.2835   XZ=             -0.0000   YZ=              0.0000

  Exact polarizability:  55.801   1.615  50.906   0.000   0.000  26.921
 Approx polarizability: 108.386   0.032 110.008  -0.000  -0.000  39.859

                      1                      2                      3
                     A"                     A"                     A'
 Frequencies --    178.5092               435.3426               467.6925
 Red. masses --      3.4911                 2.4676                10.2448
 Frc consts  --      0.0655                 0.2755                 1.3203
 IR Inten    --      0.1019                 8.5495                39.0201

                      4                      5                      6
                     A'                     A"                     A"
 Frequencies --    729.7954               737.8831               791.8233
 Red. masses --      7.0687                 1.5395                 1.6824
 Frc consts  --      2.2182                 0.4939                 0.6215
 IR Inten    --     11.9941                 0.8484                18.4703

                      7                      8                      9
                     A'                     A'                     A'
 Frequencies --    876.2861              1154.1150              1163.1123
 Red. masses --      3.6067                 5.8113                 1.6813
 Frc consts  --      1.6317                 4.5606                 1.3401
 IR Inten    --      1.6934                17.8823                 5.9394

                     10                     11                     12
                     A'                     A'                     A'
 Frequencies --   1191.9237              1223.1902              1316.8199
 Red. masses --      1.9975                 2.9881                 2.8689
 Frc consts  --      1.6720                 2.6341                 2.9310
 IR Inten    --     16.1814                23.7517                 3.3438

                     13                     14                     15
                     A'                     A'                     A'
 Frequencies --   1451.2454              3230.3849              3258.1039
 Red. masses --      9.8666                 1.0960                 1.1011
 Frc consts  --     12.2433                 6.7387                 6.8864
 IR Inten    --     41.5923                35.4451                43.9967

 - Thermochemistry -
 -------------------
 Temperature   298.150 Kelvin.  Pressure   1.00000 Atm.
 Atom     1 has atomic number  6 and mass  12.00000

 Molecular mass:    62.01565 amu.
 Principal axes and moments of inertia in atomic units:
                           1         2         3
     Eigenvalues --   142.43633 201.37053 343.80686
           X            0.98233  -0.18715   0.00000
           Y            0.18715   0.98233   0.00000
           Z           -0.00000  -0.00000   1.00000
 This molecule is an asymmetric top.
 Rotational symmetry number  1.
 Rotational temperatures (Kelvin)      0.60809     0.43012     0.25193
 Rotational constants (GHZ):          12.67051     8.96229     5.24929
 Zero-point vibrational energy     108897.4 (Joules/Mol)
                                   26.02711 (Kcal/Mol)
 Warning -- explicit consideration of   3 degrees of freedom as
           vibrations may cause significant error
 Vibrational temperatures:    256.83   626.36   672.90  1050.01  1061.65
          (Kelvin)           1139.26  1260.78  1660.51  1673.46  1714.91
                             1759.90  1894.61  2088.02  4647.80  4687.68

 Zero-point correction=                           0.041477 (Hartree/Particle)
 Thermal correction to Energy=                    0.045858
 Thermal correction to Enthalpy=                  0.046802
 Thermal correction to Gibbs Free Energy=         0.013588
 Sum of electronic and zero-point Energies=           -191.093815
 Sum of electronic and thermal Energies=              -191.089433
 Sum of electronic and thermal Enthalpies=            -191.088489
 Sum of electronic and thermal Free Energies=         -191.121703

                     E (Thermal)             CV                S
                      KCal/Mol        Cal/Mol-Kelvin    Cal/Mol-Kelvin
 Total                   28.776             14.371             69.905
 Electronic               0.000              0.000              2.755
 Translational            0.889              2.981             38.294
 Rotational               0.889              2.981             23.804
 Vibrational             26.999              8.409              5.052
 Vibration     1          0.629              1.869              2.344
 Vibration     2          0.796              1.393              0.841
 Vibration     3          0.825              1.322              0.744

 Optimization completed.
    -- Stationary point found.
 Normal termination of Gaussian 09 at Tue Jul 19 12:21:39 2016.
