 Gaussian 09, Revision E.01,
 Gaussian 09:  EM64L-G09RevE.01 30-Nov-2015

 ---------------------------------------------
 #p b3lyp/6-311++G(3df,2p) freq symmetry=Loose
 ---------------------------------------------

 ---------
 b3lyp opt
 ---------
 Symbolic Z-matrix:
 Charge =  0 Multiplicity = 3

                         Standard orientation:
 ---------------------------------------------------------------------
 Center     Atomic      Atomic             Coordinates (Angstroms)
 Number     Number       Type             X           Y           Z
 ---------------------------------------------------------------------
      1          6           0       -0.702239   -0.113275    0.364286
      2          6           0        0.541891    0.792540    0.078908
      3          6           0        1.642809   -0.134018   -0.032161
      4          6           0        0.511769   -0.807418   -0.239679
      5          6           0       -1.924408    0.026189   -0.329154
      6          1           0        0.455485    1.719399   -0.482251
      7          1           0       -0.874427   -0.303505    1.429051
 ---------------------------------------------------------------------

 SCF Done:  E(UB3LYP) =  -191.359958408     A.U. after   25 cycles

 The electronic state is 3-A.
 Alpha  occ. eigenvalues --  -10.28431 -10.28013 -10.26843 -10.26511 -10.21960
 Alpha  occ. eigenvalues --   -0.98462  -0.80776  -0.65140  -0.62605  -0.55644
 Alpha  occ. eigenvalues --   -0.47929  -0.44131  -0.38674  -0.34567  -0.29600
 Alpha  occ. eigenvalues --   -0.26557  -0.25092
 Alpha virt. eigenvalues --   -0.14938  -0.05624  -0.03783   0.00151   0.00650
 Alpha virt. eigenvalues --    0.03844   0.03997   0.06577   0.06957   0.07177
 Alpha virt. eigenvalues --    0.07364   0.08182   0.09319   0.10766   0.11322

  Beta  occ. eigenvalues --  -10.27560 -10.26761 -10.26570 -10.25568 -10.21708
  Beta  occ. eigenvalues --   -0.97371  -0.79271  -0.62907  -0.60324  -0.54457
  Beta  occ. eigenvalues --   -0.44725  -0.42130  -0.36184  -0.32562  -0.27373
  Beta virt. eigenvalues --   -0.14566  -0.13545  -0.11740  -0.03548  -0.02313
  Beta virt. eigenvalues --    0.00614   0.01187   0.04127   0.05276   0.06722
  Beta virt. eigenvalues --    0.07066   0.07784   0.07981   0.08353   0.09522

 Mulliken charges and spin densities:
               1          2
     1  C    0.376372  -0.207442
     2  C    0.062234   0.528329
     3  C   -0.449563   0.025394
     4  C    0.233592   0.740279
     5  C   -0.646837   0.884968
     6  H    0.202491   0.033541
     7  H    0.221711  -0.005070
 Sum of Mulliken charges =  -0.00000   2.00000

 Dipole moment (field-independent basis, Debye):
    X=             -1.0682    Y=              0.7512    Z=              1.4856  Tot=              1.9780
 Quadrupole moment (field-independent basis, Debye-Ang):
   XX=            -41.0477   YY=            -28.2983   ZZ=            -28.2890
   XY=              1.3115   XZ=             -2.7776   YZ=             -1.6145

  Exact polarizability:  83.908  -1.207  50.495   1.581   1.359  42.022
 Approx polarizability: 152.021  -1.011  87.548   4.162   4.553  65.060

                      1                      2                      3
                      A                      A                      A
 Frequencies --    188.4003               316.6946               405.4581
 Red. masses --      8.1736                 6.8069                 7.7059
 Frc consts  --      0.1709                 0.4022                 0.7464
 IR Inten    --     25.1270                15.0984                29.7343

                      4                      5                      6
                      A                      A                      A
 Frequencies --    516.6081               642.7402               783.9085
 Red. masses --      7.8218                 4.0938                 2.2429
 Frc consts  --      1.2299                 0.9964                 0.8121
 IR Inten    --     20.3229                25.6243                22.6678

                      7                      8                      9
                      A                      A                      A
 Frequencies --    876.8816               922.7039               995.9037
 Red. masses --      2.3485                 1.3937                 2.7282
 Frc consts  --      1.0639                 0.6991                 1.5943
 IR Inten    --      9.9459                 7.8269                 1.7655

                     10                     11                     12
                      A                      A                      A
 Frequencies --   1035.8115              1114.2052              1216.8840
 Red. masses --      2.1434                 1.1469                 2.9519
 Frc consts  --      1.3549                 0.8389                 2.5755
 IR Inten    --      2.1822                 0.6855                25.4422

                     13                     14                     15
                      A                      A                      A
 Frequencies --   1454.4404              3034.8884              3112.1842
 Red. masses --     10.1888                 1.0802                 1.0896
 Frc consts  --     12.6989                 5.8620                 6.2178
 IR Inten    --     17.5803                13.0520                 0.6419

 - Thermochemistry -
 -------------------
 Temperature   298.150 Kelvin.  Pressure   1.00000 Atm.
 Atom     1 has atomic number  6 and mass  12.00000

 Molecular mass:    62.01565 amu.
 Principal axes and moments of inertia in atomic units:
                           1         2         3
     Eigenvalues --    88.15709 343.63794 390.35937
           X            0.99975   0.01238  -0.01839
           Y           -0.01409   0.99529  -0.09592
           Z            0.01712   0.09616   0.99522
 This molecule is an asymmetric top.
 Rotational symmetry number  1.
 Rotational temperatures (Kelvin)      0.98249     0.25205     0.22188
 Rotational constants (GHZ):          20.47188     5.25187     4.62328
 Zero-point vibrational energy      99396.0 (Joules/Mol)
                                   23.75621 (Kcal/Mol)
 Warning -- explicit consideration of   4 degrees of freedom as
           vibrations may cause significant error
 Vibrational temperatures:    271.07   455.65   583.36   743.28   924.76
          (Kelvin)           1127.87  1261.64  1327.56  1432.88  1490.30
                             1603.09  1750.82  2092.61  4366.52  4477.73

 Zero-point correction=                           0.037858 (Hartree/Particle)
 Thermal correction to Energy=                    0.042630
 Thermal correction to Enthalpy=                  0.043574
 Thermal correction to Gibbs Free Energy=         0.009952
 Sum of electronic and zero-point Energies=           -191.322100
 Sum of electronic and thermal Energies=              -191.317329
 Sum of electronic and thermal Enthalpies=            -191.316384
 Sum of electronic and thermal Free Energies=         -191.350007

                     E (Thermal)             CV                S
                      KCal/Mol        Cal/Mol-Kelvin    Cal/Mol-Kelvin
 Total                   26.751             16.025             70.764
 Electronic               0.000              0.000              2.183
 Translational            0.889              2.981             38.294
 Rotational               0.889              2.981             23.985
 Vibrational             24.973             10.063              6.302
 Vibration     1          0.633              1.856              2.244
 Vibration     2          0.704              1.642              1.327
 Vibration     3          0.770              1.458              0.943
 Vibration     4          0.872              1.213              0.618

 Optimization completed.
    -- Stationary point found.
 Normal termination of Gaussian 09 at Sun Jun 19 01:55:23 2016.
