 Gaussian 09, Revision E.01,
 Gaussian 09:  EM64L-G09RevE.01 30-Nov-2015

 ---------------------------------------------
 #p b3lyp/6-311++G(3df,2p) freq symmetry=Loose
 ---------------------------------------------

 ---------
 b3lyp opt
 ---------
 Symbolic Z-matrix:
 Charge =  1 Multiplicity = 4

                         Standard orientation:
 ---------------------------------------------------------------------
 Center     Atomic      Atomic             Coordinates (Angstroms)
 Number     Number       Type             X           Y           Z
 ---------------------------------------------------------------------
      1          6           0       -0.565526   -0.062083    0.082412
      2          6           0        0.654541    0.830844    0.056555
      3          6           0        1.538833   -0.166188   -0.378112
      4          6           0        0.556078   -0.893264    0.298428
      5          6           0       -1.870943   -0.090246   -0.113999
      6          1           0       -2.732758    0.536789   -0.276667
      7          1           0        0.854865    1.748831    0.604962
 ---------------------------------------------------------------------

 SCF Done:  E(UB3LYP) =  -191.106866075     A.U. after   18 cycles

 The electronic state is 4-A.
 Alpha  occ. eigenvalues --  -10.53847 -10.52266 -10.51158 -10.49659 -10.48168
 Alpha  occ. eigenvalues --   -1.23739  -1.03256  -0.90036  -0.88110  -0.75441
 Alpha  occ. eigenvalues --   -0.75221  -0.69275  -0.66053  -0.58464  -0.54724
 Alpha  occ. eigenvalues --   -0.52466  -0.49560
 Alpha virt. eigenvalues --   -0.31358  -0.30195  -0.21216  -0.15021  -0.13489
 Alpha virt. eigenvalues --   -0.10945  -0.10653  -0.10217  -0.08738  -0.07840
 Alpha virt. eigenvalues --   -0.06577  -0.05362  -0.04688  -0.04018  -0.02873

  Beta  occ. eigenvalues --  -10.52173 -10.51614 -10.49913 -10.49687 -10.46036
  Beta  occ. eigenvalues --   -1.21791  -0.99677  -0.87483  -0.84807  -0.73455
  Beta  occ. eigenvalues --   -0.71299  -0.66829  -0.64075  -0.52645
  Beta virt. eigenvalues --   -0.40777  -0.38576  -0.33219  -0.27253  -0.27018
  Beta virt. eigenvalues --   -0.18419  -0.14539  -0.12674  -0.10395  -0.09652
  Beta virt. eigenvalues --   -0.09334  -0.08047  -0.07357  -0.05926  -0.04874

 Mulliken charges and spin densities:
               1          2
     1  C    0.421232  -0.118924
     2  C   -0.005544   0.327370
     3  C   -0.096968   0.621201
     4  C    0.276719   0.852717
     5  C   -0.154701   1.289737
     6  H    0.289645  -0.001131
     7  H    0.269617   0.029030
 Sum of Mulliken charges =   1.00000   3.00000

 Dipole moment (field-independent basis, Debye):
    X=             -1.1003    Y=              1.6565    Z=              0.6267  Tot=              2.0850
 Quadrupole moment (field-independent basis, Debye-Ang):
   XX=            -14.5729   YY=            -21.1303   ZZ=            -25.9281
   XY=             -0.3757   XZ=              1.9888   YZ=              0.6923

  Exact polarizability:  84.107  -1.071  40.812  -2.704  -0.188  30.790
 Approx polarizability: 154.718  -3.049  73.386  -9.690  -2.318  48.230

                      1                      2                      3
                      A                      A                      A
 Frequencies --    247.5096               353.9847               548.8967
 Red. masses --      5.6745                 2.5653                 5.4016
 Frc consts  --      0.2048                 0.1894                 0.9589
 IR Inten    --      1.0268                 4.8867                21.9362

                      4                      5                      6
                      A                      A                      A
 Frequencies --    623.9578               660.2702               710.7589
 Red. masses --      7.0650                 1.6558                 1.5675
 Frc consts  --      1.6206                 0.4253                 0.4666
 IR Inten    --      0.6798                35.1808                11.7404

                      7                      8                      9
                      A                      A                      A
 Frequencies --    770.7949               873.3972              1002.3283
 Red. masses --      3.0057                 1.6278                 2.2237
 Frc consts  --      1.0521                 0.7316                 1.3163
 IR Inten    --     13.6824                19.4459                 8.9843

                     10                     11                     12
                      A                      A                      A
 Frequencies --   1106.0526              1134.4841              1343.6587
 Red. masses --      2.6545                 3.0131                 9.0917
 Frc consts  --      1.9133                 2.2848                 9.6710
 IR Inten    --     17.5532                 1.3580                27.7708

                     13                     14                     15
                      A                      A                      A
 Frequencies --   1578.7512              3144.0370              3265.2391
 Red. masses --      8.3585                 1.0952                 1.1040
 Frc consts  --     12.2745                 6.3785                 6.9349
 IR Inten    --    178.9650                64.8800                72.2531

 - Thermochemistry -
 -------------------
 Temperature   298.150 Kelvin.  Pressure   1.00000 Atm.
 Atom     1 has atomic number  6 and mass  12.00000

 Molecular mass:    62.01565 amu.
 Principal axes and moments of inertia in atomic units:
                           1         2         3
     Eigenvalues --    89.67087 338.45243 403.54971
           X            0.99990  -0.00148   0.01422
           Y            0.00076   0.99874   0.05018
           Z           -0.01428  -0.05016   0.99864
 This molecule is an asymmetric top.
 Rotational symmetry number  1.
 Rotational temperatures (Kelvin)      0.96591     0.25591     0.21463
 Rotational constants (GHZ):          20.12628     5.33233     4.47217
 Zero-point vibrational energy     103860.5 (Joules/Mol)
                                   24.82326 (Kcal/Mol)
 Warning -- explicit consideration of   3 degrees of freedom as
           vibrations may cause significant error
 Vibrational temperatures:    356.11   509.30   789.74   897.73   949.98
          (Kelvin)           1022.62  1109.00  1256.62  1442.13  1591.36
                             1632.27  1933.22  2271.47  4523.56  4697.94

 Zero-point correction=                           0.039558 (Hartree/Particle)
 Thermal correction to Energy=                    0.044056
 Thermal correction to Enthalpy=                  0.045000
 Thermal correction to Gibbs Free Energy=         0.011647
 Sum of electronic and zero-point Energies=           -191.067308
 Sum of electronic and thermal Energies=              -191.062810
 Sum of electronic and thermal Enthalpies=            -191.061866
 Sum of electronic and thermal Free Energies=         -191.095219

                     E (Thermal)             CV                S
                      KCal/Mol        Cal/Mol-Kelvin    Cal/Mol-Kelvin
 Total                   27.646             15.459             70.198
 Electronic               0.000              0.000              2.755
 Translational            0.889              2.981             38.294
 Rotational               0.889              2.981             24.019
 Vibrational             25.868              9.497              5.130
 Vibration     1          0.661              1.767              1.748
 Vibration     2          0.730              1.567              1.148
 Vibration     3          0.904              1.142              0.546

 Normal termination of Gaussian 09 at Sun Jun 19 03:15:08 2016.
