 Gaussian 09, Revision E.01,
 Gaussian 09:  EM64L-G09RevE.01 30-Nov-2015

 ---------------------------------------------
 #p b3lyp/6-311++G(3df,2p) freq symmetry=Loose
 ---------------------------------------------

 ---------
 b3lyp opt
 ---------
 Symbolic Z-matrix:
 Charge =  1 Multiplicity = 2

                         Standard orientation:
 ---------------------------------------------------------------------
 Center     Atomic      Atomic             Coordinates (Angstroms)
 Number     Number       Type             X           Y           Z
 ---------------------------------------------------------------------
      1          6           0       -1.299097    0.041667   -0.000000
      2          6           0        0.000000    0.761845   -0.000000
      3          6           0        1.370815    0.792064    0.000000
      4          6           0        0.850851   -0.484995    0.000000
      5          6           0       -0.291304   -1.154428    0.000000
      6          1           0       -1.893794    0.131538    0.908739
      7          1           0       -1.893794    0.131538   -0.908739
 ---------------------------------------------------------------------

 SCF Done:  E(UB3LYP) =  -191.121719369     A.U. after   22 cycles

 The electronic state is 2-A".
 Alpha  occ. eigenvalues --  -10.57072 -10.54255 -10.52994 -10.51565 -10.51394
 Alpha  occ. eigenvalues --   -1.28027  -1.08476  -0.97347  -0.81343  -0.76573
 Alpha  occ. eigenvalues --   -0.73170  -0.72292  -0.65657  -0.64896  -0.52739
 Alpha  occ. eigenvalues --   -0.52715
 Alpha virt. eigenvalues --   -0.38780  -0.32397  -0.24031  -0.22162  -0.18316
 Alpha virt. eigenvalues --   -0.14828  -0.13068  -0.11624  -0.10448  -0.08666
 Alpha virt. eigenvalues --   -0.08047  -0.07647  -0.06502  -0.05965  -0.04802

  Beta  occ. eigenvalues --  -10.56769 -10.54444 -10.51583 -10.51486 -10.51424
  Beta  occ. eigenvalues --   -1.27068  -1.07370  -0.95691  -0.81239  -0.74810
  Beta  occ. eigenvalues --   -0.72252  -0.71730  -0.64650  -0.64335  -0.51747
  Beta virt. eigenvalues --   -0.41003  -0.37190  -0.30053  -0.24242  -0.18962
  Beta virt. eigenvalues --   -0.18044  -0.14434  -0.12941  -0.11602  -0.10362
  Beta virt. eigenvalues --   -0.08573  -0.07773  -0.07173  -0.05969  -0.05374

 Mulliken charges and spin densities:
               1          2
     1  C   -0.501732  -0.018612
     2  C    0.378845   0.167133
     3  C    0.167011   0.053689
     4  C    0.295391  -0.135152
     5  C    0.146479   0.929581
     6  H    0.257003   0.001680
     7  H    0.257003   0.001680
 Sum of Mulliken charges =   1.00000   1.00000

 Dipole moment (field-independent basis, Debye):
    X=             -2.5051    Y=             -0.2711    Z=             -0.0000  Tot=              2.5197
 Quadrupole moment (field-independent basis, Debye-Ang):
   XX=            -18.7370   YY=            -24.9819   ZZ=            -24.1171
   XY=             -2.3316   XZ=              0.0000   YZ=              0.0000

  Exact polarizability:  55.627  10.934  49.863  -0.000   0.000  30.649
 Approx polarizability: 115.917  43.353 130.677   0.000   0.000  45.211

                      1                      2                      3
                     A"                     A'                     A"
 Frequencies --    230.6461               365.1145               375.1120
 Red. masses --      2.9424                10.2869                 8.7290
 Frc consts  --      0.0922                 0.8080                 0.7237
 IR Inten    --      0.7732               103.5371                18.8924

                      4                      5                      6
                     A'                     A'                     A"
 Frequencies --    575.2285               808.5705               872.2444
 Red. masses --      8.1650                10.3687                 1.5047
 Frc consts  --      1.5918                 3.9940                 0.6745
 IR Inten    --     39.0598                 3.1010                 0.8743

                      7                      8                      9
                     A'                     A"                     A'
 Frequencies --    940.4084              1058.7276              1084.9800
 Red. masses --      7.7835                 1.1165                 9.0980
 Frc consts  --      4.0556                 0.7373                 6.3101
 IR Inten    --     32.1082                 0.0077                 2.4068

                     10                     11                     12
                     A'                     A'                     A'
 Frequencies --   1135.9824              1385.2898              1415.8110
 Red. masses --      1.2629                 1.3492                 8.8741
 Frc consts  --      0.9602                 1.5255                10.4806
 IR Inten    --     26.0179                 1.3656                46.3251

                     13                     14                     15
                     A'                     A'                     A"
 Frequencies --   1452.1561              3077.8087              3148.2098
 Red. masses --      3.6025                 1.0555                 1.1115
 Frc consts  --      4.4759                 5.8910                 6.4906
 IR Inten    --     44.3246                59.0003                56.1582

 - Thermochemistry -
 -------------------
 Temperature   298.150 Kelvin.  Pressure   1.00000 Atm.
 Atom     1 has atomic number  6 and mass  12.00000

 Molecular mass:    62.01565 amu.
 Principal axes and moments of inertia in atomic units:
                           1         2         3
     Eigenvalues --   110.81036 232.72791 331.64993
           X            0.93963  -0.34218   0.00000
           Y            0.34218   0.93963   0.00000
           Z           -0.00000   0.00000   1.00000
 This molecule is an asymmetric top.
 Rotational symmetry number  1.
 Rotational temperatures (Kelvin)      0.78164     0.37217     0.26116
 Rotational constants (GHZ):          16.28675     7.75473     5.44171
 Zero-point vibrational energy     107223.0 (Joules/Mol)
                                   25.62692 (Kcal/Mol)
 Warning -- explicit consideration of   4 degrees of freedom as
           vibrations may cause significant error
 Vibrational temperatures:    331.85   525.32   539.70   827.62  1163.35
          (Kelvin)           1254.96  1353.04  1523.27  1561.04  1634.42
                             1993.12  2037.03  2089.33  4428.27  4529.57

 Zero-point correction=                           0.040839 (Hartree/Particle)
 Thermal correction to Energy=                    0.045320
 Thermal correction to Enthalpy=                  0.046264
 Thermal correction to Gibbs Free Energy=         0.013679
 Sum of electronic and zero-point Energies=           -191.080880
 Sum of electronic and thermal Energies=              -191.076400
 Sum of electronic and thermal Enthalpies=            -191.075455
 Sum of electronic and thermal Free Energies=         -191.108040

                     E (Thermal)             CV                S
                      KCal/Mol        Cal/Mol-Kelvin    Cal/Mol-Kelvin
 Total                   28.439             14.692             68.581
 Electronic               0.000              0.000              1.377
 Translational            0.889              2.981             38.294
 Rotational               0.889              2.981             23.663
 Vibrational             26.661              8.730              5.247
 Vibration     1          0.652              1.794              1.874
 Vibration     2          0.738              1.544              1.100
 Vibration     3          0.746              1.523              1.059
 Vibration     4          0.932              1.085              0.494

 Optimization completed.
    -- Stationary point found.
 Normal termination of Gaussian 09 at Tue Jul 19 06:46:07 2016.
