 Gaussian 09, Revision E.01,
 Gaussian 09:  EM64L-G09RevE.01 30-Nov-2015

 ---------------------------------------------
 #p b3lyp/6-311++G(3df,2p) freq symmetry=Loose
 ---------------------------------------------

 ---------
 b3lyp opt
 ---------
 Symbolic Z-matrix:
 Charge =  1 Multiplicity = 4

                         Standard orientation:
 ---------------------------------------------------------------------
 Center     Atomic      Atomic             Coordinates (Angstroms)
 Number     Number       Type             X           Y           Z
 ---------------------------------------------------------------------
      1          6           0       -0.860041    0.732840   -0.000037
      2          6           0       -0.860041   -0.732840    0.000119
      3          6           0        0.524399   -1.111385    0.000093
      4          6           0        1.247481    0.000000   -0.000059
      5          6           0        0.524399    1.111385   -0.000143
      6          1           0       -1.728591    1.377526   -0.000064
      7          1           0       -1.728591   -1.377526    0.000229
 ---------------------------------------------------------------------

 SCF Done:  E(UB3LYP) =  -191.130513324     A.U. after   16 cycles

 The electronic state is 4-A.
 Alpha  occ. eigenvalues --  -10.50385 -10.50378 -10.50112 -10.50080 -10.49046
 Alpha  occ. eigenvalues --   -1.18879  -0.99301  -0.99212  -0.83243  -0.77018
 Alpha  occ. eigenvalues --   -0.74411  -0.68954  -0.67884  -0.58572  -0.52669
 Alpha  occ. eigenvalues --   -0.52583  -0.52555
 Alpha virt. eigenvalues --   -0.37651  -0.25958  -0.19749  -0.15244  -0.12311
 Alpha virt. eigenvalues --   -0.11865  -0.10835  -0.09527  -0.08473  -0.08297
 Alpha virt. eigenvalues --   -0.05935  -0.05634  -0.04461  -0.03083  -0.02243

  Beta  occ. eigenvalues --  -10.49651 -10.49272 -10.49244 -10.48314 -10.48307
  Beta  occ. eigenvalues --   -1.15935  -0.97034  -0.94507  -0.80858  -0.76478
  Beta  occ. eigenvalues --   -0.70917  -0.66603  -0.61897  -0.55539
  Beta virt. eigenvalues --   -0.41711  -0.39598  -0.36644  -0.35003  -0.18193
  Beta virt. eigenvalues --   -0.14984  -0.14031  -0.11728  -0.11478  -0.10304
  Beta virt. eigenvalues --   -0.09194  -0.08400  -0.07333  -0.05454  -0.04963

 Mulliken charges and spin densities:
               1          2
     1  C   -0.142754   0.506141
     2  C   -0.142754   0.506141
     3  C    0.185996   1.386130
     4  C    0.413593  -0.752335
     5  C    0.185996   1.386130
     6  H    0.249961  -0.016104
     7  H    0.249961  -0.016104
 Sum of Mulliken charges =   1.00000   3.00000

 Dipole moment (field-independent basis, Debye):
    X=             -1.5117    Y=              0.0000    Z=              0.0001  Tot=              1.5117
 Quadrupole moment (field-independent basis, Debye-Ang):
   XX=            -16.9979   YY=            -20.2418   ZZ=            -26.1910
   XY=              0.0000   XZ=             -0.0004   YZ=             -0.0006

  Exact polarizability:  50.294  -0.000  52.594  -0.001  -0.003  26.766
 Approx polarizability:  95.661  -0.000 104.199  -0.003  -0.007  39.324

                      1                      2                      3
                      A                      A                      A
 Frequencies --    308.5640               389.8000               687.7755
 Red. masses --      4.0825                 2.4867                11.4619
 Frc consts  --      0.2290                 0.2226                 3.1945
 IR Inten    --      0.6669                 0.0000                 5.8760

                      4                      5                      6
                      A                      A                      A
 Frequencies --    739.7080               775.0844               848.0062
 Red. masses --      1.4668                 8.4395                 1.6710
 Frc consts  --      0.4729                 2.9872                 0.7080
 IR Inten    --     20.0919                11.1082                 0.0000

                      7                      8                      9
                      A                      A                      A
 Frequencies --    965.3127              1005.3973              1155.6383
 Red. masses --      2.0979                 3.6451                 4.1062
 Frc consts  --      1.1518                 2.1709                 3.2310
 IR Inten    --      3.9049                 1.6136                29.9971

                     10                     11                     12
                      A                      A                      A
 Frequencies --   1282.6016              1294.7113              1329.8230
 Red. masses --      1.5793                 2.4460                 6.1858
 Frc consts  --      1.5307                 2.4158                 6.4451
 IR Inten    --     32.0288                33.2463                 0.6628

                     13                     14                     15
                      A                      A                      A
 Frequencies --   1348.9274              3209.2233              3220.3958
 Red. masses --      6.0390                 1.0922                 1.0985
 Frc consts  --      6.4743                 6.6275                 6.7122
 IR Inten    --      0.0182                18.9746                21.6781

 - Thermochemistry -
 -------------------
 Temperature   298.150 Kelvin.  Pressure   1.00000 Atm.
 Atom     1 has atomic number  6 and mass  12.00000

 Molecular mass:    62.01565 amu.
 Principal axes and moments of inertia in atomic units:
                           1         2         3
     Eigenvalues --   165.54891 174.48064 340.02955
           X            1.00000  -0.00000   0.00005
           Y            0.00000   1.00000   0.00011
           Z           -0.00005  -0.00011   1.00000
 This molecule is an asymmetric top.
 Rotational symmetry number  1.
 Rotational temperatures (Kelvin)      0.52319     0.49641     0.25472
 Rotational constants (GHZ):          10.90156    10.34350     5.30760
 Zero-point vibrational energy     111019.2 (Joules/Mol)
                                   26.53424 (Kcal/Mol)
 Warning -- explicit consideration of   2 degrees of freedom as
           vibrations may cause significant error
 Vibrational temperatures:    443.95   560.83   989.55  1064.27  1115.17
          (Kelvin)           1220.09  1388.87  1446.54  1662.70  1845.38
                             1862.80  1913.32  1940.80  4617.35  4633.43

 Zero-point correction=                           0.042285 (Hartree/Particle)
 Thermal correction to Energy=                    0.046354
 Thermal correction to Enthalpy=                  0.047298
 Thermal correction to Gibbs Free Energy=         0.014725
 Sum of electronic and zero-point Energies=           -191.088228
 Sum of electronic and thermal Energies=              -191.084159
 Sum of electronic and thermal Enthalpies=            -191.083215
 Sum of electronic and thermal Free Energies=         -191.115788

                     E (Thermal)             CV                S
                      KCal/Mol        Cal/Mol-Kelvin    Cal/Mol-Kelvin
 Total                   29.088             13.578             68.556
 Electronic               0.000              0.000              2.755
 Translational            0.889              2.981             38.294
 Rotational               0.889              2.981             23.800
 Vibrational             27.310              7.616              3.707
 Vibration     1          0.698              1.657              1.370
 Vibration     2          0.758              1.492              1.001

 Optimization completed.
    -- Stationary point found.
 Normal termination of Gaussian 09 at Tue Jul 19 11:27:35 2016.
