 Gaussian 09, Revision E.01,
 Gaussian 09:  EM64L-G09RevE.01 30-Nov-2015

 ---------------------------------------------
 #p b3lyp/6-311++G(3df,2p) freq symmetry=Loose
 ---------------------------------------------

 ---------
 b3lyp opt
 ---------
 Symbolic Z-matrix:
 Charge =  0 Multiplicity = 3

                         Standard orientation:
 ---------------------------------------------------------------------
 Center     Atomic      Atomic             Coordinates (Angstroms)
 Number     Number       Type             X           Y           Z
 ---------------------------------------------------------------------
      1          6           0       -0.209576    0.730420    0.000000
      2          6           0       -0.257304   -0.572453    0.741010
      3          6           0       -0.257304   -1.764662   -0.000000
      4          6           0       -0.257304   -0.572453   -0.741010
      5          6           0        0.978024    1.531298    0.000000
      6          1           0        1.165516    2.592877    0.000000
      7          1           0       -1.144736    1.294216   -0.000000
 ---------------------------------------------------------------------

 SCF Done:  E(UB3LYP) =  -191.412162946     A.U. after   15 cycles

 The electronic state is 3-A".
 Alpha  occ. eigenvalues --  -10.28830 -10.26909 -10.26878 -10.26172 -10.22949
 Alpha  occ. eigenvalues --   -1.01114  -0.82219  -0.69019  -0.56185  -0.55113
 Alpha  occ. eigenvalues --   -0.53115  -0.42627  -0.37552  -0.35035  -0.30879
 Alpha  occ. eigenvalues --   -0.27489  -0.26197
 Alpha virt. eigenvalues --   -0.07903  -0.03383  -0.03086  -0.00722   0.00597
 Alpha virt. eigenvalues --    0.03972   0.04113   0.05845   0.06859   0.07403
 Alpha virt. eigenvalues --    0.07569   0.08655   0.09252   0.10427   0.10862

  Beta  occ. eigenvalues --  -10.28951 -10.26702 -10.26669 -10.23374 -10.22873
  Beta  occ. eigenvalues --   -1.00773  -0.79815  -0.64892  -0.54836  -0.54235
  Beta  occ. eigenvalues --   -0.51242  -0.41210  -0.36811  -0.34068  -0.25957
  Beta virt. eigenvalues --   -0.13000  -0.12870  -0.07349  -0.02980  -0.01726
  Beta virt. eigenvalues --   -0.00544   0.00822   0.04604   0.05074   0.06026
  Beta virt. eigenvalues --    0.07268   0.07970   0.08217   0.09261   0.09401

 Mulliken charges and spin densities:
               1          2
     1  C    0.363324  -0.195076
     2  C    0.132293   0.066996
     3  C   -0.516807   0.048975
     4  C    0.132293   0.066996
     5  C   -0.520263   1.957143
     6  H    0.209191   0.002456
     7  H    0.199970   0.052512
 Sum of Mulliken charges =  -0.00000   2.00000

 Dipole moment (field-independent basis, Debye):
    X=             -0.2084    Y=              4.6680    Z=              0.0000  Tot=              4.6727
 Quadrupole moment (field-independent basis, Debye-Ang):
   XX=            -28.1859   YY=            -32.2022   ZZ=            -32.4214
   XY=             -0.6933   XZ=             -0.0000   YZ=             -0.0000

  Exact polarizability:  43.004   7.953  67.586   0.000   0.000  47.466
 Approx polarizability:  64.707   9.131  98.986   0.000   0.000  96.158

                      1                      2                      3
                     A'                     A"                     A"
 Frequencies --    255.2286               255.3937               355.4913
 Red. masses --      5.4612                 1.2492                 6.4663
 Frc consts  --      0.2096                 0.0480                 0.4815
 IR Inten    --      1.9728                 2.7090                31.5154

                      4                      5                      6
                     A"                     A'                     A'
 Frequencies --    476.8949               555.6220               784.7997
 Red. masses --      6.7468                 4.6675                 1.8180
 Frc consts  --      0.9040                 0.8490                 0.6597
 IR Inten    --     59.2422                 0.0843                 9.7482

                      7                      8                      9
                     A"                     A'                     A"
 Frequencies --    940.3596               944.7900              1043.4090
 Red. masses --      7.5157                 3.3459                 1.2651
 Frc consts  --      3.9157                 1.7597                 0.8115
 IR Inten    --     15.5657                23.4104                 0.5050

                     10                     11                     12
                     A'                     A'                     A'
 Frequencies --   1108.4679              1161.2031              1333.2371
 Red. masses --      7.4498                 2.7177                 1.5867
 Frc consts  --      5.3931                 2.1591                 1.6618
 IR Inten    --     10.1825                14.1827                12.9810

                     13                     14                     15
                     A'                     A'                     A'
 Frequencies --   1498.2056              3047.8766              3240.8536
 Red. masses --     10.8418                 1.0835                 1.0926
 Frc consts  --     14.3381                 5.9303                 6.7614
 IR Inten    --     49.2289                 0.8949                 3.4032

 - Thermochemistry -
 -------------------
 Temperature   298.150 Kelvin.  Pressure   1.00000 Atm.
 Atom     1 has atomic number  6 and mass  12.00000

 Molecular mass:    62.01565 amu.
 Principal axes and moments of inertia in atomic units:
                           1         2         3
     Eigenvalues --    76.23095 375.23418 393.12426
           X            0.31687   0.00000   0.94847
           Y            0.94847   0.00000  -0.31687
           Z            0.00000   1.00000   0.00000
 This molecule is an asymmetric top.
 Rotational symmetry number  1.
 Rotational temperatures (Kelvin)      1.13620     0.23083     0.22032
 Rotational constants (GHZ):          23.67465     4.80964     4.59077
 Zero-point vibrational energy     101693.5 (Joules/Mol)
                                   24.30534 (Kcal/Mol)
 Warning -- explicit consideration of   5 degrees of freedom as
           vibrations may cause significant error
 Vibrational temperatures:    367.22   367.45   511.47   686.14   799.42
          (Kelvin)           1129.15  1352.97  1359.34  1501.23  1594.84
                             1670.71  1918.23  2155.58  4385.21  4662.86

 Zero-point correction=                           0.038733 (Hartree/Particle)
 Thermal correction to Energy=                    0.043571
 Thermal correction to Enthalpy=                  0.044515
 Thermal correction to Gibbs Free Energy=         0.010843
 Sum of electronic and zero-point Energies=           -191.373430
 Sum of electronic and thermal Energies=              -191.368592
 Sum of electronic and thermal Enthalpies=            -191.367648
 Sum of electronic and thermal Free Energies=         -191.401320

                     E (Thermal)             CV                S
                      KCal/Mol        Cal/Mol-Kelvin    Cal/Mol-Kelvin
 Total                   27.341             16.072             70.870
 Electronic               0.000              0.000              2.183
 Translational            0.889              2.981             38.294
 Rotational               0.889              2.981             23.934
 Vibrational             25.564             10.110              6.459
 Vibration     1          0.666              1.754              1.694
 Vibration     2          0.666              1.754              1.693
 Vibration     3          0.731              1.564              1.142
 Vibration     4          0.833              1.301              0.718
 Vibration     5          0.911              1.127              0.533

 Optimization completed.
    -- Stationary point found.
 Normal termination of Gaussian 09 at Tue Jul 19 07:15:42 2016.
