 Gaussian 09, Revision E.01,
 Gaussian 09:  EM64L-G09RevE.01 30-Nov-2015

 ---------------------------------------------
 #p b3lyp/6-311++G(3df,2p) freq symmetry=Loose
 ---------------------------------------------

 ---------
 b3lyp opt
 ---------
 Symbolic Z-matrix:
 Charge =  0 Multiplicity = 1

                         Standard orientation:
 ---------------------------------------------------------------------
 Center     Atomic      Atomic             Coordinates (Angstroms)
 Number     Number       Type             X           Y           Z
 ---------------------------------------------------------------------
      1          6           0        1.690416   -0.504182    0.000043
      2          6           0        0.568171    0.205019   -0.000310
      3          6           0       -0.959337    0.105307   -0.000524
      4          6           0       -1.794464   -0.878109    0.000258
      5          6           0       -0.227245    1.330985    0.000427
      6          1           0        1.702203   -1.582774    0.000759
      7          1           0        2.632553    0.028661   -0.000124
 ---------------------------------------------------------------------

 SCF Done:  E(RB3LYP) =  -191.480374570     A.U. after   14 cycles

 The electronic state is 1-A.
 Alpha  occ. eigenvalues --  -10.27409 -10.26950 -10.24742 -10.24196 -10.22515
 Alpha  occ. eigenvalues --   -0.95032  -0.79606  -0.74880  -0.56293  -0.52025
 Alpha  occ. eigenvalues --   -0.44211  -0.43227  -0.43171  -0.31464  -0.29594
 Alpha  occ. eigenvalues --   -0.28056
 Alpha virt. eigenvalues --   -0.16861  -0.10573  -0.01357  -0.00134   0.01915
 Alpha virt. eigenvalues --    0.03252   0.03614   0.05737   0.05998   0.06216
 Alpha virt. eigenvalues --    0.06830   0.08972   0.09064   0.09930   0.09952

 Mulliken charges:
               1
     1  C   -0.480442
     2  C    0.569114
     3  C    0.889037
     4  C   -0.825220
     5  C   -0.554186
     6  H    0.208479
     7  H    0.193218
 Sum of Mulliken charges =  -0.00000

 Dipole moment (field-independent basis, Debye):
    X=              3.6803    Y=             -0.6481    Z=             -0.0011  Tot=              3.7370
 Quadrupole moment (field-independent basis, Debye-Ang):
   XX=            -29.2481   YY=            -33.8748   ZZ=            -29.6178
   XY=             -3.8067   XZ=              0.0029   YZ=             -0.0031

  Exact polarizability:  93.983   6.397  61.186   0.005   0.001  37.901
 Approx polarizability: 229.887  43.617 121.308   0.018   0.001  57.483

                      1                      2                      3
                      A                      A                      A
 Frequencies --    172.2037               244.9693               378.9261
 Red. masses --      6.7927                 4.2703                 3.2972
 Frc consts  --      0.1187                 0.1510                 0.2789
 IR Inten    --      6.2415                 7.6709                 4.7223

                      4                      5                      6
                      A                      A                      A
 Frequencies --    383.0402               564.4864               588.3256
 Red. masses --      5.2409                 8.9870                 1.2747
 Frc consts  --      0.4530                 1.6872                 0.2600
 IR Inten    --      0.0343                47.2941                 6.4833

                      7                      8                      9
                      A                      A                      A
 Frequencies --    851.4950               909.6393              1033.5303
 Red. masses --      6.3648                 1.3408                 3.4542
 Frc consts  --      2.7189                 0.6537                 2.1739
 IR Inten    --     59.6198                42.5922                 2.4825

                     10                     11                     12
                      A                      A                      A
 Frequencies --   1048.2609              1445.5435              1680.4818
 Red. masses --      1.9546                 1.1808                 9.1789
 Frc consts  --      1.2654                 1.4537                15.2725
 IR Inten    --     41.7854                32.6118               225.1705

                     13                     14                     15
                      A                      A                      A
 Frequencies --   1826.2685              3147.5348              3250.3535
 Red. masses --     11.4381                 1.0575                 1.1163
 Frc consts  --     22.4768                 6.1727                 6.9488
 IR Inten    --    343.7260                 2.5956                 1.9257

 - Thermochemistry -
 -------------------
 Temperature   298.150 Kelvin.  Pressure   1.00000 Atm.
 Atom     1 has atomic number  6 and mass  12.00000

 Molecular mass:    62.01565 amu.
 Principal axes and moments of inertia in atomic units:
                           1         2         3
     Eigenvalues --   130.58425 350.65776 481.24196
           X            0.99903  -0.04394   0.00001
           Y            0.04394   0.99903  -0.00003
           Z           -0.00001   0.00003   1.00000
 This molecule is an asymmetric top.
 Rotational symmetry number  1.
 Rotational temperatures (Kelvin)      0.66328     0.24700     0.17998
 Rotational constants (GHZ):          13.82051     5.14673     3.75017
 Zero-point vibrational energy     104823.1 (Joules/Mol)
                                   25.05333 (Kcal/Mol)
 Warning -- explicit consideration of   6 degrees of freedom as
           vibrations may cause significant error
 Vibrational temperatures:    247.76   352.46   545.19   551.11   812.17
          (Kelvin)            846.47  1225.11  1308.77  1487.02  1508.21
                             2079.81  2417.84  2627.59  4528.59  4676.53

 Zero-point correction=                           0.039925 (Hartree/Particle)
 Thermal correction to Energy=                    0.045050
 Thermal correction to Enthalpy=                  0.045994
 Thermal correction to Gibbs Free Energy=         0.012442
 Sum of electronic and zero-point Energies=           -191.440450
 Sum of electronic and thermal Energies=              -191.435325
 Sum of electronic and thermal Enthalpies=            -191.434380
 Sum of electronic and thermal Free Energies=         -191.467932

                     E (Thermal)             CV                S
                      KCal/Mol        Cal/Mol-Kelvin    Cal/Mol-Kelvin
 Total                   28.269             16.674             70.616
 Electronic               0.000              0.000              0.000
 Translational            0.889              2.981             38.294
 Rotational               0.889              2.981             24.603
 Vibrational             26.492             10.713              7.719
 Vibration     1          0.626              1.877              2.411
 Vibration     2          0.660              1.771              1.767
 Vibration     3          0.749              1.515              1.043
 Vibration     4          0.752              1.506              1.027
 Vibration     5          0.920              1.108              0.515
 Vibration     6          0.946              1.057              0.470

 Optimization completed.
    -- Stationary point found.
 Normal termination of Gaussian 09 at Sun Jun 19 01:21:26 2016.
