 Gaussian 09, Revision E.01,
 Gaussian 09:  EM64L-G09RevE.01 30-Nov-2015

 ---------------------------------------------
 #p b3lyp/6-311++G(3df,2p) freq symmetry=Loose
 ---------------------------------------------

 ---------
 b3lyp opt
 ---------
 Symbolic Z-matrix:
 Charge =  3 Multiplicity = 4

                         Standard orientation:
 ---------------------------------------------------------------------
 Center     Atomic      Atomic             Coordinates (Angstroms)
 Number     Number       Type             X           Y           Z
 ---------------------------------------------------------------------
      1          6           0       -2.167263   -0.783710    0.000114
      2          6           0       -1.334959    0.447457    0.000057
      3          6           0        0.091557    0.181502   -0.000007
      4          6           0        1.346887   -0.038668   -0.000064
      5          6           0        2.621096   -0.172911   -0.000122
      6          1           0       -1.671999    1.098978   -0.881214
      7          1           0       -1.671915    1.099004    0.881341
 ---------------------------------------------------------------------

 SCF Done:  E(UB3LYP) =  -189.629146738     A.U. after   22 cycles

 The electronic state is 4-A.
 Alpha  occ. eigenvalues --  -11.11604 -11.08319 -11.05539 -10.96390 -10.95917
 Alpha  occ. eigenvalues --   -1.57693  -1.53832  -1.44613  -1.32690  -1.21275
 Alpha  occ. eigenvalues --   -1.14551  -1.14200  -1.10737  -1.07081  -1.06861
 Alpha  occ. eigenvalues --   -0.96842
 Alpha virt. eigenvalues --   -0.87934  -0.87926  -0.82988  -0.63809  -0.63219
 Alpha virt. eigenvalues --   -0.54476  -0.50406  -0.47158  -0.47083  -0.44892
 Alpha virt. eigenvalues --   -0.41537  -0.40780  -0.40608  -0.36395  -0.35933

  Beta  occ. eigenvalues --  -11.08356 -11.06012 -11.04718 -10.96131 -10.95596
  Beta  occ. eigenvalues --   -1.57346  -1.50767  -1.42401  -1.28258  -1.19588
  Beta  occ. eigenvalues --   -1.14834  -1.06823  -1.05394
  Beta virt. eigenvalues --   -0.88720  -0.88697  -0.85097  -0.83931  -0.78304
  Beta virt. eigenvalues --   -0.75225  -0.60872  -0.60792  -0.53928  -0.49945
  Beta virt. eigenvalues --   -0.46786  -0.46769  -0.43622  -0.40681  -0.40330

 Mulliken charges and spin densities:
               1          2
     1  C    0.516987   1.749542
     2  C   -0.135994   0.226895
     3  C    0.355903  -0.387568
     4  C    0.966504   0.032854
     5  C    0.602937   1.378951
     6  H    0.346831  -0.000337
     7  H    0.346831  -0.000337
 Sum of Mulliken charges =   3.00000   3.00000

 Dipole moment (field-independent basis, Debye):
    X=             -0.1653    Y=             -0.1131    Z=              0.0000  Tot=              0.2003
 Quadrupole moment (field-independent basis, Debye-Ang):
   XX=             41.0149   YY=            -14.5465   ZZ=            -18.4231
   XY=             -0.7094   XZ=             -0.0028   YZ=             -0.0000

  Exact polarizability:  92.984   1.582  30.137  -0.003  -0.000  24.472
 Approx polarizability: 219.960   0.648  50.575  -0.009  -0.000  35.753

                      1                      2                      3
                      A                      A                      A
 Frequencies --    145.7658               199.3304               271.2246
 Red. masses --      9.0194                 5.1727                10.6968
 Frc consts  --      0.1129                 0.1211                 0.4636
 IR Inten    --     12.1958                21.7696                16.5738

                      4                      5                      6
                      A                      A                      A
 Frequencies --    408.1322               549.4087               555.5718
 Red. masses --      3.0007                 8.4667                 1.9190
 Frc consts  --      0.2945                 1.5058                 0.3490
 IR Inten    --      3.6590                 4.4709                46.2800

                      7                      8                      9
                      A                      A                      A
 Frequencies --    733.4220               793.3738              1038.9509
 Red. masses --      5.1824                 5.8790                 1.2008
 Frc consts  --      1.6424                 2.1803                 0.7637
 IR Inten    --      2.1074                49.6792                 1.7017

                     10                     11                     12
                      A                      A                      A
 Frequencies --   1064.8862              1200.5597              1417.0247
 Red. masses --      1.0937                 1.3504                10.7385
 Frc consts  --      0.7307                 1.1467                12.7043
 IR Inten    --    127.4716                64.3966                34.4667

                     13                     14                     15
                      A                      A                      A
 Frequencies --   2123.6400              2526.3912              2577.0824
 Red. masses --     11.2522                 1.0818                 1.0643
 Frc consts  --     29.8985                 4.0683                 4.1647
 IR Inten    --    948.3558               402.2211               601.2835

 - Thermochemistry -
 -------------------
 Temperature   298.150 Kelvin.  Pressure   1.00000 Atm.
 Atom     1 has atomic number  6 and mass  12.00000

 Molecular mass:    62.01565 amu.
 Principal axes and moments of inertia in atomic units:
                           1         2         3
     Eigenvalues --    51.37783 675.52023 715.71738
           X            0.99977  -0.02153   0.00005
           Y            0.02153   0.99977   0.00001
           Z           -0.00005  -0.00001   1.00000
 This molecule is an asymmetric top.
 Rotational symmetry number  1.
 Rotational temperatures (Kelvin)      1.68582     0.12822     0.12102
 Rotational constants (GHZ):          35.12685     2.67163     2.52158
 Zero-point vibrational energy      93337.2 (Joules/Mol)
                                   22.30813 (Kcal/Mol)
 Warning -- explicit consideration of   6 degrees of freedom as
           vibrations may cause significant error
 Vibrational temperatures:    209.72   286.79   390.23   587.21   790.48
          (Kelvin)            799.34  1055.23  1141.49  1494.82  1532.13
                             1727.34  2038.78  3055.44  3634.91  3707.84

 Zero-point correction=                           0.035550 (Hartree/Particle)
 Thermal correction to Energy=                    0.040995
 Thermal correction to Enthalpy=                  0.041939
 Thermal correction to Gibbs Free Energy=         0.006338
 Sum of electronic and zero-point Energies=           -189.593596
 Sum of electronic and thermal Energies=              -189.588152
 Sum of electronic and thermal Enthalpies=            -189.587207
 Sum of electronic and thermal Free Energies=         -189.622809

                     E (Thermal)             CV                S
                      KCal/Mol        Cal/Mol-Kelvin    Cal/Mol-Kelvin
 Total                   25.725             17.548             74.929
 Electronic               0.000              0.000              2.755
 Translational            0.889              2.981             38.294
 Rotational               0.889              2.981             24.722
 Vibrational             23.947             11.586              9.158
 Vibration     1          0.617              1.907              2.727
 Vibration     2          0.637              1.841              2.139
 Vibration     3          0.675              1.726              1.588
 Vibration     4          0.773              1.453              0.933
 Vibration     5          0.905              1.141              0.545
 Vibration     6          0.911              1.128              0.533

 Optimization completed.
    -- Stationary point found.
 Normal termination of Gaussian 09 at Tue Jul 19 11:25:53 2016.
