 Gaussian 09, Revision E.01,
 Gaussian 09:  EM64L-G09RevE.01 30-Nov-2015

 ---------------------------------------------
 #p b3lyp/6-311++G(3df,2p) freq symmetry=Loose
 ---------------------------------------------

 ---------
 b3lyp opt
 ---------
 Symbolic Z-matrix:
 Charge =  2 Multiplicity = 1

                         Standard orientation:
 ---------------------------------------------------------------------
 Center     Atomic      Atomic             Coordinates (Angstroms)
 Number     Number       Type             X           Y           Z
 ---------------------------------------------------------------------
      1          6           0       -1.204109    0.283766    0.000330
      2          6           0        2.765071   -0.148180    0.001378
      3          6           0        1.400292   -0.025160   -0.001721
      4          6           0        0.181033    0.105655   -0.000609
      5          6           0       -2.310386   -0.325258    0.000291
      6          1           0       -3.343601   -0.693309    0.000448
      7          1           0       -1.647810    1.348368    0.001550
 ---------------------------------------------------------------------

 SCF Done:  E(RB3LYP) =  -190.608660318     A.U. after   14 cycles

 The electronic state is 1-A.
 Alpha  occ. eigenvalues --  -10.80061 -10.77392 -10.75426 -10.73163 -10.67097
 Alpha  occ. eigenvalues --   -1.34740  -1.27883  -1.18509  -1.10924  -1.03126
 Alpha  occ. eigenvalues --   -0.97021  -0.86285  -0.80285  -0.78238  -0.75577
 Alpha virt. eigenvalues --   -0.61198  -0.60924  -0.58871  -0.47576  -0.38674
 Alpha virt. eigenvalues --   -0.34555  -0.31599  -0.31258  -0.29678  -0.26810
 Alpha virt. eigenvalues --   -0.25428  -0.25156  -0.23470  -0.20803  -0.19910

 Mulliken charges:
               1
     1  C    0.229082
     2  C   -0.086229
     3  C    1.312283
     4  C   -0.220818
     5  C    0.041800
     6  H    0.438299
     7  H    0.285583
 Sum of Mulliken charges =   2.00000

 Dipole moment (field-independent basis, Debye):
    X=             -5.6433    Y=              0.1526    Z=              0.0007  Tot=              5.6453
 Quadrupole moment (field-independent basis, Debye-Ang):
   XX=             23.6056   YY=            -18.6785   ZZ=            -24.3204
   XY=              1.2626   XZ=             -0.0143   YZ=              0.0045

  Exact polarizability:  98.311   0.837  30.794  -0.008   0.003  25.918
 Approx polarizability: 233.212   3.101  50.945  -0.018   0.005  37.294

                      1                      2                      3
                      A                      A                      A
 Frequencies --    106.7428               129.6051               176.6720
 Red. masses --      5.2331                 5.6981                 4.2910
 Frc consts  --      0.0351                 0.0564                 0.0789
 IR Inten    --      6.2028                 2.7386                13.5368

                      4                      5                      6
                      A                      A                      A
 Frequencies --    360.8963               413.1478               625.5273
 Red. masses --      2.7953                 4.0757                 2.4515
 Frc consts  --      0.2145                 0.4099                 0.5652
 IR Inten    --     31.7796                 2.5010                54.9452

                      7                      8                      9
                      A                      A                      A
 Frequencies --    709.0932               724.6093               896.0375
 Red. masses --      1.4522                 6.8549                 1.3692
 Frc consts  --      0.4302                 2.1206                 0.6477
 IR Inten    --     19.1513                23.3913                 3.2028

                     10                     11                     12
                      A                      A                      A
 Frequencies --   1010.1086              1297.7528              1877.3566
 Red. masses --      1.4089                 9.2595                 5.8997
 Frc consts  --      0.8470                 9.1881                12.2511
 IR Inten    --      1.1293               443.4941                78.1484

                     13                     14                     15
                      A                      A                      A
 Frequencies --   2250.7636              2575.1461              3130.7320
 Red. masses --     11.7533                 1.0712                 1.1503
 Frc consts  --     35.0807                 4.1853                 6.6430
 IR Inten    --   1117.8458               334.1081               423.4122

 - Thermochemistry -
 -------------------
 Temperature   298.150 Kelvin.  Pressure   1.00000 Atm.
 Atom     1 has atomic number  6 and mass  12.00000

 Molecular mass:    62.01565 amu.
 Principal axes and moments of inertia in atomic units:
                           1         2         3
     Eigenvalues --    17.67977 752.53731 770.21660
           X            1.00000   0.00021   0.00001
           Y           -0.00021   1.00000   0.00019
           Z           -0.00001  -0.00019   1.00000
 This molecule is an asymmetric top.
 Rotational symmetry number  1.
 Rotational temperatures (Kelvin)      4.89903     0.11510     0.11245
 Rotational constants (GHZ):         102.07944     2.39821     2.34316
 Zero-point vibrational energy      97401.1 (Joules/Mol)
                                   23.27942 (Kcal/Mol)
 Warning -- explicit consideration of   5 degrees of freedom as
           vibrations may cause significant error
 Vibrational temperatures:    153.58   186.47   254.19   519.25   594.43
          (Kelvin)            899.99  1020.23  1042.55  1289.20  1453.32
                             1867.17  2701.09  3238.34  3705.06  4504.42

 Zero-point correction=                           0.037098 (Hartree/Particle)
 Thermal correction to Energy=                    0.043038
 Thermal correction to Enthalpy=                  0.043982
 Thermal correction to Gibbs Free Energy=         0.008796
 Sum of electronic and zero-point Energies=           -190.571562
 Sum of electronic and thermal Energies=              -190.565623
 Sum of electronic and thermal Enthalpies=            -190.564678
 Sum of electronic and thermal Free Energies=         -190.599865

                     E (Thermal)             CV                S
                      KCal/Mol        Cal/Mol-Kelvin    Cal/Mol-Kelvin
 Total                   27.007             18.313             74.056
 Electronic               0.000              0.000              0.000
 Translational            0.889              2.981             38.294
 Rotational               0.889              2.981             23.842
 Vibrational             25.229             12.352             11.920
 Vibration     1          0.606              1.944              3.327
 Vibration     2          0.612              1.924              2.952
 Vibration     3          0.628              1.871              2.363
 Vibration     4          0.735              1.553              1.118
 Vibration     5          0.777              1.442              0.916

 Normal termination of Gaussian 09 at Sun Jun 19 03:57:06 2016.
