 Gaussian 09, Revision E.01,
 Gaussian 09:  EM64L-G09RevE.01 30-Nov-2015

 ---------------------------------------------
 #p b3lyp/6-311++G(3df,2p) freq symmetry=Loose
 ---------------------------------------------

 ---------
 b3lyp opt
 ---------
 Symbolic Z-matrix:
 Charge =  0 Multiplicity = 1

                         Standard orientation:
 ---------------------------------------------------------------------
 Center     Atomic      Atomic             Coordinates (Angstroms)
 Number     Number       Type             X           Y           Z
 ---------------------------------------------------------------------
      1          6           0       -0.000000    1.308991    0.341907
      2          6           0        0.000000   -0.000000    0.764697
      3          6           0       -0.000000   -1.308991    0.341907
      4          6           0        0.253317   -0.639742   -0.856273
      5          6           0       -0.253317    0.639742   -0.856273
      6          1           0       -0.300454    2.236205    0.792105
      7          1           0        0.300454   -2.236205    0.792105
 ---------------------------------------------------------------------

 SCF Done:  E(RB3LYP) =  -191.494868617     A.U. after   12 cycles

 The electronic state is 1-A.
 Alpha  occ. eigenvalues --  -10.27714 -10.23712 -10.23653 -10.23203 -10.23200
 Alpha  occ. eigenvalues --   -0.98861  -0.79673  -0.67581  -0.56820  -0.52343
 Alpha  occ. eigenvalues --   -0.48237  -0.47251  -0.43890  -0.32057  -0.26904
 Alpha  occ. eigenvalues --   -0.23480
 Alpha virt. eigenvalues --   -0.09496  -0.04857  -0.00870  -0.00631   0.01220
 Alpha virt. eigenvalues --    0.01814   0.04898   0.05097   0.06228   0.06319
 Alpha virt. eigenvalues --    0.07993   0.09488   0.09981   0.11636   0.11747

 Mulliken charges:
               1
     1  C   -0.187251
     2  C    0.200193
     3  C   -0.187251
     4  C   -0.114211
     5  C   -0.114211
     6  H    0.201366
     7  H    0.201366
 Sum of Mulliken charges =  -0.00000

 Dipole moment (field-independent basis, Debye):
    X=              0.0000    Y=             -0.0000    Z=              1.7250  Tot=              1.7250
 Quadrupole moment (field-independent basis, Debye-Ang):
   XX=            -31.8266   YY=            -24.3001   ZZ=            -29.5329
   XY=             -0.6382   XZ=             -0.0000   YZ=             -0.0000

  Exact polarizability:  38.046  -4.318  68.047   0.000   0.000  55.226
 Approx polarizability:  58.915 -11.217 130.977   0.000  -0.000 118.546

                      1                      2                      3
                      B                      A                      A
 Frequencies --    382.4008               462.3141               614.0906
 Red. masses --      4.9545                10.1029                 5.0368
 Frc consts  --      0.4269                 1.2722                 1.1191
 IR Inten    --     55.1060                53.7775                 0.3358

                      4                      5                      6
                      B                      B                      A
 Frequencies --    643.9714               737.6954               747.5701
 Red. masses --      2.0457                 2.4828                 1.4151
 Frc consts  --      0.4998                 0.7961                 0.4659
 IR Inten    --     73.9161               115.1937                 6.8899

                      7                      8                      9
                      A                      A                      B
 Frequencies --    880.8900              1066.2216              1094.0030
 Red. masses --      3.0928                 5.3801                 2.4009
 Frc consts  --      1.4140                 3.6036                 1.6930
 IR Inten    --     26.0015                28.8128                 9.5304

                     10                     11                     12
                      A                      B                      A
 Frequencies --   1157.7899              1159.1685              1290.6685
 Red. masses --      1.6002                 1.8455                 5.9113
 Frc consts  --      1.2638                 1.4610                 5.8018
 IR Inten    --      1.6149                 2.8679                 1.8157

                     13                     14                     15
                      B                      B                      A
 Frequencies --   1599.7564              3275.8327              3277.7976
 Red. masses --      7.4950                 1.1022                 1.1017
 Frc consts  --     11.3014                 6.9686                 6.9739
 IR Inten    --     25.5191                 4.6169                 0.4736

 - Thermochemistry -
 -------------------
 Temperature   298.150 Kelvin.  Pressure   1.00000 Atm.
 Atom     1 has atomic number  6 and mass  12.00000

 Molecular mass:    62.01565 amu.
 Principal axes and moments of inertia in atomic units:
                           1         2         3
     Eigenvalues --   106.79775 224.07335 321.85815
           X           -0.08740  -0.00000   0.99617
           Y            0.99617   0.00000   0.08740
           Z           -0.00000   1.00000   0.00000
 This molecule is an asymmetric top.
 Rotational symmetry number  2.
 Rotational temperatures (Kelvin)      0.81101     0.38654     0.26911
 Rotational constants (GHZ):          16.89868     8.05424     5.60726
 Zero-point vibrational energy     109997.6 (Joules/Mol)
                                   26.29007 (Kcal/Mol)
 Warning -- explicit consideration of   3 degrees of freedom as
           vibrations may cause significant error
 Vibrational temperatures:    550.19   665.17   883.54   926.53  1061.38
          (Kelvin)           1075.59  1267.40  1534.05  1574.02  1665.80
                             1667.78  1856.98  2301.69  4713.19  4716.01

 Zero-point correction=                           0.041896 (Hartree/Particle)
 Thermal correction to Energy=                    0.045958
 Thermal correction to Enthalpy=                  0.046903
 Thermal correction to Gibbs Free Energy=         0.016490
 Sum of electronic and zero-point Energies=           -191.452973
 Sum of electronic and thermal Energies=              -191.448910
 Sum of electronic and thermal Enthalpies=            -191.447966
 Sum of electronic and thermal Free Energies=         -191.478379

                     E (Thermal)             CV                S
                      KCal/Mol        Cal/Mol-Kelvin    Cal/Mol-Kelvin
 Total                   28.839             14.040             64.009
 Electronic               0.000              0.000              0.000
 Translational            0.889              2.981             38.294
 Rotational               0.889              2.981             22.181
 Vibrational             27.062              8.078              3.534
 Vibration     1          0.752              1.508              1.030
 Vibration     2          0.820              1.334              0.759
 Vibration     3          0.973              1.002              0.426

 Normal termination of Gaussian 09 at Tue Jul 19 05:19:29 2016.
