 Gaussian 09, Revision E.01,
 Gaussian 09:  EM64L-G09RevE.01 30-Nov-2015

 ---------------------------------------------
 #p b3lyp/6-311++G(3df,2p) freq symmetry=Loose
 ---------------------------------------------

 ---------
 b3lyp opt
 ---------
 Symbolic Z-matrix:
 Charge =  2 Multiplicity = 1

                         Standard orientation:
 ---------------------------------------------------------------------
 Center     Atomic      Atomic             Coordinates (Angstroms)
 Number     Number       Type             X           Y           Z
 ---------------------------------------------------------------------
      1          6           0        2.399608    0.000325    0.000964
      2          6           0        1.114357   -0.000016   -0.000232
      3          6           0       -0.210271   -0.000765   -0.000964
      4          6           0       -1.456124   -0.000175   -0.000934
      5          6           0       -2.845234    0.000527    0.000690
      6          1           0        2.992968   -0.940447    0.001417
      7          1           0        2.993016    0.941073    0.001454
 ---------------------------------------------------------------------

 SCF Done:  E(RB3LYP) =  -190.624036795     A.U. after   13 cycles

 The electronic state is 1-A.
 Alpha  occ. eigenvalues --  -10.80227 -10.77049 -10.76211 -10.72077 -10.71210
 Alpha  occ. eigenvalues --   -1.33898  -1.28429  -1.21230  -1.13699  -0.98153
 Alpha  occ. eigenvalues --   -0.93158  -0.87163  -0.84214  -0.77990  -0.77886
 Alpha virt. eigenvalues --   -0.67394  -0.61905  -0.54054  -0.47851  -0.35580
 Alpha virt. eigenvalues --   -0.33714  -0.31946  -0.30046  -0.28003  -0.26369
 Alpha virt. eigenvalues --   -0.24882  -0.24246  -0.22251  -0.21737  -0.19972

 Mulliken charges:
               1
     1  C   -0.147578
     2  C    0.619477
     3  C   -0.433151
     4  C    1.276987
     5  C    0.022023
     6  H    0.331197
     7  H    0.331044
 Sum of Mulliken charges =   2.00000

 Dipole moment (field-independent basis, Debye):
    X=              3.3630    Y=              0.0003    Z=              0.0015  Tot=              3.3630
 Quadrupole moment (field-independent basis, Debye-Ang):
   XX=             24.8196   YY=            -19.8581   ZZ=            -24.2261
   XY=              0.0027   XZ=              0.0156   YZ=              0.0001

  Exact polarizability: 123.168  -0.003  28.037   0.018   0.000  25.574
 Approx polarizability: 329.258  -0.030  41.683   0.039   0.000  36.538

                      1                      2                      3
                      A                      A                      A
 Frequencies --    106.7836               119.6207               252.4177
 Red. masses --      6.3478                 6.9374                 3.3894
 Frc consts  --      0.0426                 0.0585                 0.1272
 IR Inten    --      0.1139                 2.5809                17.1462

                      4                      5                      6
                      A                      A                      A
 Frequencies --    260.0841               462.9716               588.3150
 Red. masses --      6.4728                 2.4661                10.4302
 Frc consts  --      0.2580                 0.3114                 2.1270
 IR Inten    --      8.0022                 0.7671                 6.7172

                      7                      8                      9
                      A                      A                      A
 Frequencies --    726.0933               809.1008               944.2869
 Red. masses --      6.8194                 2.7864                 1.3507
 Frc consts  --      2.1183                 1.0747                 0.7096
 IR Inten    --     21.9897                15.5079                44.9556

                     10                     11                     12
                      A                      A                      A
 Frequencies --   1179.2060              1273.2645              1736.4569
 Red. masses --      1.5006                 2.8816                10.2956
 Frc consts  --      1.2294                 2.7525                18.2907
 IR Inten    --    633.6364               126.1905                 2.5926

                     13                     14                     15
                      A                      A                      A
 Frequencies --   2086.4912              2867.5216              2918.5749
 Red. masses --     11.9167                 1.0558                 1.1067
 Frc consts  --     30.5660                 5.1149                 5.5540
 IR Inten    --    680.7992               832.8615               298.0313

 - Thermochemistry -
 -------------------
 Temperature   298.150 Kelvin.  Pressure   1.00000 Atm.
 Atom     1 has atomic number  6 and mass  12.00000

 Molecular mass:    62.01565 amu.
 Principal axes and moments of inertia in atomic units:
                           1         2         3
     Eigenvalues --     6.37064 802.07835 808.44870
           X            1.00000   0.00001  -0.00013
           Y           -0.00001   1.00000  -0.00003
           Z            0.00013   0.00003   1.00000
 This molecule is an asymmetric top.
 Rotational symmetry number  1.
 Rotational temperatures (Kelvin)     13.59577     0.10799     0.10714
 Rotational constants (GHZ):         283.29031     2.25008     2.23235
 Zero-point vibrational energy      97682.2 (Joules/Mol)
                                   23.34661 (Kcal/Mol)
 Warning -- explicit consideration of   6 degrees of freedom as
           vibrations may cause significant error
 Vibrational temperatures:    153.64   172.11   363.17   374.20   666.11
          (Kelvin)            846.45  1044.68  1164.11  1358.62  1696.61
                             1831.94  2498.37  3001.99  4125.72  4199.17

 Zero-point correction=                           0.037205 (Hartree/Particle)
 Thermal correction to Energy=                    0.043089
 Thermal correction to Enthalpy=                  0.044033
 Thermal correction to Gibbs Free Energy=         0.009376
 Sum of electronic and zero-point Energies=           -190.586832
 Sum of electronic and thermal Energies=              -190.580948
 Sum of electronic and thermal Enthalpies=            -190.580003
 Sum of electronic and thermal Free Energies=         -190.614661

                     E (Thermal)             CV                S
                      KCal/Mol        Cal/Mol-Kelvin    Cal/Mol-Kelvin
 Total                   27.039             18.012             72.943
 Electronic               0.000              0.000              0.000
 Translational            0.889              2.981             38.294
 Rotational               0.889              2.981             22.939
 Vibrational             25.261             12.050             11.710
 Vibration     1          0.606              1.944              3.327
 Vibration     2          0.609              1.933              3.106
 Vibration     3          0.664              1.759              1.714
 Vibration     4          0.668              1.746              1.661
 Vibration     5          0.821              1.332              0.758
 Vibration     6          0.946              1.057              0.470

 Normal termination of Gaussian 09 at Sun Jun 19 03:56:29 2016.
