 Gaussian 09, Revision E.01,
 Gaussian 09:  EM64L-G09RevE.01 30-Nov-2015

 ---------------------------------------------
 #p b3lyp/6-311++G(3df,2p) freq symmetry=Loose
 ---------------------------------------------

 ---------
 b3lyp opt
 ---------
 Symbolic Z-matrix:
 Charge =  3 Multiplicity = 4

                         Standard orientation:
 ---------------------------------------------------------------------
 Center     Atomic      Atomic             Coordinates (Angstroms)
 Number     Number       Type             X           Y           Z
 ---------------------------------------------------------------------
      1          6           0        0.516695   -0.034101   -0.023776
      2          6           0       -0.632231    0.924797   -0.023933
      3          6           0       -1.603803   -0.142977    0.110345
      4          6           0       -0.538855   -1.092684   -0.083689
      5          6           0        1.870384    0.002532    0.029293
      6          1           0        3.003815    0.018384    0.111924
      7          1           0       -0.676961    2.036210   -0.161369
 ---------------------------------------------------------------------

 SCF Done:  E(UB3LYP) =  -189.681727742     A.U. after   17 cycles

 The electronic state is 4-A.
 Alpha  occ. eigenvalues --  -11.12010 -11.09759 -11.06304 -11.05532 -11.04925
 Alpha  occ. eigenvalues --   -1.71459  -1.56742  -1.41190  -1.36692  -1.27016
 Alpha  occ. eigenvalues --   -1.21933  -1.21630  -1.17124  -1.07179  -1.05984
 Alpha  occ. eigenvalues --   -1.03996
 Alpha virt. eigenvalues --   -0.91554  -0.87613  -0.83519  -0.68026  -0.60293
 Alpha virt. eigenvalues --   -0.55520  -0.54995  -0.51921  -0.48800  -0.46643
 Alpha virt. eigenvalues --   -0.43793  -0.43693  -0.41025  -0.40751  -0.38138

  Beta  occ. eigenvalues --  -11.10720 -11.07752 -11.05404 -11.04627 -11.03637
  Beta  occ. eigenvalues --   -1.69096  -1.52854  -1.38888  -1.32998  -1.25162
  Beta  occ. eigenvalues --   -1.19592  -1.18700  -1.13447
  Beta virt. eigenvalues --   -0.93969  -0.90214  -0.86424  -0.85049  -0.82747
  Beta virt. eigenvalues --   -0.76458  -0.63063  -0.58398  -0.53419  -0.53151
  Beta virt. eigenvalues --   -0.51205  -0.47950  -0.43876  -0.43233  -0.42856

 Mulliken charges and spin densities:
               1          2
     1  C    0.223100   0.205380
     2  C    0.365564  -0.039195
     3  C    0.367650   1.311389
     4  C    0.594485   0.797043
     5  C    0.497153   0.716327
     6  H    0.535502  -0.013329
     7  H    0.416546   0.022385
 Sum of Mulliken charges =   3.00000   3.00000

 Dipole moment (field-independent basis, Debye):
    X=              3.9172    Y=              1.1875    Z=              0.0917  Tot=              4.0942
 Quadrupole moment (field-independent basis, Debye-Ang):
   XX=             17.8629   YY=             -8.2193   ZZ=            -20.8981
   XY=             -0.7669   XZ=              0.5479   YZ=             -0.3099

  Exact polarizability:  61.651   1.213  35.450   0.294  -0.064  20.765
 Approx polarizability: 131.577   7.098  70.639  -0.210   0.751  31.467

                      1                      2                      3
                      A                      A                      A
 Frequencies --    109.1120               299.4920               411.0617
 Red. masses --      4.1377                 2.7054                 3.1675
 Frc consts  --      0.0290                 0.1430                 0.3153
 IR Inten    --      1.7428                17.1500                30.4190

                      4                      5                      6
                      A                      A                      A
 Frequencies --    564.5877               618.4620               720.1585
 Red. masses --      8.7294                 1.4115                 3.3084
 Frc consts  --      1.6395                 0.3181                 1.0109
 IR Inten    --      6.3156                24.7663                79.0841

                      7                      8                      9
                      A                      A                      A
 Frequencies --    866.1697               909.3230               999.7130
 Red. masses --      3.7855                 1.7006                 2.1327
 Frc consts  --      1.6733                 0.8285                 1.2558
 IR Inten    --     31.1025                15.6206                11.2648

                     10                     11                     12
                      A                      A                      A
 Frequencies --   1077.7572              1163.4492              1193.3141
 Red. masses --      1.9030                 5.1415                 4.0147
 Frc consts  --      1.3023                 4.1004                 3.3683
 IR Inten    --      6.0189                74.5657                24.6080

                     13                     14                     15
                      A                      A                      A
 Frequencies --   1373.2381              2734.5967              2838.6031
 Red. masses --      6.8626                 1.1301                 1.1028
 Frc consts  --      7.6249                 4.9792                 5.2353
 IR Inten    --    404.9737               814.4258               424.4541

 - Thermochemistry -
 -------------------
 Temperature   298.150 Kelvin.  Pressure   1.00000 Atm.
 Atom     1 has atomic number  6 and mass  12.00000

 Molecular mass:    62.01565 amu.
 Principal axes and moments of inertia in atomic units:
                           1         2         3
     Eigenvalues --   104.37907 336.08339 438.41238
           X            0.99981  -0.01899   0.00486
           Y            0.01904   0.99975  -0.01156
           Z           -0.00464   0.01165   0.99992
 This molecule is an asymmetric top.
 Rotational symmetry number  1.
 Rotational temperatures (Kelvin)      0.82980     0.25772     0.19756
 Rotational constants (GHZ):          17.29026     5.36992     4.11654
 Zero-point vibrational energy      94977.7 (Joules/Mol)
                                   22.70022 (Kcal/Mol)
 Warning -- explicit consideration of   5 degrees of freedom as
           vibrations may cause significant error
 Vibrational temperatures:    156.99   430.90   591.43   812.31   889.83
          (Kelvin)           1036.15  1246.22  1308.31  1438.36  1550.65
                             1673.94  1716.91  1975.78  3934.47  4084.11

 Zero-point correction=                           0.036175 (Hartree/Particle)
 Thermal correction to Energy=                    0.041102
 Thermal correction to Enthalpy=                  0.042047
 Thermal correction to Gibbs Free Energy=         0.007502
 Sum of electronic and zero-point Energies=           -189.645553
 Sum of electronic and thermal Energies=              -189.640625
 Sum of electronic and thermal Enthalpies=            -189.639681
 Sum of electronic and thermal Free Energies=         -189.674226

                     E (Thermal)             CV                S
                      KCal/Mol        Cal/Mol-Kelvin    Cal/Mol-Kelvin
 Total                   25.792             16.185             72.705
 Electronic               0.000              0.000              2.755
 Translational            0.889              2.981             38.294
 Rotational               0.889              2.981             24.246
 Vibrational             24.015             10.223              7.411
 Vibration     1          0.606              1.942              3.285
 Vibration     2          0.692              1.675              1.420
 Vibration     3          0.775              1.446              0.923
 Vibration     4          0.920              1.108              0.515
 Vibration     5          0.978              0.993              0.419

 Optimization completed.
    -- Stationary point found.
 Normal termination of Gaussian 09 at Sun Jun 19 05:21:00 2016.
