 Gaussian 09, Revision E.01,
 Gaussian 09:  EM64L-G09RevE.01 30-Nov-2015

 ---------------------------------------------
 #p b3lyp/6-311++G(3df,2p) freq symmetry=Loose
 ---------------------------------------------

 ---------
 b3lyp opt
 ---------
 Symbolic Z-matrix:
 Charge =  1 Multiplicity = 2

                         Standard orientation:
 ---------------------------------------------------------------------
 Center     Atomic      Atomic             Coordinates (Angstroms)
 Number     Number       Type             X           Y           Z
 ---------------------------------------------------------------------
      1          6           0        0.041133    0.422321    0.000000
      2          6           0        0.572486   -1.012964    0.000000
      3          6           0       -0.338785    1.523972    0.686691
      4          6           0       -0.338785   -2.057709   -0.000000
      5          6           0       -0.338785    1.523972   -0.686691
      6          1           0        1.208204   -1.198773    0.897154
      7          1           0        1.208204   -1.198773   -0.897154
 ---------------------------------------------------------------------

 SCF Done:  E(UB3LYP) =  -191.042047846     A.U. after   24 cycles

 The electronic state is 2-A".
 Alpha  occ. eigenvalues --  -10.58482 -10.51621 -10.49349 -10.48077 -10.48014
 Alpha  occ. eigenvalues --   -1.20285  -1.10635  -0.87779  -0.78522  -0.78190
 Alpha  occ. eigenvalues --   -0.71873  -0.67197  -0.63807  -0.58448  -0.53794
 Alpha  occ. eigenvalues --   -0.49879
 Alpha virt. eigenvalues --   -0.38469  -0.38410  -0.27402  -0.24778  -0.17535
 Alpha virt. eigenvalues --   -0.14904  -0.12532  -0.11418  -0.10553  -0.10403
 Alpha virt. eigenvalues --   -0.07351  -0.07013  -0.05449  -0.05062  -0.04411

  Beta  occ. eigenvalues --  -10.58942 -10.51239 -10.49332 -10.46910 -10.46847
  Beta  occ. eigenvalues --   -1.19271  -1.11055  -0.87796  -0.78560  -0.76363
  Beta  occ. eigenvalues --   -0.69698  -0.64043  -0.62931  -0.58806  -0.47972
  Beta virt. eigenvalues --   -0.41923  -0.38961  -0.36582  -0.26526  -0.22523
  Beta virt. eigenvalues --   -0.17391  -0.14562  -0.12499  -0.11312  -0.10476
  Beta virt. eigenvalues --   -0.10189  -0.07269  -0.06813  -0.05051  -0.04895

 Mulliken charges and spin densities:
               1          2
     1  C    0.542926   0.080263
     2  C    0.062420  -0.014427
     3  C   -0.064141   0.591965
     4  C   -0.010703  -0.254991
     5  C   -0.064141   0.591965
     6  H    0.266819   0.002612
     7  H    0.266819   0.002612
 Sum of Mulliken charges =   1.00000   1.00000

 Dipole moment (field-independent basis, Debye):
    X=              2.2750    Y=             -3.1852    Z=              0.0000  Tot=              3.9142
 Quadrupole moment (field-independent basis, Debye-Ang):
   XX=            -23.0721   YY=            -18.9269   ZZ=            -25.0671
   XY=             -3.6881   XZ=             -0.0000   YZ=              0.0000

  Exact polarizability:  35.995 -10.177 148.197  -0.000   0.000  51.573
 Approx polarizability:  56.648  -9.768 329.882   0.000  -0.000  88.697

                      1                      2                      3
                     A"                     A'                     A"
 Frequencies --     60.2503               206.3018               229.0751
 Red. masses --      2.9343                10.0080                 1.7301
 Frc consts  --      0.0063                 0.2510                 0.0535
 IR Inten    --      8.0086                 6.6230                 0.2381

                      4                      5                      6
                     A"                     A'                     A'
 Frequencies --    355.7464               452.6900               666.3707
 Red. masses --      4.3236                 6.4801                 8.1377
 Frc consts  --      0.3224                 0.7824                 2.1291
 IR Inten    --      0.1548                 1.5322                18.6132

                      7                      8                      9
                     A"                     A'                     A"
 Frequencies --    906.9545               914.3929              1063.1168
 Red. masses --      1.8186                 1.3784                 2.6200
 Frc consts  --      0.8814                 0.6790                 1.7446
 IR Inten    --     48.3423               281.0869               102.4585

                     10                     11                     12
                     A'                     A'                     A'
 Frequencies --   1159.0692              1237.5661              1340.0753
 Red. masses --      4.8395                 1.2454                 4.4307
 Frc consts  --      3.8306                 1.1238                 4.6879
 IR Inten    --     24.0597                31.4391               116.1844

                     13                     14                     15
                     A'                     A'                     A"
 Frequencies --   1689.0369              2843.2909              2884.6665
 Red. masses --     11.2672                 1.0537                 1.0924
 Frc consts  --     18.9385                 5.0191                 5.3560
 IR Inten    --      2.4329               373.4507               106.1126

 - Thermochemistry -
 -------------------
 Temperature   298.150 Kelvin.  Pressure   1.00000 Atm.
 Atom     1 has atomic number  6 and mass  12.00000

 Molecular mass:    62.01565 amu.
 Principal axes and moments of inertia in atomic units:
                           1         2         3
     Eigenvalues --    79.48412 481.17708 494.10802
           X           -0.11799   0.00000   0.99301
           Y            0.99301   0.00000   0.11799
           Z           -0.00000   1.00000  -0.00000
 This molecule is an asymmetric top.
 Rotational symmetry number  1.
 Rotational temperatures (Kelvin)      1.08970     0.18000     0.17529
 Rotational constants (GHZ):          22.70568     3.75068     3.65252
 Zero-point vibrational energy      95752.7 (Joules/Mol)
                                   22.88545 (Kcal/Mol)
 Warning -- explicit consideration of   5 degrees of freedom as
           vibrations may cause significant error
 Vibrational temperatures:     86.69   296.82   329.59   511.84   651.32
          (Kelvin)            958.76  1304.90  1315.61  1529.59  1667.64
                             1780.58  1928.07  2430.14  4090.86  4150.39

 Zero-point correction=                           0.036470 (Hartree/Particle)
 Thermal correction to Energy=                    0.042106
 Thermal correction to Enthalpy=                  0.043050
 Thermal correction to Gibbs Free Energy=         0.007290
 Sum of electronic and zero-point Energies=           -191.005578
 Sum of electronic and thermal Energies=              -190.999942
 Sum of electronic and thermal Enthalpies=            -190.998998
 Sum of electronic and thermal Free Energies=         -191.034758

                     E (Thermal)             CV                S
                      KCal/Mol        Cal/Mol-Kelvin    Cal/Mol-Kelvin
 Total                   26.422             17.243             75.263
 Electronic               0.000              0.000              1.377
 Translational            0.889              2.981             38.294
 Rotational               0.889              2.981             24.450
 Vibrational             24.644             11.282             11.141
 Vibration     1          0.597              1.973              4.449
 Vibration     2          0.641              1.831              2.076
 Vibration     3          0.652              1.797              1.886
 Vibration     4          0.731              1.563              1.141
 Vibration     5          0.811              1.355              0.788

 Optimization completed.
    -- Stationary point found.
 Normal termination of Gaussian 09 at Tue Jul 19 08:20:08 2016.
