 Gaussian 09, Revision E.01,
 Gaussian 09:  EM64L-G09RevE.01 30-Nov-2015

 ---------------------------------------------
 #p b3lyp/6-311++G(3df,2p) freq symmetry=Loose
 ---------------------------------------------

 ---------
 b3lyp opt
 ---------
 Symbolic Z-matrix:
 Charge =  0 Multiplicity = 1

                         Standard orientation:
 ---------------------------------------------------------------------
 Center     Atomic      Atomic             Coordinates (Angstroms)
 Number     Number       Type             X           Y           Z
 ---------------------------------------------------------------------
      1          6           0       -0.000011    2.384799   -0.293090
      2          6           0        0.000003    1.219587    0.082799
      3          6           0        0.000000    0.000000    0.640311
      4          6           0       -0.000003   -1.219587    0.082799
      5          6           0        0.000011   -2.384799   -0.293090
      6          1           0       -0.000025    3.381755   -0.659193
      7          1           0        0.000025   -3.381755   -0.659193
 ---------------------------------------------------------------------

 SCF Done:  E(RB3LYP) =  -191.556632422     A.U. after   11 cycles

 The electronic state is 1-A.
 Alpha  occ. eigenvalues --  -10.22876 -10.21341 -10.21338 -10.21072 -10.21070
 Alpha  occ. eigenvalues --   -0.83464  -0.78465  -0.71818  -0.60010  -0.55071
 Alpha  occ. eigenvalues --   -0.52618  -0.38082  -0.37992  -0.31486  -0.31074
 Alpha  occ. eigenvalues --   -0.21511
 Alpha virt. eigenvalues --   -0.14982  -0.00463   0.00412   0.00574   0.01007
 Alpha virt. eigenvalues --    0.02196   0.04521   0.04989   0.06390   0.08122
 Alpha virt. eigenvalues --    0.08736   0.08833   0.09428   0.09897   0.10272

 Mulliken charges:
               1
     1  C   -0.145133
     2  C    0.132923
     3  C   -0.587645
     4  C    0.132923
     5  C   -0.145133
     6  H    0.306033
     7  H    0.306033
 Sum of Mulliken charges =  -0.00000

 Dipole moment (field-independent basis, Debye):
    X=             -0.0000    Y=             -0.0000    Z=             -1.6569  Tot=              1.6569
 Quadrupole moment (field-independent basis, Debye-Ang):
   XX=            -28.9701   YY=            -15.7774   ZZ=            -32.4396
   XY=             -0.0001   XZ=              0.0000   YZ=              0.0000

  Exact polarizability:  36.611  -0.001 132.059   0.000   0.000  46.103
 Approx polarizability:  50.961  -0.001 267.399   0.000   0.000  70.748

                      1                      2                      3
                      A                      B                      A
 Frequencies --    119.9060               191.4524               212.3431
 Red. masses --     10.0403                 1.4313                 1.1497
 Frc consts  --      0.0851                 0.0309                 0.0305
 IR Inten    --      0.2389                22.1328               165.5111

                      4                      5                      6
                      B                      A                      B
 Frequencies --    317.6355               324.1954               456.9297
 Red. masses --      5.4644                 4.4116                 3.7229
 Frc consts  --      0.3248                 0.2732                 0.4580
 IR Inten    --      0.2593                 0.0000                 0.1690

                      7                      8                      9
                      A                      B                      A
 Frequencies --    540.7904               823.2225               823.8859
 Red. masses --      5.7451                 1.3211                 1.3485
 Frc consts  --      0.9899                 0.5275                 0.5393
 IR Inten    --      0.3065                33.1076                 0.0000

                     10                     11                     12
                      A                      B                      B
 Frequencies --    840.2722              1402.6201              1976.1014
 Red. masses --      8.3948                 8.8991                 7.3329
 Frc consts  --      3.4922                10.3151                16.8713
 IR Inten    --      8.1131                27.7360                42.5786

                     13                     14                     15
                      A                      B                      A
 Frequencies --   2049.8386              3451.0847              3454.7621
 Red. masses --      6.7405                 1.1342                 1.1398
 Frc consts  --     16.6871                 7.9590                 8.0153
 IR Inten    --     10.0042               171.9778                20.9295

 - Thermochemistry -
 -------------------
 Temperature   298.150 Kelvin.  Pressure   1.00000 Atm.
 Atom     1 has atomic number  6 and mass  12.00000

 Molecular mass:    62.01565 amu.
 Principal axes and moments of inertia in atomic units:
                           1         2         3
     Eigenvalues --    28.54863 697.22652 725.77515
           X           -0.00000   0.00000   1.00000
           Y            1.00000  -0.00000   0.00000
           Z            0.00000   1.00000  -0.00000
 This molecule is an asymmetric top.
 Rotational symmetry number  2.
 Rotational temperatures (Kelvin)      3.03390     0.12423     0.11934
 Rotational constants (GHZ):          63.21639     2.58846     2.48664
 Zero-point vibrational energy     101593.1 (Joules/Mol)
                                   24.28133 (Kcal/Mol)
 Warning -- explicit consideration of   7 degrees of freedom as
           vibrations may cause significant error
 Vibrational temperatures:    172.52   275.46   305.51   457.01   466.44
          (Kelvin)            657.42   778.08  1184.43  1185.39  1208.96
                             2018.05  2843.17  2949.26  4965.33  4970.63

 Zero-point correction=                           0.038695 (Hartree/Particle)
 Thermal correction to Energy=                    0.044803
 Thermal correction to Enthalpy=                  0.045747
 Thermal correction to Gibbs Free Energy=         0.011080
 Sum of electronic and zero-point Energies=           -191.517938
 Sum of electronic and thermal Energies=              -191.511829
 Sum of electronic and thermal Enthalpies=            -191.510885
 Sum of electronic and thermal Free Energies=         -191.545553

                     E (Thermal)             CV                S
                      KCal/Mol        Cal/Mol-Kelvin    Cal/Mol-Kelvin
 Total                   28.114             19.280             72.964
 Electronic               0.000              0.000              0.000
 Translational            0.889              2.981             38.294
 Rotational               0.889              2.981             22.806
 Vibrational             26.337             13.319             11.864
 Vibration     1          0.609              1.933              3.102
 Vibration     2          0.634              1.852              2.214
 Vibration     3          0.643              1.822              2.023
 Vibration     4          0.704              1.640              1.322
 Vibration     5          0.709              1.627              1.289
 Vibration     6          0.815              1.346              0.775
 Vibration     7          0.896              1.160              0.564

 Normal termination of Gaussian 09 at Tue Jul 19 04:33:59 2016.
