 Gaussian 09, Revision E.01,
 Gaussian 09:  EM64L-G09RevE.01 30-Nov-2015

 ---------------------------------------------
 #p b3lyp/6-311++G(3df,2p) freq symmetry=Loose
 ---------------------------------------------

 ---------
 b3lyp opt
 ---------
 Symbolic Z-matrix:
 Charge =  3 Multiplicity = 2

                         Standard orientation:
 ---------------------------------------------------------------------
 Center     Atomic      Atomic             Coordinates (Angstroms)
 Number     Number       Type             X           Y           Z
 ---------------------------------------------------------------------
      1          6           0        1.473304    0.336648   -0.000000
      2          6           0        0.000000    0.634771   -0.000000
      3          6           0       -1.472746    0.338375   -0.000000
      4          6           0       -0.680915   -0.794021    0.000000
      5          6           0        0.680148   -0.794072    0.000000
      6          1           0        2.488022    0.834020   -0.000000
      7          1           0       -2.486765    0.835779   -0.000000
 ---------------------------------------------------------------------

 SCF Done:  E(UB3LYP) =  -189.717744408     A.U. after   14 cycles

 The electronic state is 2-A".
 Alpha  occ. eigenvalues --  -11.15067 -11.14241 -11.14175 -11.10951 -11.10942
 Alpha  occ. eigenvalues --   -1.86020  -1.65674  -1.49206  -1.34588  -1.28101
 Alpha  occ. eigenvalues --   -1.27644  -1.26986  -1.24593  -1.13821  -1.09168
 Alpha virt. eigenvalues --   -0.93304  -0.88742  -0.81993  -0.75494  -0.74255
 Alpha virt. eigenvalues --   -0.67943  -0.59536  -0.55262  -0.54590  -0.51482
 Alpha virt. eigenvalues --   -0.45982  -0.44196  -0.43618  -0.41605  -0.41110

  Beta  occ. eigenvalues --  -11.15239 -11.13987 -11.13918 -11.10270 -11.10261
  Beta  occ. eigenvalues --   -1.85112  -1.63492  -1.48415  -1.33676  -1.27216
  Beta  occ. eigenvalues --   -1.27117  -1.23954  -1.23883  -1.13728
  Beta virt. eigenvalues --   -0.98367  -0.91817  -0.88065  -0.77865  -0.74884
  Beta virt. eigenvalues --   -0.70336  -0.67544  -0.58593  -0.54560  -0.54072
  Beta virt. eigenvalues --   -0.51053  -0.45566  -0.43903  -0.43361  -0.40991

 Mulliken charges and spin densities:
               1          2
     1  C    0.458989   0.368298
     2  C    0.342689  -0.071171
     3  C    0.458392   0.368456
     4  C    0.408923   0.176764
     5  C    0.410278   0.177419
     6  H    0.460359  -0.009893
     7  H    0.460370  -0.009873
 Sum of Mulliken charges =   3.00000   1.00000

 Dipole moment (field-independent basis, Debye):
    X=              0.0049    Y=              1.0189    Z=             -0.0000  Tot=              1.0189
 Quadrupole moment (field-independent basis, Debye-Ang):
   XX=             13.7560   YY=            -12.3515   ZZ=            -20.4007
   XY=             -0.0076   XZ=             -0.0000   YZ=             -0.0000

  Exact polarizability:  51.213  -0.002  30.126  -0.000  -0.000  18.923
 Approx polarizability:  97.642   0.015  70.726  -0.000  -0.000  29.454

                      1                      2                      3
                     A"                     A"                     A'
 Frequencies --    333.6793               444.5713               535.9303
 Red. masses --      3.7190                 5.2364                 5.2558
 Frc consts  --      0.2440                 0.6098                 0.8894
 IR Inten    --     12.0525                 0.0000                 1.5960

                      4                      5                      6
                     A'                     A'                     A"
 Frequencies --    548.8991               688.0543               694.4076
 Red. masses --     10.7298                 8.3558                 1.3610
 Frc consts  --      1.9047                 2.3307                 0.3867
 IR Inten    --      3.7972                27.3795                 0.0154

                      7                      8                      9
                     A"                     A'                     A'
 Frequencies --    749.2901               758.2796               942.9388
 Red. masses --      1.3876                 7.0266                 1.1679
 Frc consts  --      0.4590                 2.3804                 0.6118
 IR Inten    --     47.8845               127.2794                68.0420

                     10                     11                     12
                     A'                     A'                     A'
 Frequencies --    986.6670              1183.7170              1339.1239
 Red. masses --      1.2459                 7.7183                 6.0829
 Frc consts  --      0.7146                 6.3719                 6.4269
 IR Inten    --     27.4885                 0.9906               337.5177

                     13                     14                     15
                     A'                     A'                     A'
 Frequencies --   1641.8452              2788.8042              2800.7681
 Red. masses --      9.2498                 1.1421                 1.1313
 Frc consts  --     14.6908                 5.2337                 5.2287
 IR Inten    --     62.7488               986.5592               200.6066

 - Thermochemistry -
 -------------------
 Temperature   298.150 Kelvin.  Pressure   1.00000 Atm.
 Atom     1 has atomic number  6 and mass  12.00000

 Molecular mass:    62.01565 amu.
 Principal axes and moments of inertia in atomic units:
                           1         2         3
     Eigenvalues --    85.92755 270.19154 356.11909
           X            1.00000   0.00048   0.00000
           Y           -0.00048   1.00000   0.00000
           Z           -0.00000  -0.00000   1.00000
 This molecule is an asymmetric top.
 Rotational symmetry number  1.
 Rotational temperatures (Kelvin)      1.00799     0.32056     0.24322
 Rotational constants (GHZ):          21.00306     6.67949     5.06780
 Zero-point vibrational energy      98314.9 (Joules/Mol)
                                   23.49784 (Kcal/Mol)
 Warning -- explicit consideration of   4 degrees of freedom as
           vibrations may cause significant error
 Vibrational temperatures:    480.09   639.64   771.08   789.74   989.96
          (Kelvin)            999.10  1078.06  1090.99  1356.68  1419.59
                             1703.10  1926.70  2362.25  4012.46  4029.68

 Zero-point correction=                           0.037446 (Hartree/Particle)
 Thermal correction to Energy=                    0.041849
 Thermal correction to Enthalpy=                  0.042793
 Thermal correction to Gibbs Free Energy=         0.010534
 Sum of electronic and zero-point Energies=           -189.680298
 Sum of electronic and thermal Energies=              -189.675895
 Sum of electronic and thermal Enthalpies=            -189.674951
 Sum of electronic and thermal Free Energies=         -189.707211

                     E (Thermal)             CV                S
                      KCal/Mol        Cal/Mol-Kelvin    Cal/Mol-Kelvin
 Total                   26.261             15.635             67.896
 Electronic               0.000              0.000              1.377
 Translational            0.889              2.981             38.294
 Rotational               0.889              2.981             23.629
 Vibrational             24.483              9.674              4.596
 Vibration     1          0.715              1.608              1.242
 Vibration     2          0.804              1.373              0.812
 Vibration     3          0.891              1.171              0.574
 Vibration     4          0.904              1.142              0.546

 Optimization completed.
    -- Stationary point found.
 Normal termination of Gaussian 09 at Tue Jul 19 08:31:53 2016.
