 Gaussian 09, Revision E.01,
 Gaussian 09:  EM64L-G09RevE.01 30-Nov-2015

 ------------------------------------------------------
 #p b3lyp/6-311++G(3df,2p) freq IOp(2/17=3) IOp(2/18=3)
 ------------------------------------------------------

 ---------
 b3lyp opt
 ---------
 Symbolic Z-matrix:
 Charge =  3 Multiplicity = 4

                         Standard orientation:
 ---------------------------------------------------------------------
 Center     Atomic      Atomic             Coordinates (Angstroms)
 Number     Number       Type             X           Y           Z
 ---------------------------------------------------------------------
      1          6           0        0.000000    0.000000   -2.478751
      2          6           0        0.000000    0.000000   -1.065574
      3          6           0       -0.000000    0.000000    0.216239
      4          6           0       -0.000000    0.000000    1.519723
      5          6           0       -0.000000    0.000000    2.824651
      6          1           0       -0.967739    0.000000   -3.048869
      7          1           0        0.967739   -0.000000   -3.048869
 ---------------------------------------------------------------------

 SCF Done:  E(UB3LYP) =  -189.778973330     A.U. after   17 cycles

 The electronic state is 4-A2.
 Alpha  occ. eigenvalues --  -11.09876 -11.02376 -11.01488 -10.99638 -10.99398
 Alpha  occ. eigenvalues --   -1.58179  -1.54288  -1.45883  -1.38153  -1.19719
 Alpha  occ. eigenvalues --   -1.15129  -1.13573  -1.11296  -1.09745  -1.04664
 Alpha  occ. eigenvalues --   -1.00850
 Alpha virt. eigenvalues --   -0.86897  -0.79984  -0.74806  -0.60384  -0.57545
 Alpha virt. eigenvalues --   -0.55003  -0.50031  -0.47910  -0.43887  -0.42377
 Alpha virt. eigenvalues --   -0.40495  -0.39813  -0.39186  -0.36750  -0.35671

  Beta  occ. eigenvalues --  -11.05912 -11.01107 -11.00766 -10.99579 -10.99431
  Beta  occ. eigenvalues --   -1.55615  -1.49486  -1.43366  -1.36253  -1.18643
  Beta  occ. eigenvalues --   -1.13227  -1.07644  -1.06071
  Beta virt. eigenvalues --   -0.92897  -0.89042  -0.86776  -0.82502  -0.72722
  Beta virt. eigenvalues --   -0.68449  -0.55727  -0.53381  -0.52840  -0.49359
  Beta virt. eigenvalues --   -0.46996  -0.42875  -0.42059  -0.40209  -0.38617

 Mulliken charges and spin densities:
               1          2
     1  C   -0.161079   0.072748
     2  C    0.969753   0.336369
     3  C   -0.099086   0.476070
     4  C    0.873475   0.454154
     5  C    0.658203   1.623928
     6  H    0.379367   0.018365
     7  H    0.379367   0.018365
 Sum of Mulliken charges =   3.00000   3.00000

 Dipole moment (field-independent basis, Debye):
    X=             -0.0000    Y=             -0.0000    Z=             -1.0181  Tot=              1.0181
 Quadrupole moment (field-independent basis, Debye-Ang):
   XX=            -18.5357   YY=            -20.4560   ZZ=             61.9697
   XY=             -0.0000   XZ=              0.0000   YZ=              0.0000

  Exact polarizability:  22.790   0.000  20.281  -0.000   0.000 115.743
 Approx polarizability:  30.822  -0.000  28.396   0.000   0.000 263.104

                      1                      2                      3
                     B2                     B1                     B2
 Frequencies --    150.8848               155.8970               335.1317
 Red. masses --      5.8900                 5.0289                 7.3700
 Frc consts  --      0.0790                 0.0720                 0.4877
 IR Inten    --     22.2558                22.4975                 0.5782

                      4                      5                      6
                     B1                     B1                     B2
 Frequencies --    353.0800               546.9188               582.2142
 Red. masses --      4.1740                 7.8131                10.5843
 Frc consts  --      0.3066                 1.3770                 2.1139
 IR Inten    --      0.2648                 0.8186                 1.9692

                      7                      8                      9
                     A1                     B1                     B2
 Frequencies --    690.4983               915.1936              1094.6127
 Red. masses --      6.7858                 1.5100                 1.3629
 Frc consts  --      1.9062                 0.7452                 0.9621
 IR Inten    --     18.1144                 3.1319                21.7509

                     10                     11                     12
                     A1                     A1                     A1
 Frequencies --   1117.0892              1294.4760              1682.0813
 Red. masses --     11.1205                 1.0895                11.0949
 Frc consts  --      8.1761                 1.0756                18.4956
 IR Inten    --    343.4482               138.1279               107.6096

                     13                     14                     15
                     A1                     A1                     B1
 Frequencies --   1996.0331              2749.3961              2853.7997
 Red. masses --     11.9399                 1.0425                 1.1230
 Frc consts  --     28.0276                 4.6432                 5.3886
 IR Inten    --     21.5330               947.6151               359.8295

 - Thermochemistry -
 -------------------
 Temperature   298.150 Kelvin.  Pressure   1.00000 Atm.
 Atom     1 has atomic number  6 and mass  12.00000

 Molecular mass:    62.01565 amu.
 Principal axes and moments of inertia in atomic units:
                           1         2         3
     Eigenvalues --     6.74107 819.63785 826.37892
           X            0.00000   1.00000  -0.00000
           Y            0.00000   0.00000   1.00000
           Z            1.00000   0.00000  -0.00000
 This molecule is an asymmetric top.
 Rotational symmetry number  2.
 Rotational temperatures (Kelvin)     12.84867     0.10567     0.10481
 Rotational constants (GHZ):         267.72320     2.20188     2.18391
 Zero-point vibrational energy      98795.4 (Joules/Mol)
                                   23.61267 (Kcal/Mol)
 Warning -- explicit consideration of   6 degrees of freedom as
           vibrations may cause significant error
 Vibrational temperatures:    217.09   224.30   482.18   508.00   786.89
          (Kelvin)            837.68   993.47  1316.76  1574.90  1607.24
                             1862.46  2420.14  2871.84  3955.76  4105.98

 Zero-point correction=                           0.037629 (Hartree/Particle)
 Thermal correction to Energy=                    0.043065
 Thermal correction to Enthalpy=                  0.044009
 Thermal correction to Gibbs Free Energy=         0.009802
 Sum of electronic and zero-point Energies=           -189.741344
 Sum of electronic and thermal Energies=              -189.735908
 Sum of electronic and thermal Enthalpies=            -189.734964
 Sum of electronic and thermal Free Energies=         -189.769172

                     E (Thermal)             CV                S
                      KCal/Mol        Cal/Mol-Kelvin    Cal/Mol-Kelvin
 Total                   27.024             17.230             71.995
 Electronic               0.000              0.000              2.755
 Translational            0.889              2.981             38.294
 Rotational               0.889              2.981             21.662
 Vibrational             25.246             11.269              9.285
 Vibration     1          0.618              1.902              2.661
 Vibration     2          0.620              1.896              2.599
 Vibration     3          0.716              1.605              1.235
 Vibration     4          0.729              1.569              1.152
 Vibration     5          0.902              1.146              0.551
 Vibration     6          0.939              1.070              0.481

 Optimization completed.
    -- Stationary point found.
 Normal termination of Gaussian 09 at Thu Jan 31 05:23:09 2019.
