 Gaussian 09, Revision E.01,
 Gaussian 09:  EM64L-G09RevE.01 30-Nov-2015

 ---------------------------------------------
 #p b3lyp/6-311++G(3df,2p) freq symmetry=Loose
 ---------------------------------------------

 ---------
 b3lyp opt
 ---------
 Symbolic Z-matrix:
 Charge =  0 Multiplicity = 3

                         Standard orientation:
 ---------------------------------------------------------------------
 Center     Atomic      Atomic             Coordinates (Angstroms)
 Number     Number       Type             X           Y           Z
 ---------------------------------------------------------------------
      1          6           0        2.308860   -0.586312    0.070733
      2          6           0        1.227403   -0.020816   -0.131296
      3          6           0        0.000104    0.747792    0.051399
      4          6           0       -1.228329   -0.019074   -0.131522
      5          6           0       -2.308212   -0.587247    0.070907
      6          1           0        0.000821    1.602846   -0.636518
      7          1           0        0.000222    1.191096    1.055200
 ---------------------------------------------------------------------

 SCF Done:  E(UB3LYP) =  -191.409454745     A.U. after   23 cycles

 The electronic state is 3-A.
 Alpha  occ. eigenvalues --  -10.26821 -10.23970 -10.23968 -10.23182 -10.23180
 Alpha  occ. eigenvalues --   -0.86989  -0.79890  -0.75091  -0.56352  -0.53241
 Alpha  occ. eigenvalues --   -0.50681  -0.37817  -0.37285  -0.33347  -0.32387
 Alpha  occ. eigenvalues --   -0.31400  -0.31210
 Alpha virt. eigenvalues --   -0.04099  -0.01830  -0.01427   0.00075   0.01436
 Alpha virt. eigenvalues --    0.02428   0.03866   0.04041   0.05999   0.06239
 Alpha virt. eigenvalues --    0.06942   0.07561   0.07773   0.09665   0.10530

  Beta  occ. eigenvalues --  -10.26798 -10.22792 -10.22790 -10.22554 -10.22552
  Beta  occ. eigenvalues --   -0.85997  -0.76928  -0.72490  -0.55169  -0.52513
  Beta  occ. eigenvalues --   -0.49772  -0.31453  -0.31298  -0.30241  -0.30164
  Beta virt. eigenvalues --   -0.20812  -0.20799  -0.02818  -0.00555   0.01090
  Beta virt. eigenvalues --    0.01591   0.02852   0.03065   0.04170   0.04546
  Beta virt. eigenvalues --    0.06478   0.06606   0.07078   0.07869   0.08244

 Mulliken charges and spin densities:
               1          2
     1  C   -0.420016   0.813215
     2  C    0.508522   0.177046
     3  C   -0.581901  -0.035695
     4  C    0.508479   0.177248
     5  C   -0.419679   0.812855
     6  H    0.199865   0.023784
     7  H    0.204730   0.031546
 Sum of Mulliken charges =  -0.00000   2.00000

 Dipole moment (field-independent basis, Debye):
    X=             -0.0026    Y=              2.1957    Z=             -0.7825  Tot=              2.3310
 Quadrupole moment (field-independent basis, Debye-Ang):
   XX=            -37.9828   YY=            -28.1523   ZZ=            -28.6394
   XY=             -0.0059   XZ=              0.0039   YZ=              1.2938

  Exact polarizability: 160.457   0.063  64.927  -0.038  -8.350  41.755
 Approx polarizability: 187.154   0.124  83.002  -0.014 -11.636  61.502

                      1                      2                      3
                      A                      A                      A
 Frequencies --    129.6181               179.3480               282.6697
 Red. masses --      9.6022                10.4465                 2.9452
 Frc consts  --      0.0951                 0.1980                 0.1387
 IR Inten    --      2.4332                 4.5380                 4.2852

                      4                      5                      6
                      A                      A                      A
 Frequencies --    321.7222               440.2559               780.2772
 Red. masses --      6.9167                 8.4348                 2.8567
 Frc consts  --      0.4218                 0.9632                 1.0248
 IR Inten    --     54.0668                20.0221                 3.6328

                      7                      8                      9
                      A                      A                      A
 Frequencies --    858.9404               950.1315              1160.2066
 Red. masses --      3.5403                 4.9418                 1.5550
 Frc consts  --      1.5389                 2.6285                 1.2332
 IR Inten    --     27.8186               826.3843              1696.3219

                     10                     11                     12
                      A                      A                      A
 Frequencies --   1168.9914              1358.3947              1408.5865
 Red. masses --      1.0787                 1.3091                 4.0679
 Frc consts  --      0.8685                 1.4232                 4.7554
 IR Inten    --     47.3979               322.3518              2124.4847

                     13                     14                     15
                      A                      A                      A
 Frequencies --   1529.3223              2983.8391              3003.6655
 Red. masses --      3.9008                 1.0578                 1.0937
 Frc consts  --      5.3753                 5.5491                 5.8136
 IR Inten    --    482.4540                11.6599                 5.1571

 - Thermochemistry -
 -------------------
 Temperature   298.150 Kelvin.  Pressure   1.00000 Atm.
 Atom     1 has atomic number  6 and mass  12.00000

 Molecular mass:    62.01565 amu.
 Principal axes and moments of inertia in atomic units:
                           1         2         3
     Eigenvalues --    74.89475 593.43329 653.39817
           X            1.00000   0.00001  -0.00000
           Y           -0.00001   0.99989   0.01509
           Z            0.00000  -0.01509   0.99989
 This molecule is an asymmetric top.
 Rotational symmetry number  1.
 Rotational temperatures (Kelvin)      1.15647     0.14595     0.13256
 Rotational constants (GHZ):          24.09703     3.04119     2.76208
 Zero-point vibrational energy      99026.7 (Joules/Mol)
                                   23.66795 (Kcal/Mol)
 Warning -- explicit consideration of   5 degrees of freedom as
           vibrations may cause significant error
 Vibrational temperatures:    186.49   258.04   406.70   462.89   633.43
          (Kelvin)           1122.64  1235.82  1367.03  1669.28  1681.92
                             1954.42  2026.64  2200.35  4293.07  4321.60

 Zero-point correction=                           0.037717 (Hartree/Particle)
 Thermal correction to Energy=                    0.043182
 Thermal correction to Enthalpy=                  0.044126
 Thermal correction to Gibbs Free Energy=         0.008523
 Sum of electronic and zero-point Energies=           -191.371737
 Sum of electronic and thermal Energies=              -191.366273
 Sum of electronic and thermal Enthalpies=            -191.365328
 Sum of electronic and thermal Free Energies=         -191.400932

                     E (Thermal)             CV                S
                      KCal/Mol        Cal/Mol-Kelvin    Cal/Mol-Kelvin
 Total                   27.097             16.901             74.933
 Electronic               0.000              0.000              2.183
 Translational            0.889              2.981             38.294
 Rotational               0.889              2.981             24.877
 Vibrational             25.320             10.940              9.579
 Vibration     1          0.612              1.924              2.952
 Vibration     2          0.629              1.868              2.335
 Vibration     3          0.682              1.706              1.517
 Vibration     4          0.707              1.632              1.301
 Vibration     5          0.800              1.382              0.826

 Normal termination of Gaussian 09 at Sun Jun 19 01:41:31 2016.
