 Gaussian 09, Revision E.01,
 Gaussian 09:  EM64L-G09RevE.01 30-Nov-2015

 ---------------------------------------------
 #p b3lyp/6-311++G(3df,2p) freq symmetry=Loose
 ---------------------------------------------

 ---------
 b3lyp opt
 ---------
 Symbolic Z-matrix:
 Charge =  2 Multiplicity = 1

                         Standard orientation:
 ---------------------------------------------------------------------
 Center     Atomic      Atomic             Coordinates (Angstroms)
 Number     Number       Type             X           Y           Z
 ---------------------------------------------------------------------
      1          6           0        1.922161   -0.413583    0.000096
      2          6           0        0.703454   -0.120422    0.000033
      3          6           0       -0.703454   -0.120422   -0.000014
      4          6           0       -1.922161   -0.413583   -0.000031
      5          6           0        0.000000    1.256438   -0.000098
      6          1           0       -3.005428   -0.565284   -0.000055
      7          1           0        3.005428   -0.565284    0.000143
 ---------------------------------------------------------------------

 SCF Done:  E(RB3LYP) =  -190.573896103     A.U. after   11 cycles

 The electronic state is 1-A.
 Alpha  occ. eigenvalues --  -10.81697 -10.78343 -10.78340 -10.73720 -10.73670
 Alpha  occ. eigenvalues --   -1.41695  -1.28102  -1.22542  -1.03049  -1.02830
 Alpha  occ. eigenvalues --   -0.99465  -0.89650  -0.86193  -0.78838  -0.77547
 Alpha virt. eigenvalues --   -0.62717  -0.62196  -0.59692  -0.48514  -0.38374
 Alpha virt. eigenvalues --   -0.33342  -0.31741  -0.31264  -0.30940  -0.26023
 Alpha virt. eigenvalues --   -0.25562  -0.25260  -0.23074  -0.22705  -0.22281

 Mulliken charges:
               1
     1  C    0.676374
     2  C   -0.152165
     3  C   -0.152165
     4  C    0.676373
     5  C    0.045984
     6  H    0.452799
     7  H    0.452799
 Sum of Mulliken charges =   2.00000

 Dipole moment (field-independent basis, Debye):
    X=              0.0000    Y=             -1.9328    Z=              0.0002  Tot=              1.9328
 Quadrupole moment (field-independent basis, Debye-Ang):
   XX=             19.6540   YY=            -19.6668   ZZ=            -24.1982
   XY=             -0.0000   XZ=              0.0014   YZ=             -0.0004

  Exact polarizability:  83.267   0.001  38.688   0.001  -0.002  24.387
 Approx polarizability: 234.811   0.000  90.535   0.007  -0.004  36.976

                      1                      2                      3
                      A                      A                      A
 Frequencies --    112.7918               222.4251               225.2852
 Red. masses --      3.1933                 4.1790                 3.9697
 Frc consts  --      0.0239                 0.1218                 0.1187
 IR Inten    --     52.3278                 6.5709                31.2095

                      4                      5                      6
                      A                      A                      A
 Frequencies --    398.9990               558.1133               689.8464
 Red. masses --      6.7417                10.9564                 8.4425
 Frc consts  --      0.6324                 2.0108                 2.3672
 IR Inten    --      0.0000               197.7413               108.4873

                      7                      8                      9
                      A                      A                      A
 Frequencies --    708.9019               713.6491               892.9780
 Red. masses --      1.2692                 1.3018                 4.0119
 Frc consts  --      0.3758                 0.3906                 1.8849
 IR Inten    --      0.0000                66.5986                45.2475

                     10                     11                     12
                      A                      A                      A
 Frequencies --    904.7116               919.7846              1778.4832
 Red. masses --      1.4034                 1.6868                 5.6192
 Frc consts  --      0.6768                 0.8408                10.4719
 IR Inten    --     10.4895                 0.6856               820.9993

                     13                     14                     15
                      A                      A                      A
 Frequencies --   2021.1208              3157.8414              3162.5612
 Red. masses --      6.7323                 1.1580                 1.1547
 Frc consts  --     16.2031                 6.8033                 6.8045
 IR Inten    --    102.3680               731.9018                12.7725

 - Thermochemistry -
 -------------------
 Temperature   298.150 Kelvin.  Pressure   1.00000 Atm.
 Atom     1 has atomic number  6 and mass  12.00000

 Molecular mass:    62.01565 amu.
 Principal axes and moments of inertia in atomic units:
                           1         2         3
     Eigenvalues --    85.77952 424.08451 509.86403
           X            1.00000   0.00000  -0.00003
           Y            0.00000   1.00000   0.00008
           Z            0.00003  -0.00008   1.00000
 This molecule is an asymmetric top.
 Rotational symmetry number  1.
 Rotational temperatures (Kelvin)      1.00973     0.20424     0.16988
 Rotational constants (GHZ):          21.03930     4.25562     3.53965
 Zero-point vibrational energy      98497.5 (Joules/Mol)
                                   23.54146 (Kcal/Mol)
 Warning -- explicit consideration of   5 degrees of freedom as
           vibrations may cause significant error
 Vibrational temperatures:    162.28   320.02   324.13   574.07   803.00
          (Kelvin)            992.53  1019.95  1026.78  1284.79  1301.68
                             1323.36  2558.84  2907.94  4543.42  4550.21

 Zero-point correction=                           0.037516 (Hartree/Particle)
 Thermal correction to Energy=                    0.043096
 Thermal correction to Enthalpy=                  0.044040
 Thermal correction to Gibbs Free Energy=         0.009539
 Sum of electronic and zero-point Energies=           -190.536380
 Sum of electronic and thermal Energies=              -190.530800
 Sum of electronic and thermal Enthalpies=            -190.529856
 Sum of electronic and thermal Free Energies=         -190.564357

                     E (Thermal)             CV                S
                      KCal/Mol        Cal/Mol-Kelvin    Cal/Mol-Kelvin
 Total                   27.043             18.084             72.614
 Electronic               0.000              0.000              0.000
 Translational            0.889              2.981             38.294
 Rotational               0.889              2.981             24.432
 Vibrational             25.266             12.123              9.889
 Vibration     1          0.607              1.939              3.220
 Vibration     2          0.648              1.807              1.939
 Vibration     3          0.650              1.803              1.916
 Vibration     4          0.765              1.472              0.966
 Vibration     5          0.914              1.122              0.528

 Optimization completed.
    -- Stationary point found.
 Normal termination of Gaussian 09 at Tue Jul 19 05:04:29 2016.
