 Gaussian 09, Revision E.01,
 Gaussian 09:  EM64L-G09RevE.01 30-Nov-2015

 ---------------------------------------------
 #p b3lyp/6-311++G(3df,2p) freq symmetry=Loose
 ---------------------------------------------

 ---------
 b3lyp opt
 ---------
 Symbolic Z-matrix:
 Charge =  3 Multiplicity = 2

                         Standard orientation:
 ---------------------------------------------------------------------
 Center     Atomic      Atomic             Coordinates (Angstroms)
 Number     Number       Type             X           Y           Z
 ---------------------------------------------------------------------
      1          6           0       -1.335420    0.114956    0.000000
      2          6           0        0.000000    0.644917    0.000000
      3          6           0        1.231928    0.025183   -0.000000
      4          6           0        2.495451   -0.239282   -0.000000
      5          6           0       -2.028071   -0.978204    0.000000
      6          1           0       -2.268698    0.824709    0.000000
      7          1           0        0.085367    1.769870    0.000000
 ---------------------------------------------------------------------

 SCF Done:  E(UB3LYP) =  -189.637556350     A.U. after   26 cycles

 The electronic state is 2-A'.
 Alpha  occ. eigenvalues --  -11.10248 -11.10099 -11.01998 -11.00382 -10.95955
 Alpha  occ. eigenvalues --   -1.58016  -1.53495  -1.46062  -1.31389  -1.20158
 Alpha  occ. eigenvalues --   -1.16236  -1.12428  -1.10711  -1.08812  -1.03672
 Alpha virt. eigenvalues --   -0.93177  -0.88222  -0.83369  -0.71633  -0.69663
 Alpha virt. eigenvalues --   -0.60650  -0.54944  -0.51658  -0.46844  -0.43166
 Alpha virt. eigenvalues --   -0.42949  -0.41453  -0.41399  -0.39534  -0.38906

  Beta  occ. eigenvalues --  -11.08494 -11.07788 -11.02031 -11.00951 -10.95848
  Beta  occ. eigenvalues --   -1.58341  -1.53525  -1.45608  -1.30979  -1.21087
  Beta  occ. eigenvalues --   -1.14292  -1.09147  -1.05581  -1.02082
  Beta virt. eigenvalues --   -0.90873  -0.89638  -0.86005  -0.79508  -0.73272
  Beta virt. eigenvalues --   -0.69170  -0.59617  -0.55238  -0.52091  -0.46817
  Beta virt. eigenvalues --   -0.43544  -0.42919  -0.41477  -0.41080  -0.39687

 Mulliken charges and spin densities:
               1          2
     1  C    0.292415  -0.102684
     2  C    0.074833   0.033710
     3  C    0.813190  -0.529598
     4  C    0.665388   0.496464
     5  C    0.505317   1.133848
     6  H    0.321693  -0.008195
     7  H    0.327163  -0.023547
 Sum of Mulliken charges =   3.00000   1.00000

 Dipole moment (field-independent basis, Debye):
    X=             -0.1708    Y=             -0.2905    Z=              0.0000  Tot=              0.3370
 Quadrupole moment (field-independent basis, Debye-Ang):
   XX=             36.0380   YY=             -8.8035   ZZ=            -22.3962
   XY=              2.5232   XZ=             -0.0000   YZ=              0.0000

  Exact polarizability:  83.897   3.940  36.192  -0.000  -0.000  22.923
 Approx polarizability: 180.100  14.548  72.952  -0.000   0.000  30.690

                      1                      2                      3
                     A'                     A"                     A'
 Frequencies --    152.4626               195.4908               265.4085
 Red. masses --      9.6889                 2.5874                 8.1343
 Frc consts  --      0.1327                 0.0583                 0.3376
 IR Inten    --      3.5342                 2.6729                 3.2444

                      4                      5                      6
                     A"                     A'                     A"
 Frequencies --    274.4353               483.0839               538.1869
 Red. masses --      3.8489                 6.6098                 1.4846
 Frc consts  --      0.1708                 0.9088                 0.2534
 IR Inten    --     19.3909                 4.1792                58.9909

                      7                      8                      9
                     A'                     A"                     A'
 Frequencies --    801.7706               866.1320               949.5758
 Red. masses --      6.1430                 1.7467                 1.3398
 Frc consts  --      2.3266                 0.7720                 0.7118
 IR Inten    --      2.5995                 3.4716                13.4078

                     10                     11                     12
                     A'                     A'                     A'
 Frequencies --   1103.0382              1333.8073              1646.4868
 Red. masses --      1.5798                 2.0946                11.2997
 Frc consts  --      1.1325                 2.1955                18.0482
 IR Inten    --     18.9182                 1.8982               536.0489

                     13                     14                     15
                     A'                     A'                     A'
 Frequencies --   1672.6991              2401.6160              2720.9565
 Red. masses --      9.5285                 1.0735                 1.0797
 Frc consts  --     15.7076                 3.6482                 4.7099
 IR Inten    --    118.8766               626.5777               475.6352

 - Thermochemistry -
 -------------------
 Temperature   298.150 Kelvin.  Pressure   1.00000 Atm.
 Atom     1 has atomic number  6 and mass  12.00000

 Molecular mass:    62.01565 amu.
 Principal axes and moments of inertia in atomic units:
                           1         2         3
     Eigenvalues --    70.82888 607.23572 678.06460
           X            0.99590  -0.09043   0.00000
           Y            0.09043   0.99590   0.00000
           Z           -0.00000   0.00000   1.00000
 This molecule is an asymmetric top.
 Rotational symmetry number  1.
 Rotational temperatures (Kelvin)      1.22286     0.14264     0.12774
 Rotational constants (GHZ):          25.48030     2.97206     2.66161
 Zero-point vibrational energy      92143.3 (Joules/Mol)
                                   22.02277 (Kcal/Mol)
 Warning -- explicit consideration of   6 degrees of freedom as
           vibrations may cause significant error
 Vibrational temperatures:    219.36   281.27   381.86   394.85   695.05
          (Kelvin)            774.33  1153.57  1246.17  1366.23  1587.02
                             1919.05  2368.92  2406.64  3455.39  3914.84

 Zero-point correction=                           0.035096 (Hartree/Particle)
 Thermal correction to Energy=                    0.040711
 Thermal correction to Enthalpy=                  0.041655
 Thermal correction to Gibbs Free Energy=         0.006300
 Sum of electronic and zero-point Energies=           -189.602461
 Sum of electronic and thermal Energies=              -189.596845
 Sum of electronic and thermal Enthalpies=            -189.595901
 Sum of electronic and thermal Free Energies=         -189.631257

                     E (Thermal)             CV                S
                      KCal/Mol        Cal/Mol-Kelvin    Cal/Mol-Kelvin
 Total                   25.547             17.747             74.412
 Electronic               0.000              0.000              1.377
 Translational            0.889              2.981             38.294
 Rotational               0.889              2.981             24.881
 Vibrational             23.769             11.786              9.859
 Vibration     1          0.619              1.900              2.641
 Vibration     2          0.636              1.846              2.175
 Vibration     3          0.671              1.736              1.626
 Vibration     4          0.677              1.721              1.568
 Vibration     5          0.839              1.288              0.702
 Vibration     6          0.893              1.166              0.569

 Normal termination of Gaussian 09 at Tue Jul 19 09:33:30 2016.
