 Gaussian 09, Revision E.01,
 Gaussian 09:  EM64L-G09RevE.01 30-Nov-2015

 ---------------------------------------------
 #p b3lyp/6-311++G(3df,2p) freq symmetry=Loose
 ---------------------------------------------

 ---------
 b3lyp opt
 ---------
 Symbolic Z-matrix:
 Charge =  3 Multiplicity = 4

                         Standard orientation:
 ---------------------------------------------------------------------
 Center     Atomic      Atomic             Coordinates (Angstroms)
 Number     Number       Type             X           Y           Z
 ---------------------------------------------------------------------
      1          6           0       -1.326022    0.358028    0.069806
      2          6           0        0.000000    0.836783   -0.000140
      3          6           0        1.326022    0.358005   -0.069925
      4          6           0        0.716864   -0.907786    0.164651
      5          6           0       -0.716864   -0.907841   -0.164348
      6          1           0       -2.376303    0.788445    0.063699
      7          1           0        2.376303    0.788424   -0.063963
 ---------------------------------------------------------------------

 SCF Done:  E(UB3LYP) =  -189.657762208     A.U. after   14 cycles

 The electronic state is 4-A.
 Alpha  occ. eigenvalues --  -11.15254 -11.14548 -11.14515 -11.07076 -11.07074
 Alpha  occ. eigenvalues --   -1.78877  -1.60289  -1.49782  -1.34187  -1.32186
 Alpha  occ. eigenvalues --   -1.26581  -1.24083  -1.23718  -1.13650  -1.07739
 Alpha  occ. eigenvalues --   -1.06669
 Alpha virt. eigenvalues --   -0.94346  -0.88091  -0.79234  -0.77824  -0.63117
 Alpha virt. eigenvalues --   -0.58370  -0.55810  -0.52440  -0.49546  -0.47280
 Alpha virt. eigenvalues --   -0.45022  -0.43097  -0.42474  -0.42340  -0.39490

  Beta  occ. eigenvalues --  -11.14436 -11.12559 -11.12532 -11.06462 -11.06460
  Beta  occ. eigenvalues --   -1.76076  -1.57450  -1.45791  -1.31214  -1.28470
  Beta  occ. eigenvalues --   -1.23888  -1.22432  -1.17580
  Beta virt. eigenvalues --   -0.99468  -0.95094  -0.92605  -0.86791  -0.81234
  Beta virt. eigenvalues --   -0.72256  -0.71781  -0.61562  -0.56010  -0.53183
  Beta virt. eigenvalues --   -0.51427  -0.48625  -0.44947  -0.43879  -0.41897

 Mulliken charges and spin densities:
               1          2
     1  C    0.165827   0.372585
     2  C    0.736492   0.322551
     3  C    0.165825   0.372585
     4  C    0.544344   0.930788
     5  C    0.544345   0.930788
     6  H    0.421584   0.035351
     7  H    0.421584   0.035351
 Sum of Mulliken charges =   3.00000   3.00000

 Dipole moment (field-independent basis, Debye):
    X=             -0.0000    Y=              0.6879    Z=             -0.0001  Tot=              0.6879
 Quadrupole moment (field-independent basis, Debye-Ang):
   XX=              9.2957   YY=             -8.1865   ZZ=            -21.2162
   XY=             -0.0001   XZ=             -0.3766   YZ=             -0.0022

  Exact polarizability:  49.815   0.000  37.382   0.390  -0.003  20.202
 Approx polarizability: 100.346   0.000  95.834   2.919  -0.011  31.465

                      1                      2                      3
                      A                      A                      A
 Frequencies --    320.4123               452.6896               516.0654
 Red. masses --      3.9850                 9.3202                 7.4724
 Frc consts  --      0.2410                 1.1253                 1.1725
 IR Inten    --     17.0831                 5.9816                 4.6759

                      4                      5                      6
                      A                      A                      A
 Frequencies --    572.9375               711.2386               722.9598
 Red. masses --      4.6870                 7.3676                 1.3220
 Frc consts  --      0.9065                 2.1959                 0.4071
 IR Inten    --     14.8101                 0.7825                92.6720

                      7                      8                      9
                      A                      A                      A
 Frequencies --    789.9848               880.0464               962.4570
 Red. masses --      1.6024                 3.9747                 2.1181
 Frc consts  --      0.5892                 1.8137                 1.1560
 IR Inten    --      2.4560                 8.6417                28.3347

                     10                     11                     12
                      A                      A                      A
 Frequencies --    988.2927               993.3550              1190.2587
 Red. masses --      1.2513                 2.1320                 6.6431
 Frc consts  --      0.7201                 1.2395                 5.5450
 IR Inten    --     80.8777                 5.0538                 1.2285

                     13                     14                     15
                      A                      A                      A
 Frequencies --   1280.3528              2648.3774              2701.4537
 Red. masses --      7.5089                 1.1016                 1.1107
 Frc consts  --      7.2525                 4.5525                 4.7759
 IR Inten    --     91.2618              1512.9256               221.1762

 - Thermochemistry -
 -------------------
 Temperature   298.150 Kelvin.  Pressure   1.00000 Atm.
 Atom     1 has atomic number  6 and mass  12.00000

 Molecular mass:    62.01565 amu.
 Principal axes and moments of inertia in atomic units:
                           1         2         3
     Eigenvalues --   118.71879 238.15549 351.35047
           X            0.99999  -0.00000  -0.00462
           Y            0.00000   1.00000   0.00017
           Z            0.00462  -0.00017   0.99999
 This molecule is an asymmetric top.
 Rotational symmetry number  1.
 Rotational temperatures (Kelvin)      0.72957     0.36369     0.24652
 Rotational constants (GHZ):          15.20182     7.57800     5.13658
 Zero-point vibrational energy      94091.6 (Joules/Mol)
                                   22.48842 (Kcal/Mol)
 Warning -- explicit consideration of   4 degrees of freedom as
           vibrations may cause significant error
 Vibrational temperatures:    461.00   651.32   742.50   824.33  1023.31
          (Kelvin)           1040.18  1136.61  1266.19  1384.76  1421.93
                             1429.21  1712.51  1842.14  3810.42  3886.78

 Zero-point correction=                           0.035838 (Hartree/Particle)
 Thermal correction to Energy=                    0.040215
 Thermal correction to Enthalpy=                  0.041159
 Thermal correction to Gibbs Free Energy=         0.008190
 Sum of electronic and zero-point Energies=           -189.621925
 Sum of electronic and thermal Energies=              -189.617547
 Sum of electronic and thermal Enthalpies=            -189.616603
 Sum of electronic and thermal Free Energies=         -189.649572

                     E (Thermal)             CV                S
                      KCal/Mol        Cal/Mol-Kelvin    Cal/Mol-Kelvin
 Total                   25.235             15.610             69.389
 Electronic               0.000              0.000              2.755
 Translational            0.889              2.981             38.294
 Rotational               0.889              2.981             23.811
 Vibrational             23.458              9.649              4.529
 Vibration     1          0.706              1.634              1.308
 Vibration     2          0.811              1.355              0.788
 Vibration     3          0.871              1.214              0.619
 Vibration     4          0.929              1.090              0.499

 Optimization completed.
    -- Stationary point found.
 Normal termination of Gaussian 09 at Tue Jul 19 11:26:55 2016.
