 Gaussian 09, Revision E.01,
 Gaussian 09:  EM64L-G09RevE.01 30-Nov-2015

 ---------------------------------------------
 #p b3lyp/6-311++G(3df,2p) freq symmetry=Loose
 ---------------------------------------------

 ---------
 b3lyp opt
 ---------
 Symbolic Z-matrix:
 Charge =  0 Multiplicity = 3

                         Standard orientation:
 ---------------------------------------------------------------------
 Center     Atomic      Atomic             Coordinates (Angstroms)
 Number     Number       Type             X           Y           Z
 ---------------------------------------------------------------------
      1          6           0        0.000000   -2.401071    0.000000
      2          6           0        0.000000   -1.075953    0.000000
      3          6           0       -0.000000    0.191107   -0.000000
      4          6           0       -0.000000    1.486934   -0.000000
      5          6           0       -0.000000    2.784867   -0.000000
      6          1           0        0.000003   -2.957657    0.928870
      7          1           0        0.000003   -2.957657   -0.928870
 ---------------------------------------------------------------------

 SCF Done:  E(UB3LYP) =  -191.529600166     A.U. after   15 cycles

 The electronic state is 3-A".
 Alpha  occ. eigenvalues --  -10.26816 -10.24984 -10.23144 -10.22909 -10.22562
 Alpha  occ. eigenvalues --   -0.87083  -0.81474  -0.75153  -0.65590  -0.53693
 Alpha  occ. eigenvalues --   -0.50411  -0.42098  -0.39968  -0.33531  -0.31059
 Alpha  occ. eigenvalues --   -0.29407  -0.23086
 Alpha virt. eigenvalues --   -0.08319  -0.03408  -0.01859   0.01355   0.02080
 Alpha virt. eigenvalues --    0.04397   0.05548   0.06697   0.07703   0.07752
 Alpha virt. eigenvalues --    0.08239   0.09370   0.09801   0.11508   0.11756

  Beta  occ. eigenvalues --  -10.26469 -10.24443 -10.22465 -10.22352 -10.21816
  Beta  occ. eigenvalues --   -0.85034  -0.79438  -0.72176  -0.63940  -0.52655
  Beta  occ. eigenvalues --   -0.48863  -0.39590  -0.36742  -0.30419  -0.29012
  Beta virt. eigenvalues --   -0.19819  -0.13631  -0.04544  -0.01682  -0.00673
  Beta virt. eigenvalues --    0.01466   0.02193   0.04788   0.05730   0.07160
  Beta virt. eigenvalues --    0.07731   0.08556   0.09150   0.09537   0.10408

 Mulliken charges and spin densities:
               1          2
     1  C   -0.574335   0.559857
     2  C    0.629643  -0.017517
     3  C   -0.668932   0.512996
     4  C    1.012798   0.315498
     5  C   -0.794510   0.606027
     6  H    0.197667   0.011569
     7  H    0.197667   0.011569
 Sum of Mulliken charges =  -0.00000   2.00000

 Dipole moment (field-independent basis, Debye):
    X=              0.0000    Y=             -5.2631    Z=              0.0000  Tot=              5.2631
 Quadrupole moment (field-independent basis, Debye-Ang):
   XX=            -31.0347   YY=            -35.6999   ZZ=            -27.2932
   XY=             -0.0000   XZ=             -0.0000   YZ=             -0.0000

  Exact polarizability:  38.377   0.000 153.239  -0.000  -0.000  40.796
 Approx polarizability:  52.609   0.000 302.346  -0.000  -0.000  55.218

                      1                      2                      3
                     A"                     A'                     A"
 Frequencies --    109.5331               139.9977               262.2368
 Red. masses --      6.7182                 6.6257                 4.1525
 Frc consts  --      0.0475                 0.0765                 0.1682
 IR Inten    --     13.1102                 0.9643                19.9878

                      4                      5                      6
                     A'                     A"                     A'
 Frequencies --    368.7895               469.7050               482.9803
 Red. masses --      8.1180                 5.1403                 9.1289
 Frc consts  --      0.6505                 0.6682                 1.2547
 IR Inten    --      5.7758                 4.1810                 0.2098

                      7                      8                      9
                     A'                     A'                     A"
 Frequencies --    709.5329               754.2632               950.5895
 Red. masses --      1.3306                 6.4848                 1.5644
 Frc consts  --      0.3947                 2.1737                 0.8329
 IR Inten    --     63.3438                 0.7977                 0.4629

                     10                     11                     12
                     A'                     A'                     A'
 Frequencies --   1305.4245              1430.8220              1833.4292
 Red. masses --      2.4317                 1.6622                11.4512
 Frc consts  --      2.4415                 2.0049                22.6792
 IR Inten    --     11.4802                 1.1075               288.4885

                     13                     14                     15
                     A'                     A'                     A"
 Frequencies --   1933.9523              3125.3538              3207.7254
 Red. masses --     11.9123                 1.0527                 1.1143
 Frc consts  --     26.2505                 6.0584                 6.7550
 IR Inten    --      7.1590                26.2402                 5.5308

 - Thermochemistry -
 -------------------
 Temperature   298.150 Kelvin.  Pressure   1.00000 Atm.
 Atom     1 has atomic number  6 and mass  12.00000

 Molecular mass:    62.01565 amu.
 Principal axes and moments of inertia in atomic units:
                           1         2         3
     Eigenvalues --     6.21045 786.30027 792.51072
           X           -0.00000   0.00000   1.00000
           Y            1.00000   0.00000   0.00000
           Z           -0.00000   1.00000  -0.00000
 This molecule is an asymmetric top.
 Rotational symmetry number  1.
 Rotational temperatures (Kelvin)     13.94647     0.11015     0.10929
 Rotational constants (GHZ):         290.59770     2.29523     2.27725
 Zero-point vibrational energy     102187.0 (Joules/Mol)
                                   24.42328 (Kcal/Mol)
 Warning -- explicit consideration of   6 degrees of freedom as
           vibrations may cause significant error
 Vibrational temperatures:    157.59   201.43   377.30   530.61   675.80
          (Kelvin)            694.90  1020.86  1085.22  1367.68  1878.21
                             2058.63  2637.89  2782.52  4496.68  4615.20

 Zero-point correction=                           0.038921 (Hartree/Particle)
 Thermal correction to Energy=                    0.044692
 Thermal correction to Enthalpy=                  0.045636
 Thermal correction to Gibbs Free Energy=         0.010329
 Sum of electronic and zero-point Energies=           -191.490679
 Sum of electronic and thermal Energies=              -191.484909
 Sum of electronic and thermal Enthalpies=            -191.483964
 Sum of electronic and thermal Free Energies=         -191.519271

                     E (Thermal)             CV                S
                      KCal/Mol        Cal/Mol-Kelvin    Cal/Mol-Kelvin
 Total                   28.044             17.953             74.309
 Electronic               0.000              0.000              2.183
 Translational            0.889              2.981             38.294
 Rotational               0.889              2.981             22.875
 Vibrational             26.267             11.992             10.957
 Vibration     1          0.606              1.942              3.277
 Vibration     2          0.615              1.913              2.804
 Vibration     3          0.670              1.742              1.647
 Vibration     4          0.741              1.536              1.085
 Vibration     5          0.827              1.317              0.738
 Vibration     6          0.839              1.288              0.702

 Optimization completed.
    -- Stationary point found.
 Normal termination of Gaussian 09 at Tue Jul 19 08:00:38 2016.
