 Gaussian 09, Revision E.01,
 Gaussian 09:  EM64L-G09RevE.01 30-Nov-2015

 ------------------------------------------------------
 #p b3lyp/6-311++G(3df,2p) freq IOp(2/17=3) IOp(2/18=3)
 ------------------------------------------------------

 ---------
 b3lyp opt
 ---------
 Symbolic Z-matrix:
 Charge =  3 Multiplicity = 4

                         Standard orientation:
 ---------------------------------------------------------------------
 Center     Atomic      Atomic             Coordinates (Angstroms)
 Number     Number       Type             X           Y           Z
 ---------------------------------------------------------------------
      1          6           0        0.000000   -0.000000    2.629733
      2          6           0        0.000000   -0.000000    1.296980
      3          6           0       -0.000000    0.000000    0.000001
      4          6           0       -0.000000    0.000000   -1.296981
      5          6           0       -0.000000    0.000000   -2.629737
      6          1           0        0.000000   -0.000000    3.751993
      7          1           0       -0.000000    0.000000   -3.751976
 ---------------------------------------------------------------------

 SCF Done:  E(UB3LYP) =  -189.814645692     A.U. after   14 cycles

 Unable to determine electronic state:  an orbital has unidentified symmetry.
 Alpha  occ. eigenvalues --  -11.03476 -11.03474 -11.01538 -11.01533 -10.97646
 Alpha  occ. eigenvalues --   -1.57528  -1.54182  -1.46031  -1.37125  -1.21934
 Alpha  occ. eigenvalues --   -1.21420  -1.11747  -1.10490  -1.05665  -1.04344
 Alpha  occ. eigenvalues --   -0.93673
 Alpha virt. eigenvalues --   -0.86414  -0.75385  -0.73680  -0.57974  -0.57669
 Alpha virt. eigenvalues --   -0.56596  -0.53561  -0.49322  -0.44884  -0.44599
 Alpha virt. eigenvalues --   -0.39934  -0.39928  -0.37291  -0.37072  -0.35208

  Beta  occ. eigenvalues --  -11.01848 -11.01846 -11.00640 -11.00638 -10.97603
  Beta  occ. eigenvalues --   -1.54349  -1.48822  -1.42215  -1.34953  -1.20120
  Beta  occ. eigenvalues --   -1.19786  -1.06709  -1.05388
  Beta virt. eigenvalues --   -0.93119  -0.92251  -0.82218  -0.80052  -0.68321
  Beta virt. eigenvalues --   -0.67027  -0.54137  -0.53473  -0.52250  -0.50687
  Beta virt. eigenvalues --   -0.48952  -0.43767  -0.43696  -0.39591  -0.39198

 Mulliken charges and spin densities:
               1          2
     1  C    0.540111   0.649959
     2  C    0.544680   0.475736
     3  C   -0.182521   0.807503
     4  C    0.544665   0.475737
     5  C    0.540133   0.649970
     6  H    0.506463  -0.029454
     7  H    0.506469  -0.029452
 Sum of Mulliken charges =   3.00000   3.00000

 Dipole moment (field-independent basis, Debye):
    X=              0.0000    Y=             -0.0000    Z=              0.0001  Tot=              0.0001
 Quadrupole moment (field-independent basis, Debye-Ang):
   XX=            -21.9387   YY=            -20.5160   ZZ=             74.8958
   XY=             -0.0000   XZ=              0.0000   YZ=             -0.0000

  Exact polarizability:  20.718  -0.000  20.381  -0.000   0.000 127.681
 Approx polarizability:  28.052  -0.000  28.637   0.000  -0.000 332.318

                      1                      2                      3
                     ?A                     ?A                     ?B
 Frequencies --    140.8141               145.6865               325.6157
 Red. masses --      4.9008                 3.8393                 4.1041
 Frc consts  --      0.0573                 0.0480                 0.2564
 IR Inten    --     34.7412                37.7589                 0.0000

                      4                      5                      6
                     ?B                     ?A                     ?B
 Frequencies --    384.2653               407.4799               418.9437
 Red. masses --      2.8502                 1.1892                 1.6264
 Frc consts  --      0.2480                 0.1163                 0.1682
 IR Inten    --      0.0002                76.1824                 0.0037

                      7                      8                      9
                     ?A                     ?A                     SG
 Frequencies --    525.1140               588.8775               743.7101
 Red. masses --     11.8502                 5.3441                 6.8303
 Frc consts  --      1.9252                 1.0919                 2.2259
 IR Inten    --      4.7250                 8.4480                 0.0000

                     10                     11                     12
                     ?B                     ?A                     SG
 Frequencies --    807.1506               812.6398              1138.9444
 Red. masses --      1.3850                 1.4668                 6.5824
 Frc consts  --      0.5316                 0.5707                 5.0308
 IR Inten    --      0.0007                18.9608               935.9666

                     13                     14                     15
                     SG                     SG                     SG
 Frequencies --   1698.9233              1840.7700              2853.9759
 Red. masses --      7.4257                11.2858                 1.1251
 Frc consts  --     12.6281                22.5310                 5.3992
 IR Inten    --      0.0000                59.3379              1922.2896

                     16
                     SG
 Frequencies --   2878.1599
 Red. masses --      1.1392
 Frc consts  --      5.5599
 IR Inten    --      0.0248

 - Thermochemistry -
 -------------------
 Temperature   298.150 Kelvin.  Pressure   1.00000 Atm.
 Atom     1 has atomic number  6 and mass  12.00000

 Molecular mass:    62.01565 amu.
 Principal axes and moments of inertia in atomic units:
                           1         2         3
     Eigenvalues --     0.00000 838.19703 838.19703
           X            0.00000  -0.58378   0.81191
           Y           -0.00000   0.81191   0.58378
           Z            1.00000   0.00000  -0.00000
 This molecule is a prolate symmetric top.
 Rotational symmetry number  1.
 Warning -- assumption of classical behavior for rotation
           may cause significant error
 Rotational temperature (Kelvin)      0.10333
 Rotational constant (GHZ):           2.153123
 Zero-point vibrational energy      93973.1 (Joules/Mol)
                                   22.46010 (Kcal/Mol)
 Warning -- explicit consideration of   8 degrees of freedom as
           vibrations may cause significant error
 Vibrational temperatures:    202.60   209.61   468.49   552.87   586.27
          (Kelvin)            602.77   755.52   847.26  1070.03  1161.31
                             1169.21  1638.68  2444.37  2648.45  4106.23
                             4141.03

 Zero-point correction=                           0.035792 (Hartree/Particle)
 Thermal correction to Energy=                    0.041415
 Thermal correction to Enthalpy=                  0.042360
 Thermal correction to Gibbs Free Energy=         0.008953
 Sum of electronic and zero-point Energies=           -189.778853
 Sum of electronic and thermal Energies=              -189.773230
 Sum of electronic and thermal Enthalpies=            -189.772286
 Sum of electronic and thermal Free Energies=         -189.805693

                     E (Thermal)             CV                S
                      KCal/Mol        Cal/Mol-Kelvin    Cal/Mol-Kelvin
 Total                   25.989             19.373             70.310
 Electronic               0.000              0.000              2.755
 Translational            0.889              2.981             38.294
 Rotational               0.592              1.987             17.820
 Vibrational             24.507             14.405             11.441
 Vibration     1          0.615              1.912              2.793
 Vibration     2          0.617              1.907              2.728
 Vibration     3          0.710              1.624              1.282
 Vibration     4          0.753              1.504              1.022
 Vibration     5          0.772              1.454              0.936
 Vibration     6          0.782              1.429              0.896
 Vibration     7          0.880              1.194              0.598
 Vibration     8          0.946              1.056              0.469

 Optimization completed.
    -- Stationary point found.
 Normal termination of Gaussian 09 at Thu Jan 31 05:13:46 2019.
