 Gaussian 09, Revision E.01,
 Gaussian 09:  EM64L-G09RevE.01 30-Nov-2015

 ---------------------------------------------
 #p b3lyp/6-311++G(3df,2p) freq symmetry=Loose
 ---------------------------------------------

 ---------
 b3lyp opt
 ---------
 Symbolic Z-matrix:
 Charge =  0 Multiplicity = 1

                         Standard orientation:
 ---------------------------------------------------------------------
 Center     Atomic      Atomic             Coordinates (Angstroms)
 Number     Number       Type             X           Y           Z
 ---------------------------------------------------------------------
      1          6           0       -0.053111    0.874771    0.000000
      2          6           0       -1.236365   -0.261774   -0.000000
      3          6           0       -0.053111   -0.401969    0.899212
      4          6           0        1.061788   -0.121173   -0.000000
      5          6           0       -0.053111   -0.401969   -0.899212
      6          1           0       -0.132318    1.943308    0.000000
      7          1           0        2.135782   -0.070624   -0.000000
 ---------------------------------------------------------------------

 SCF Done:  E(RB3LYP) =  -191.450450178     A.U. after   12 cycles

 The electronic state is 1-A'.
 Alpha  occ. eigenvalues --  -10.28377 -10.27546 -10.26253 -10.26248 -10.23437
 Alpha  occ. eigenvalues --   -1.08699  -0.74904  -0.65659  -0.65177  -0.57350
 Alpha  occ. eigenvalues --   -0.47961  -0.42411  -0.36723  -0.32739  -0.30838
 Alpha  occ. eigenvalues --   -0.26764
 Alpha virt. eigenvalues --   -0.08756  -0.01608  -0.00287   0.00276   0.01799
 Alpha virt. eigenvalues --    0.03076   0.05196   0.05207   0.07031   0.07486
 Alpha virt. eigenvalues --    0.07775   0.08231   0.08465   0.08897   0.10343

 Mulliken charges:
               1
     1  C    0.227204
     2  C   -0.270890
     3  C   -0.404558
     4  C    0.244866
     5  C   -0.404558
     6  H    0.317769
     7  H    0.290167
 Sum of Mulliken charges =  -0.00000

 Dipole moment (field-independent basis, Debye):
    X=              3.8970    Y=              2.0856    Z=             -0.0000  Tot=              4.4200
 Quadrupole moment (field-independent basis, Debye-Ang):
   XX=            -30.4247   YY=            -26.7090   ZZ=            -32.1788
   XY=             -0.7287   XZ=             -0.0000   YZ=              0.0000

  Exact polarizability:  50.468   0.895  43.372  -0.000  -0.000  50.595
 Approx polarizability:  81.275   2.256  77.348  -0.000   0.000 118.868

                      1                      2                      3
                     A"                     A'                     A'
 Frequencies --    288.8563               319.7788               528.3417
 Red. masses --      7.5352                 8.9625                 8.2491
 Frc consts  --      0.3704                 0.5400                 1.3567
 IR Inten    --     97.3874                17.2291                 9.4531

                      4                      5                      6
                     A"                     A"                     A'
 Frequencies --    752.7820               786.3366               817.2441
 Red. masses --      9.4841                 1.3863                 1.5719
 Frc consts  --      3.1665                 0.5051                 0.6186
 IR Inten    --      0.5009                23.1760                15.6283

                      7                      8                      9
                     A'                     A'                     A"
 Frequencies --    878.0693               923.3495               964.3421
 Red. masses --      1.9504                 1.8982                 1.4964
 Frc consts  --      0.8860                 0.9535                 0.8199
 IR Inten    --      3.9754                 8.3479                 0.3000

                     10                     11                     12
                     A'                     A"                     A'
 Frequencies --   1090.7298              1102.9431              1207.5319
 Red. masses --      3.8588                 2.4785                 7.7817
 Frc consts  --      2.7048                 1.7764                 6.6854
 IR Inten    --      9.4513                 3.0078                16.0938

                     13                     14                     15
                     A'                     A'                     A'
 Frequencies --   1326.0734              3274.0624              3305.3572
 Red. masses --      6.3712                 1.1058                 1.1021
 Frc consts  --      6.6010                 6.9837                 7.0944
 IR Inten    --      1.8048                 3.7478                23.8966

 - Thermochemistry -
 -------------------
 Temperature   298.150 Kelvin.  Pressure   1.00000 Atm.
 Atom     1 has atomic number  6 and mass  12.00000

 Molecular mass:    62.01565 amu.
 Principal axes and moments of inertia in atomic units:
                           1         2         3
     Eigenvalues --   132.28750 194.04837 200.36093
           X            0.99537   0.00000  -0.09613
           Y            0.09613   0.00000   0.99537
           Z           -0.00000   1.00000  -0.00000
 This molecule is an asymmetric top.
 Rotational symmetry number  1.
 Rotational temperatures (Kelvin)      0.65474     0.44635     0.43229
 Rotational constants (GHZ):          13.64257     9.30047     9.00745
 Zero-point vibrational energy     105066.8 (Joules/Mol)
                                   25.11157 (Kcal/Mol)
 Warning -- explicit consideration of   3 degrees of freedom as
           vibrations may cause significant error
 Vibrational temperatures:    415.60   460.09   760.16  1083.08  1131.36
          (Kelvin)           1175.83  1263.34  1328.49  1387.47  1569.31
                             1586.89  1737.37  1907.92  4710.64  4755.67

 Zero-point correction=                           0.040018 (Hartree/Particle)
 Thermal correction to Energy=                    0.044361
 Thermal correction to Enthalpy=                  0.045305
 Thermal correction to Gibbs Free Energy=         0.013911
 Sum of electronic and zero-point Energies=           -191.410432
 Sum of electronic and thermal Energies=              -191.406089
 Sum of electronic and thermal Enthalpies=            -191.405145
 Sum of electronic and thermal Free Energies=         -191.436539

                     E (Thermal)             CV                S
                      KCal/Mol        Cal/Mol-Kelvin    Cal/Mol-Kelvin
 Total                   27.837             14.826             66.074
 Electronic               0.000              0.000              0.000
 Translational            0.889              2.981             38.294
 Rotational               0.889              2.981             23.157
 Vibrational             26.059              8.864              4.623
 Vibration     1          0.685              1.694              1.481
 Vibration     2          0.706              1.636              1.311
 Vibration     3          0.883              1.187              0.591

 Optimization completed.
    -- Stationary point found.
 Normal termination of Gaussian 09 at Tue Jul 19 05:22:16 2016.
