 Gaussian 09, Revision E.01,
 Gaussian 09:  EM64L-G09RevE.01 30-Nov-2015

 ---------------------------------------------
 #p b3lyp/6-311++G(3df,2p) freq symmetry=Loose
 ---------------------------------------------

 ---------
 b3lyp opt
 ---------
 Symbolic Z-matrix:
 Charge =  0 Multiplicity = 3

                         Standard orientation:
 ---------------------------------------------------------------------
 Center     Atomic      Atomic             Coordinates (Angstroms)
 Number     Number       Type             X           Y           Z
 ---------------------------------------------------------------------
      1          6           0       -0.720982   -0.811746   -0.264276
      2          6           0       -0.727580    0.657791   -0.208979
      3          6           0        0.727459    0.657789   -0.209403
      4          6           0        0.720826   -0.811747   -0.264696
      5          6           0        0.000278   -0.153585    0.953000
      6          1           0       -1.498200    1.384495   -0.016501
      7          1           0        1.498193    1.384492   -0.017376
 ---------------------------------------------------------------------

 SCF Done:  E(UB3LYP) =  -191.406730320     A.U. after   15 cycles

 The electronic state is 3-A.
 Alpha  occ. eigenvalues --  -10.25925 -10.25886 -10.25674 -10.25639 -10.24496
 Alpha  occ. eigenvalues --   -1.06496  -0.72144  -0.71448  -0.58364  -0.53986
 Alpha  occ. eigenvalues --   -0.51698  -0.45507  -0.34929  -0.32674  -0.31890
 Alpha  occ. eigenvalues --   -0.29629  -0.28041
 Alpha virt. eigenvalues --   -0.00521   0.00504   0.00934   0.01677   0.02990
 Alpha virt. eigenvalues --    0.05239   0.06024   0.06627   0.07177   0.08346
 Alpha virt. eigenvalues --    0.08760   0.08881   0.10046   0.10683   0.11733

  Beta  occ. eigenvalues --  -10.25380 -10.25346 -10.24434 -10.24397 -10.23881
  Beta  occ. eigenvalues --   -1.05054  -0.70542  -0.69643  -0.56557  -0.51875
  Beta  occ. eigenvalues --   -0.49846  -0.43702  -0.31829  -0.30985  -0.27963
  Beta virt. eigenvalues --   -0.15057  -0.14539  -0.00426   0.01179   0.01819
  Beta virt. eigenvalues --    0.01922   0.03465   0.05639   0.06808   0.07494
  Beta virt. eigenvalues --    0.07725   0.08659   0.08965   0.09288   0.10591

 Mulliken charges and spin densities:
               1          2
     1  C    0.008872   0.779514
     2  C   -0.057102   0.084718
     3  C   -0.057107   0.084717
     4  C    0.008874   0.779515
     5  C   -0.297657   0.228420
     6  H    0.197061   0.021558
     7  H    0.197060   0.021558
 Sum of Mulliken charges =  -0.00000   2.00000

 Dipole moment (field-independent basis, Debye):
    X=             -0.0002    Y=              2.3761    Z=             -0.6057  Tot=              2.4521
 Quadrupole moment (field-independent basis, Debye-Ang):
   XX=            -27.1270   YY=            -27.5056   ZZ=            -33.2384
   XY=             -0.0000   XZ=             -0.0018   YZ=             -0.0794

  Exact polarizability:  52.788   0.001  50.802  -0.002   4.026  47.472
 Approx polarizability:  87.307   0.003  83.969   0.000   8.627  87.828

                      1                      2                      3
                      A                      A                      A
 Frequencies --    224.0751               449.0368               474.0555
 Red. masses --      9.7314                10.5259                 8.6503
 Frc consts  --      0.2879                 1.2505                 1.1454
 IR Inten    --      5.8172                37.9039                 6.3954

                      4                      5                      6
                      A                      A                      A
 Frequencies --    746.0158               843.3515               905.5732
 Red. masses --      2.7104                 1.9345                 2.1612
 Frc consts  --      0.8888                 0.8106                 1.0442
 IR Inten    --    113.9558                 0.0003                43.4224

                      7                      8                      9
                      A                      A                      A
 Frequencies --    931.1852               998.4515              1039.6122
 Red. masses --      1.9049                 1.3264                 1.9218
 Frc consts  --      0.9732                 0.7791                 1.2238
 IR Inten    --     72.6446                 0.0047                 2.7041

                     10                     11                     12
                      A                      A                      A
 Frequencies --   1154.2965              1221.5573              1243.7777
 Red. masses --      6.5104                 2.2717                 3.5472
 Frc consts  --      5.1109                 1.9972                 3.2331
 IR Inten    --      4.9949                 0.0005                 0.0217

                     13                     14                     15
                      A                      A                      A
 Frequencies --   1301.6008              3233.4533              3248.6715
 Red. masses --      6.8483                 1.0910                 1.1062
 Frc consts  --      6.8358                 6.7207                 6.8783
 IR Inten    --      1.7129                 0.7733                 1.3649

 - Thermochemistry -
 -------------------
 Temperature   298.150 Kelvin.  Pressure   1.00000 Atm.
 Atom     1 has atomic number  6 and mass  12.00000

 Molecular mass:    62.01565 amu.
 Principal axes and moments of inertia in atomic units:
                           1         2         3
     Eigenvalues --   154.72731 156.59863 213.99259
           X            0.00000   1.00000   0.00029
           Y            1.00000  -0.00000  -0.00289
           Z            0.00289  -0.00029   1.00000
 This molecule is an asymmetric top.
 Rotational symmetry number  1.
 Rotational temperatures (Kelvin)      0.55978     0.55309     0.40475
 Rotational constants (GHZ):          11.66401    11.52463     8.43366
 Zero-point vibrational energy     107751.9 (Joules/Mol)
                                   25.75333 (Kcal/Mol)
 Warning -- explicit consideration of   3 degrees of freedom as
           vibrations may cause significant error
 Vibrational temperatures:    322.39   646.06   682.06  1073.35  1213.39
          (Kelvin)           1302.92  1339.77  1436.55  1495.77  1660.77
                             1757.55  1789.52  1872.71  4652.21  4674.11

 Zero-point correction=                           0.041041 (Hartree/Particle)
 Thermal correction to Energy=                    0.045298
 Thermal correction to Enthalpy=                  0.046242
 Thermal correction to Gibbs Free Energy=         0.013882
 Sum of electronic and zero-point Energies=           -191.365690
 Sum of electronic and thermal Energies=              -191.361432
 Sum of electronic and thermal Enthalpies=            -191.360488
 Sum of electronic and thermal Free Energies=         -191.392848

                     E (Thermal)             CV                S
                      KCal/Mol        Cal/Mol-Kelvin    Cal/Mol-Kelvin
 Total                   28.425             14.182             68.107
 Electronic               0.000              0.000              2.183
 Translational            0.889              2.981             38.294
 Rotational               0.889              2.981             23.165
 Vibrational             26.648              8.220              4.465
 Vibration     1          0.649              1.804              1.926
 Vibration     2          0.808              1.363              0.799
 Vibration     3          0.831              1.308              0.726

 Optimization completed.
    -- Stationary point found.
 Normal termination of Gaussian 09 at Tue Jul 19 09:18:21 2016.
