 Gaussian 09, Revision E.01,
 Gaussian 09:  EM64L-G09RevE.01 30-Nov-2015

 ---------------------------------------------
 #p b3lyp/6-311++G(3df,2p) freq symmetry=Loose
 ---------------------------------------------

 ---------
 b3lyp opt
 ---------
 Symbolic Z-matrix:
 Charge =  1 Multiplicity = 2

                         Standard orientation:
 ---------------------------------------------------------------------
 Center     Atomic      Atomic             Coordinates (Angstroms)
 Number     Number       Type             X           Y           Z
 ---------------------------------------------------------------------
      1          6           0        0.000000    1.360934    0.336445
      2          6           0        0.000000    0.000000    0.673530
      3          6           0       -0.000000   -1.360934    0.336445
      4          6           0        0.185980   -0.678266   -0.808636
      5          6           0       -0.185980    0.678266   -0.808636
      6          1           0       -0.155585    2.313926    0.812553
      7          1           0        0.155585   -2.313926    0.812553
 ---------------------------------------------------------------------

 SCF Done:  E(UB3LYP) =  -191.185174123     A.U. after   15 cycles

 The electronic state is 2-B.
 Alpha  occ. eigenvalues --  -10.55866 -10.53144 -10.53095 -10.49559 -10.49556
 Alpha  occ. eigenvalues --   -1.28494  -1.08607  -0.93013  -0.81844  -0.77467
 Alpha  occ. eigenvalues --   -0.74326  -0.73962  -0.71444  -0.59918  -0.53506
 Alpha  occ. eigenvalues --   -0.49874
 Alpha virt. eigenvalues --   -0.35125  -0.25593  -0.25342  -0.20908  -0.15279
 Alpha virt. eigenvalues --   -0.12903  -0.12394  -0.10930  -0.10728  -0.09823
 Alpha virt. eigenvalues --   -0.06890  -0.05894  -0.05425  -0.05065  -0.04698

  Beta  occ. eigenvalues --  -10.55470 -10.52346 -10.52298 -10.49562 -10.49559
  Beta  occ. eigenvalues --   -1.27698  -1.08215  -0.91485  -0.81075  -0.77274
  Beta  occ. eigenvalues --   -0.73611  -0.72019  -0.69814  -0.57795  -0.52639
  Beta virt. eigenvalues --   -0.38386  -0.33599  -0.24107  -0.23110  -0.19863
  Beta virt. eigenvalues --   -0.14871  -0.12876  -0.12156  -0.10619  -0.10369
  Beta virt. eigenvalues --   -0.09637  -0.06836  -0.05876  -0.05327  -0.04618

 Mulliken charges and spin densities:
               1          2
     1  C    0.072729   0.003181
     2  C    0.175124   0.154838
     3  C    0.072729   0.003181
     4  C    0.047667   0.418534
     5  C    0.047667   0.418534
     6  H    0.292042   0.000866
     7  H    0.292042   0.000866
 Sum of Mulliken charges =   1.00000   1.00000

 Dipole moment (field-independent basis, Debye):
    X=              0.0000    Y=             -0.0000    Z=              1.0387  Tot=              1.0387
 Quadrupole moment (field-independent basis, Debye-Ang):
   XX=            -26.7238   YY=            -12.4297   ZZ=            -22.3764
   XY=             -0.8326   XZ=              0.0000   YZ=             -0.0000

  Exact polarizability:  27.309  -1.858  57.690   0.000   0.000  40.962
 Approx polarizability:  42.321  -3.938 108.473  -0.000   0.000  90.145

                      1                      2                      3
                      B                      A                      A
 Frequencies --    383.1051               479.9424               629.0606
 Red. masses --      5.0360                 9.0402                 7.1413
 Frc consts  --      0.4355                 1.2269                 1.6650
 IR Inten    --     10.7465                36.2603                 5.6841

                      4                      5                      6
                      B                      B                      A
 Frequencies --    630.2528               724.3268               780.7849
 Red. masses --      7.4503                 1.3058                 1.2139
 Frc consts  --      1.7436                 0.4036                 0.4360
 IR Inten    --     23.3355                96.2048                 1.6772

                      7                      8                      9
                      A                      B                      A
 Frequencies --    823.2176               979.6103              1043.1580
 Red. masses --      4.0455                10.1652                 5.6756
 Frc consts  --      1.6153                 5.7474                 3.6388
 IR Inten    --      1.5105                13.9838                21.0398

                     10                     11                     12
                      B                      A                      A
 Frequencies --   1086.2140              1095.8661              1459.7727
 Red. masses --      1.1914                 1.4640                 7.3319
 Frc consts  --      0.8282                 1.0359                 9.2053
 IR Inten    --      0.8842                 8.0549                 0.0044

                     13                     14                     15
                      B                      A                      B
 Frequencies --   1628.5868              3279.7508              3279.9486
 Red. masses --      6.7771                 1.1113                 1.1167
 Frc consts  --     10.5905                 7.0431                 7.0780
 IR Inten    --      3.7651                27.2732               165.8182

 - Thermochemistry -
 -------------------
 Temperature   298.150 Kelvin.  Pressure   1.00000 Atm.
 Atom     1 has atomic number  6 and mass  12.00000

 Molecular mass:    62.01565 amu.
 Principal axes and moments of inertia in atomic units:
                           1         2         3
     Eigenvalues --    92.15838 239.84577 327.25990
           X           -0.05710  -0.00000   0.99837
           Y            0.99837   0.00000   0.05710
           Z           -0.00000   1.00000  -0.00000
 This molecule is an asymmetric top.
 Rotational symmetry number  2.
 Rotational temperatures (Kelvin)      0.93984     0.36112     0.26466
 Rotational constants (GHZ):          19.58304     7.52459     5.51470
 Zero-point vibrational energy     109479.8 (Joules/Mol)
                                   26.16631 (Kcal/Mol)
 Warning -- explicit consideration of   2 degrees of freedom as
           vibrations may cause significant error
 Vibrational temperatures:    551.20   690.53   905.08   906.79  1042.14
          (Kelvin)           1123.37  1184.43  1409.44  1500.87  1562.82
                             1576.70  2100.28  2343.17  4718.82  4719.11

 Zero-point correction=                           0.041699 (Hartree/Particle)
 Thermal correction to Energy=                    0.045776
 Thermal correction to Enthalpy=                  0.046720
 Thermal correction to Gibbs Free Energy=         0.015670
 Sum of electronic and zero-point Energies=           -191.143475
 Sum of electronic and thermal Energies=              -191.139398
 Sum of electronic and thermal Enthalpies=            -191.138454
 Sum of electronic and thermal Free Energies=         -191.169504

                     E (Thermal)             CV                S
                      KCal/Mol        Cal/Mol-Kelvin    Cal/Mol-Kelvin
 Total                   28.725             14.223             65.351
 Electronic               0.000              0.000              1.377
 Translational            0.889              2.981             38.294
 Rotational               0.889              2.981             22.119
 Vibrational             26.948              8.261              3.561
 Vibration     1          0.752              1.506              1.027
 Vibration     2          0.836              1.295              0.710

 Optimization completed.
    -- Stationary point found.
 Normal termination of Gaussian 09 at Tue Jul 19 07:31:46 2016.
