 Gaussian 09, Revision E.01,
 Gaussian 09:  EM64L-G09RevE.01 30-Nov-2015

 ---------------------------------------------
 #p b3lyp/6-311++G(3df,2p) freq symmetry=Loose
 ---------------------------------------------

 ---------
 b3lyp opt
 ---------
 Symbolic Z-matrix:
 Charge =  1 Multiplicity = 4

                         Standard orientation:
 ---------------------------------------------------------------------
 Center     Atomic      Atomic             Coordinates (Angstroms)
 Number     Number       Type             X           Y           Z
 ---------------------------------------------------------------------
      1          6           0       -0.725031    1.391306   -0.000000
      2          6           0       -1.616614    0.274861   -0.000000
      3          6           0        0.000000    0.253350   -0.000000
      4          6           0        1.052084   -0.552906    0.000000
      5          6           0        1.992179   -1.351236    0.000000
      6          1           0       -2.107855   -0.046125    0.922817
      7          1           0       -2.107855   -0.046125   -0.922817
 ---------------------------------------------------------------------

 SCF Done:  E(UB3LYP) =  -191.094513885     A.U. after   18 cycles

 The electronic state is 4-A".
 Alpha  occ. eigenvalues --  -10.53155 -10.51196 -10.50938 -10.46963 -10.46954
 Alpha  occ. eigenvalues --   -1.17275  -1.05952  -0.93655  -0.85869  -0.72512
 Alpha  occ. eigenvalues --   -0.69184  -0.66890  -0.65334  -0.61506  -0.58193
 Alpha  occ. eigenvalues --   -0.52476  -0.49566
 Alpha virt. eigenvalues --   -0.33027  -0.25979  -0.15656  -0.14412  -0.12804
 Alpha virt. eigenvalues --   -0.12036  -0.11642  -0.09113  -0.07498  -0.06876
 Alpha virt. eigenvalues --   -0.06707  -0.05859  -0.04523  -0.04033  -0.02387

  Beta  occ. eigenvalues --  -10.50256 -10.49953 -10.49579 -10.47025 -10.46685
  Beta  occ. eigenvalues --   -1.14944  -1.03418  -0.90893  -0.83648  -0.70228
  Beta  occ. eigenvalues --   -0.65340  -0.63997  -0.58078  -0.53837
  Beta virt. eigenvalues --   -0.42223  -0.41642  -0.37004  -0.26689  -0.22307
  Beta virt. eigenvalues --   -0.15278  -0.11985  -0.11714  -0.11346  -0.10713
  Beta virt. eigenvalues --   -0.08291  -0.07194  -0.06034  -0.05770  -0.04686

 Mulliken charges and spin densities:
               1          2
     1  C    0.457771   0.830930
     2  C   -0.463446   0.105414
     3  C   -0.023577   0.359264
     4  C    0.184190  -0.064765
     5  C    0.349649   1.656145
     6  H    0.247707   0.056506
     7  H    0.247707   0.056506
 Sum of Mulliken charges =   1.00000   3.00000

 Dipole moment (field-independent basis, Debye):
    X=             -0.6084    Y=             -1.3399    Z=              0.0000  Tot=              1.4716
 Quadrupole moment (field-independent basis, Debye-Ang):
   XX=            -10.1473   YY=            -22.1504   ZZ=            -24.0372
   XY=             -6.1659   XZ=             -0.0000   YZ=              0.0000

  Exact polarizability:  76.542 -23.791  57.880   0.000   0.000  30.044
 Approx polarizability: 143.074 -66.367 118.012   0.000   0.000  43.184

                      1                      2                      3
                     A'                     A"                     A'
 Frequencies --    185.9749               207.6386               413.0501
 Red. masses --      6.6934                 6.0807                 6.8792
 Frc consts  --      0.1364                 0.1545                 0.6915
 IR Inten    --      3.7045                 0.7502                 6.0931

                      4                      5                      6
                     A"                     A'                     A"
 Frequencies --    475.1529               541.6307               810.4952
 Red. masses --      7.3293                11.2635                 1.2330
 Frc consts  --      0.9749                 1.9468                 0.4772
 IR Inten    --      0.9444                20.0268                 0.0544

                      7                      8                      9
                     A"                     A'                     A'
 Frequencies --    819.9360               915.9337              1013.5101
 Red. masses --      1.2341                 9.1957                 1.3359
 Frc consts  --      0.4888                 4.5453                 0.8085
 IR Inten    --      1.8468                33.9340                38.7892

                     10                     11                     12
                     A'                     A'                     A'
 Frequencies --   1144.7706              1371.4607              1629.5378
 Red. masses --      5.5984                 1.1096                11.6504
 Frc consts  --      4.3226                 1.2296                18.2272
 IR Inten    --     40.2120                46.1865                37.1231

                     13                     14                     15
                     A'                     A'                     A"
 Frequencies --   2024.7439              3007.1627              3087.5329
 Red. masses --     11.8148                 1.0474                 1.1106
 Frc consts  --     28.5376                 5.5804                 6.2376
 IR Inten    --    107.6118               113.5458                36.6312

 - Thermochemistry -
 -------------------
 Temperature   298.150 Kelvin.  Pressure   1.00000 Atm.
 Atom     1 has atomic number  6 and mass  12.00000

 Molecular mass:    62.01565 amu.
 Principal axes and moments of inertia in atomic units:
                           1         2         3
     Eigenvalues --    61.89026 513.66560 563.29634
           X            0.85108   0.52503   0.00000
           Y           -0.52503   0.85108   0.00000
           Z            0.00000  -0.00000   1.00000
 This molecule is an asymmetric top.
 Rotational symmetry number  1.
 Rotational temperatures (Kelvin)      1.39947     0.16862     0.15376
 Rotational constants (GHZ):          29.16034     3.51346     3.20389
 Zero-point vibrational energy     105561.7 (Joules/Mol)
                                   25.22984 (Kcal/Mol)
 Warning -- explicit consideration of   5 degrees of freedom as
           vibrations may cause significant error
 Vibrational temperatures:    267.58   298.75   594.29   683.64   779.28
          (Kelvin)           1166.12  1179.70  1317.82  1458.21  1647.07
                             1973.22  2344.54  2913.15  4326.63  4442.27

 Zero-point correction=                           0.040206 (Hartree/Particle)
 Thermal correction to Energy=                    0.045173
 Thermal correction to Enthalpy=                  0.046117
 Thermal correction to Gibbs Free Energy=         0.011589
 Sum of electronic and zero-point Energies=           -191.054308
 Sum of electronic and thermal Energies=              -191.049341
 Sum of electronic and thermal Enthalpies=            -191.048397
 Sum of electronic and thermal Free Energies=         -191.082924

                     E (Thermal)             CV                S
                      KCal/Mol        Cal/Mol-Kelvin    Cal/Mol-Kelvin
 Total                   28.346             16.067             72.669
 Electronic               0.000              0.000              2.755
 Translational            0.889              2.981             38.294
 Rotational               0.889              2.981             24.397
 Vibrational             26.569             10.105              7.223
 Vibration     1          0.632              1.859              2.268
 Vibration     2          0.641              1.829              2.064
 Vibration     3          0.777              1.442              0.916
 Vibration     4          0.832              1.305              0.723
 Vibration     5          0.897              1.158              0.562

 Optimization completed.
    -- Stationary point found.
 Normal termination of Gaussian 09 at Tue Jul 19 12:18:50 2016.
