 Gaussian 09, Revision E.01,
 Gaussian 09:  EM64L-G09RevE.01 30-Nov-2015

 ---------------------------------------------
 #p b3lyp/6-311++G(3df,2p) freq symmetry=Loose
 ---------------------------------------------

 ---------
 b3lyp opt
 ---------
 Symbolic Z-matrix:
 Charge =  1 Multiplicity = 2

                         Standard orientation:
 ---------------------------------------------------------------------
 Center     Atomic      Atomic             Coordinates (Angstroms)
 Number     Number       Type             X           Y           Z
 ---------------------------------------------------------------------
      1          6           0       -1.190388    0.000000   -0.000085
      2          6           0        0.182216    0.000000    0.000013
      3          6           0        1.381974   -0.673314    0.000139
      4          6           0        1.381974    0.673314    0.000059
      5          6           0       -2.396191    0.000000   -0.000171
      6          1           0        1.921248    1.608989    0.000041
      7          1           0        1.921248   -1.608989    0.000233
 ---------------------------------------------------------------------

 SCF Done:  E(UB3LYP) =  -191.219613213     A.U. after   14 cycles

 The electronic state is 2-A.
 Alpha  occ. eigenvalues --  -10.51212 -10.49167 -10.49092 -10.48058 -10.42013
 Alpha  occ. eigenvalues --   -1.20831  -1.01771  -0.89899  -0.84568  -0.80355
 Alpha  occ. eigenvalues --   -0.66326  -0.64880  -0.64510  -0.61483  -0.53892
 Alpha  occ. eigenvalues --   -0.52156
 Alpha virt. eigenvalues --   -0.31730  -0.27863  -0.20996  -0.14617  -0.13667
 Alpha virt. eigenvalues --   -0.13215  -0.12339  -0.10682  -0.09327  -0.07995
 Alpha virt. eigenvalues --   -0.07281  -0.05147  -0.04522  -0.03867  -0.03729

  Beta  occ. eigenvalues --  -10.51177 -10.49209 -10.49135 -10.45669 -10.41963
  Beta  occ. eigenvalues --   -1.20929  -1.00620  -0.88491  -0.84660  -0.80337
  Beta  occ. eigenvalues --   -0.66567  -0.64617  -0.64616  -0.52586  -0.50548
  Beta virt. eigenvalues --   -0.39499  -0.30166  -0.28076  -0.18801  -0.14586
  Beta virt. eigenvalues --   -0.13648  -0.13217  -0.11297  -0.10656  -0.09060
  Beta virt. eigenvalues --   -0.07784  -0.06440  -0.05108  -0.03915  -0.03758

 Mulliken charges and spin densities:
               1          2
     1  C    0.120432  -0.253665
     2  C   -0.363434  -0.020172
     3  C    0.142281  -0.035808
     4  C    0.142281  -0.035808
     5  C    0.318560   1.347070
     6  H    0.319940  -0.000808
     7  H    0.319940  -0.000808
 Sum of Mulliken charges =   1.00000   1.00000

 Dipole moment (field-independent basis, Debye):
    X=              2.5444    Y=              0.0000    Z=              0.0002  Tot=              2.5444
 Quadrupole moment (field-independent basis, Debye-Ang):
   XX=             -7.5708   YY=            -20.0717   ZZ=            -25.6945
   XY=              0.0000   XZ=              0.0013   YZ=             -0.0003

  Exact polarizability:  73.590   0.000  40.789   0.003  -0.001  27.417
 Approx polarizability: 134.649   0.000  57.439   0.007  -0.001  38.880

                      1                      2                      3
                      A                      A                      A
 Frequencies --    137.1019               201.2876               440.3085
 Red. masses --      6.9540                 8.0226                 4.7363
 Frc consts  --      0.0770                 0.1915                 0.5410
 IR Inten    --      0.0463                 6.7004                 5.9564

                      4                      5                      6
                      A                      A                      A
 Frequencies --    514.9739               743.3621               865.2368
 Red. masses --      3.6998                 4.0987                 1.4647
 Frc consts  --      0.5781                 1.3344                 0.6460
 IR Inten    --      4.5913                 7.0541                38.6175

                      7                      8                      9
                      A                      A                      A
 Frequencies --    982.4377               995.7927              1019.9300
 Red. masses --      1.2452                 1.4334                 1.4319
 Frc consts  --      0.7081                 0.8375                 0.8776
 IR Inten    --      6.8041                 0.0000                 3.3181

                     10                     11                     12
                      A                      A                      A
 Frequencies --   1233.4540              1390.6886              1748.4016
 Red. masses --      6.1244                 7.5044                 6.6789
 Frc consts  --      5.4899                 8.5512                12.0293
 IR Inten    --     48.6563               157.8698                40.6595

                     13                     14                     15
                      A                      A                      A
 Frequencies --   2235.7697              3233.7139              3267.5269
 Red. masses --     11.8669                 1.0971                 1.1443
 Frc consts  --     34.9497                 6.7591                 7.1980
 IR Inten    --    218.9214                81.0908                58.6681

 - Thermochemistry -
 -------------------
 Temperature   298.150 Kelvin.  Pressure   1.00000 Atm.
 Atom     1 has atomic number  6 and mass  12.00000

 Molecular mass:    62.01565 amu.
 Principal axes and moments of inertia in atomic units:
                           1         2         3
     Eigenvalues --    57.48935 497.61246 555.10181
           X            1.00000   0.00000  -0.00007
           Y            0.00000   1.00000   0.00006
           Z            0.00007  -0.00006   1.00000
 This molecule is an asymmetric top.
 Rotational symmetry number  1.
 Rotational temperatures (Kelvin)      1.50661     0.17406     0.15603
 Rotational constants (GHZ):          31.39262     3.62680     3.25119
 Zero-point vibrational energy     113705.0 (Joules/Mol)
                                   27.17614 (Kcal/Mol)
 Warning -- explicit consideration of   4 degrees of freedom as
           vibrations may cause significant error
 Vibrational temperatures:    197.26   289.61   633.50   740.93  1069.53
          (Kelvin)           1244.88  1413.51  1432.72  1467.45  1774.66
                             2000.89  2515.56  3216.77  4652.59  4701.24

 Zero-point correction=                           0.043308 (Hartree/Particle)
 Thermal correction to Energy=                    0.048144
 Thermal correction to Enthalpy=                  0.049088
 Thermal correction to Gibbs Free Energy=         0.015296
 Sum of electronic and zero-point Energies=           -191.176305
 Sum of electronic and thermal Energies=              -191.171469
 Sum of electronic and thermal Enthalpies=            -191.170525
 Sum of electronic and thermal Free Energies=         -191.204317

                     E (Thermal)             CV                S
                      KCal/Mol        Cal/Mol-Kelvin    Cal/Mol-Kelvin
 Total                   30.211             15.076             71.121
 Electronic               0.000              0.000              1.377
 Translational            0.889              2.981             38.294
 Rotational               0.889              2.981             24.277
 Vibrational             28.433              9.115              7.173
 Vibration     1          0.614              1.916              2.844
 Vibration     2          0.638              1.838              2.121
 Vibration     3          0.800              1.382              0.826
 Vibration     4          0.870              1.217              0.622

 Optimization completed.
    -- Stationary point found.
 Normal termination of Gaussian 09 at Tue Jul 19 08:29:23 2016.
