 Gaussian 09, Revision E.01,
 Gaussian 09:  EM64L-G09RevE.01 30-Nov-2015

 ---------------------------------------------
 #p b3lyp/6-311++G(3df,2p) freq symmetry=Loose
 ---------------------------------------------

 ---------
 b3lyp opt
 ---------
 Symbolic Z-matrix:
 Charge =  1 Multiplicity = 2

                         Standard orientation:
 ---------------------------------------------------------------------
 Center     Atomic      Atomic             Coordinates (Angstroms)
 Number     Number       Type             X           Y           Z
 ---------------------------------------------------------------------
      1          6           0       -0.106370    0.851902   -0.000000
      2          6           0       -0.264536   -0.408113    0.799677
      3          6           0       -0.264536   -1.499301    0.000000
      4          6           0       -0.264536   -0.408113   -0.799677
      5          6           0        1.113020    1.632183   -0.000000
      6          1           0       -0.329323   -2.575192    0.000000
      7          1           0       -0.948935    1.563840   -0.000000
 ---------------------------------------------------------------------

 SCF Done:  E(UB3LYP) =  -191.107383853     A.U. after   18 cycles

 The electronic state is 2-A".
 Alpha  occ. eigenvalues --  -10.54110 -10.54096 -10.52246 -10.51421 -10.51321
 Alpha  occ. eigenvalues --   -1.26679  -1.05441  -0.90401  -0.83103  -0.80099
 Alpha  occ. eigenvalues --   -0.75157  -0.70155  -0.64780  -0.56687  -0.54989
 Alpha  occ. eigenvalues --   -0.48526
 Alpha virt. eigenvalues --   -0.36357  -0.34306  -0.28739  -0.27886  -0.16135
 Alpha virt. eigenvalues --   -0.13880  -0.12576  -0.10996  -0.10693  -0.08241
 Alpha virt. eigenvalues --   -0.07836  -0.06368  -0.05817  -0.05423  -0.03191

  Beta  occ. eigenvalues --  -10.53857 -10.53841 -10.51483 -10.51241 -10.51016
  Beta  occ. eigenvalues --   -1.26489  -1.04291  -0.88709  -0.82326  -0.79492
  Beta  occ. eigenvalues --   -0.75084  -0.68978  -0.63985  -0.55569  -0.53296
  Beta virt. eigenvalues --   -0.36378  -0.35008  -0.32630  -0.27494  -0.25907
  Beta virt. eigenvalues --   -0.16114  -0.13869  -0.12030  -0.10880  -0.10574
  Beta virt. eigenvalues --   -0.07858  -0.07710  -0.06283  -0.05690  -0.04946

 Mulliken charges and spin densities:
               1          2
     1  C    0.429543   0.009602
     2  C    0.100052   0.109437
     3  C    0.071494   0.026785
     4  C    0.100052   0.109437
     5  C   -0.282753   0.746088
     6  H    0.322491  -0.000445
     7  H    0.259121  -0.000905
 Sum of Mulliken charges =   1.00000   1.00000

 Dipole moment (field-independent basis, Debye):
    X=             -1.6576    Y=             -1.6136    Z=              0.0000  Tot=              2.3133
 Quadrupole moment (field-independent basis, Debye-Ang):
   XX=            -25.4435   YY=            -13.4214   ZZ=            -27.5571
   XY=             -1.3807   XZ=             -0.0000   YZ=             -0.0000

  Exact polarizability:  38.467  10.785  60.083   0.000   0.000  41.780
 Approx polarizability:  63.575  17.982  98.181  -0.000   0.000  92.449

                      1                      2                      3
                     A'                     A"                     A"
 Frequencies --    172.5645               372.7535               497.3487
 Red. masses --      6.2785                 9.1958                 6.1775
 Frc consts  --      0.1102                 0.7528                 0.9003
 IR Inten    --     14.0446                 0.0863                72.2654

                      4                      5                      6
                     A'                     A'                     A'
 Frequencies --    536.5253               707.3195               834.8564
 Red. masses --      5.4775                 7.1725                 1.2198
 Frc consts  --      0.9290                 2.1142                 0.5009
 IR Inten    --     20.9823                 5.3692                21.0210

                      7                      8                      9
                     A'                     A"                     A"
 Frequencies --    910.4494               986.2970              1047.0760
 Red. masses --      4.1913                 1.1875                 1.2720
 Frc consts  --      2.0470                 0.6806                 0.8217
 IR Inten    --     22.8130                 8.1886                 5.0738

                     10                     11                     12
                     A'                     A"                     A'
 Frequencies --   1067.4957              1136.8810              1249.3695
 Red. masses --      2.5800                 6.9474                 2.3653
 Frc consts  --      1.7322                 5.2906                 2.1753
 IR Inten    --     10.8378                 6.2410                 7.6692

                     13                     14                     15
                     A'                     A'                     A'
 Frequencies --   1614.7348              2982.4025              3279.0382
 Red. masses --      6.6646                 1.0814                 1.1221
 Frc consts  --     10.2383                 5.6671                 7.1084
 IR Inten    --     24.6653                85.9528               108.9861

 - Thermochemistry -
 -------------------
 Temperature   298.150 Kelvin.  Pressure   1.00000 Atm.
 Atom     1 has atomic number  6 and mass  12.00000

 Molecular mass:    62.01565 amu.
 Principal axes and moments of inertia in atomic units:
                           1         2         3
     Eigenvalues --    83.98633 354.58159 380.20983
           X            0.35307   0.00000   0.93560
           Y            0.93560  -0.00000  -0.35307
           Z            0.00000   1.00000  -0.00000
 This molecule is an asymmetric top.
 Rotational symmetry number  1.
 Rotational temperatures (Kelvin)      1.03128     0.24427     0.22781
 Rotational constants (GHZ):          21.48851     5.08978     4.74670
 Zero-point vibrational energy     104045.9 (Joules/Mol)
                                   24.86756 (Kcal/Mol)
 Warning -- explicit consideration of   4 degrees of freedom as
           vibrations may cause significant error
 Vibrational temperatures:    248.28   536.31   715.57   771.94  1017.67
          (Kelvin)           1201.17  1309.93  1419.06  1506.51  1535.89
                             1635.72  1797.56  2323.24  4291.01  4717.80

 Zero-point correction=                           0.039629 (Hartree/Particle)
 Thermal correction to Energy=                    0.044195
 Thermal correction to Enthalpy=                  0.045139
 Thermal correction to Gibbs Free Energy=         0.012222
 Sum of electronic and zero-point Energies=           -191.067755
 Sum of electronic and thermal Energies=              -191.063189
 Sum of electronic and thermal Enthalpies=            -191.062245
 Sum of electronic and thermal Free Energies=         -191.095162

                     E (Thermal)             CV                S
                      KCal/Mol        Cal/Mol-Kelvin    Cal/Mol-Kelvin
 Total                   27.733             15.192             69.280
 Electronic               0.000              0.000              1.377
 Translational            0.889              2.981             38.294
 Rotational               0.889              2.981             23.941
 Vibrational             25.955              9.230              5.668
 Vibration     1          0.626              1.876              2.407
 Vibration     2          0.744              1.528              1.068
 Vibration     3          0.853              1.256              0.665
 Vibration     4          0.892              1.169              0.573

 Normal termination of Gaussian 09 at Tue Jul 19 06:35:49 2016.
