 Gaussian 09, Revision E.01,
 Gaussian 09:  EM64L-G09RevE.01 30-Nov-2015

 ---------------------------------------------
 #p b3lyp/6-311++G(3df,2p) freq symmetry=Loose
 ---------------------------------------------

 ---------
 b3lyp opt
 ---------
 Symbolic Z-matrix:
 Charge =  1 Multiplicity = 2

                         Standard orientation:
 ---------------------------------------------------------------------
 Center     Atomic      Atomic             Coordinates (Angstroms)
 Number     Number       Type             X           Y           Z
 ---------------------------------------------------------------------
      1          6           0       -0.000000    0.535763    0.000000
      2          6           0        0.000045   -0.695053    0.766616
      3          6           0        0.000000   -1.792483   -0.000000
      4          6           0        0.000045   -0.695053   -0.766616
      5          6           0       -0.000000    1.848102    0.000000
      6          1           0       -0.000055    2.396172   -0.933680
      7          1           0       -0.000055    2.396172    0.933680
 ---------------------------------------------------------------------

 SCF Done:  E(UB3LYP) =  -191.179202799     A.U. after   15 cycles

 The electronic state is 2-A'.
 Alpha  occ. eigenvalues --  -10.55787 -10.55764 -10.53713 -10.50799 -10.44411
 Alpha  occ. eigenvalues --   -1.29093  -1.04719  -0.93673  -0.83792  -0.73904
 Alpha  occ. eigenvalues --   -0.72583  -0.71452  -0.64795  -0.63751  -0.56107
 Alpha  occ. eigenvalues --   -0.53635
 Alpha virt. eigenvalues --   -0.34412  -0.32028  -0.29636  -0.15507  -0.14917
 Alpha virt. eigenvalues --   -0.11917  -0.11307  -0.10541  -0.09932  -0.08862
 Alpha virt. eigenvalues --   -0.08137  -0.05167  -0.05071  -0.04378  -0.04105

  Beta  occ. eigenvalues --  -10.55405 -10.55383 -10.51993 -10.50625 -10.44507
  Beta  occ. eigenvalues --   -1.28710  -1.04424  -0.92758  -0.82269  -0.73518
  Beta  occ. eigenvalues --   -0.72186  -0.70729  -0.63515  -0.59152  -0.53167
  Beta virt. eigenvalues --   -0.42459  -0.33815  -0.30621  -0.27427  -0.14828
  Beta virt. eigenvalues --   -0.14070  -0.11708  -0.11083  -0.10542  -0.09872
  Beta virt. eigenvalues --   -0.08637  -0.07926  -0.04955  -0.04887  -0.04352

 Mulliken charges and spin densities:
               1          2
     1  C    0.352238  -0.042019
     2  C    0.725820   0.170232
     3  C   -0.468211   0.751375
     4  C    0.725820   0.170232
     5  C   -0.838404  -0.051508
     6  H    0.251368   0.000844
     7  H    0.251368   0.000844
 Sum of Mulliken charges =   1.00000   1.00000

 Dipole moment (field-independent basis, Debye):
    X=              0.0001    Y=              0.9890    Z=              0.0000  Tot=              0.9890
 Quadrupole moment (field-independent basis, Debye-Ang):
   XX=            -26.0575   YY=            -11.7661   ZZ=            -23.3755
   XY=             -0.0004   XZ=              0.0000   YZ=             -0.0000

  Exact polarizability:  26.669   0.000  73.002   0.000   0.000  38.426
 Approx polarizability:  39.886   0.002 140.341  -0.000   0.000  78.801

                      1                      2                      3
                     A'                     A"                     A'
 Frequencies --    250.9012               359.6505               542.9009
 Red. masses --      5.9876                 2.8189                10.6181
 Frc consts  --      0.2221                 0.2148                 1.8439
 IR Inten    --      2.1339                 1.6929                12.6568

                      4                      5                      6
                     A"                     A"                     A'
 Frequencies --    586.9032               715.7524               735.8010
 Red. masses --      7.9575                 1.1216                 7.5539
 Frc consts  --      1.6150                 0.3386                 2.4096
 IR Inten    --     20.1513                 0.0000                28.3672

                      7                      8                      9
                     A"                     A'                     A'
 Frequencies --   1008.0508              1011.6225              1012.0854
 Red. masses --      1.6504                 1.3119                 7.0158
 Frc consts  --      0.9881                 0.7910                 4.2341
 IR Inten    --      0.4395                32.2439                 0.0074

                     10                     11                     12
                     A"                     A'                     A'
 Frequencies --   1135.4475              1427.8967              1680.9597
 Red. masses --      8.3150                 1.1451                11.9757
 Frc consts  --      6.3160                 1.3755                19.9373
 IR Inten    --      6.0135                20.8058                15.3602

                     13                     14                     15
                     A'                     A'                     A"
 Frequencies --   1771.6041              3146.3564              3244.2975
 Red. masses --      8.8823                 1.0594                 1.1197
 Frc consts  --     16.4251                 6.1790                 6.9436
 IR Inten    --      0.6649                54.1365                34.3138

 - Thermochemistry -
 -------------------
 Temperature   298.150 Kelvin.  Pressure   1.00000 Atm.
 Atom     1 has atomic number  6 and mass  12.00000

 Molecular mass:    62.01565 amu.
 Principal axes and moments of inertia in atomic units:
                           1         2         3
     Eigenvalues --    56.64415 377.77994 434.42410
           X           -0.00001   0.00000   1.00000
           Y            1.00000   0.00000   0.00001
           Z            0.00000   1.00000   0.00000
 This molecule is an asymmetric top.
 Rotational symmetry number  1.
 Rotational temperatures (Kelvin)      1.52909     0.22927     0.19938
 Rotational constants (GHZ):          31.86103     4.77723     4.15433
 Zero-point vibrational energy     111433.5 (Joules/Mol)
                                   26.63325 (Kcal/Mol)
 Warning -- explicit consideration of   4 degrees of freedom as
           vibrations may cause significant error
 Vibrational temperatures:    360.99   517.46   781.11   844.42  1029.81
          (Kelvin)           1058.65  1450.36  1455.50  1456.16  1633.65
                             2054.42  2418.52  2548.94  4526.90  4667.81

 Zero-point correction=                           0.042443 (Hartree/Particle)
 Thermal correction to Energy=                    0.046817
 Thermal correction to Enthalpy=                  0.047761
 Thermal correction to Gibbs Free Energy=         0.015357
 Sum of electronic and zero-point Energies=           -191.136760
 Sum of electronic and thermal Energies=              -191.132386
 Sum of electronic and thermal Enthalpies=            -191.131442
 Sum of electronic and thermal Free Energies=         -191.163845

                     E (Thermal)             CV                S
                      KCal/Mol        Cal/Mol-Kelvin    Cal/Mol-Kelvin
 Total                   29.378             14.567             68.199
 Electronic               0.000              0.000              1.377
 Translational            0.889              2.981             38.294
 Rotational               0.889              2.981             23.745
 Vibrational             27.600              8.605              4.782
 Vibration     1          0.663              1.761              1.724
 Vibration     2          0.734              1.555              1.124
 Vibration     3          0.898              1.155              0.559
 Vibration     4          0.944              1.060              0.473

 Optimization completed.
    -- Stationary point found.
 Normal termination of Gaussian 09 at Tue Jul 19 05:33:54 2016.
