 Gaussian 09, Revision E.01,
 Gaussian 09:  EM64L-G09RevE.01 30-Nov-2015

 ---------------------------------------------
 #p b3lyp/6-311++G(3df,2p) freq symmetry=Loose
 ---------------------------------------------

 ---------
 b3lyp opt
 ---------
 Symbolic Z-matrix:
 Charge =  1 Multiplicity = 4

                         Standard orientation:
 ---------------------------------------------------------------------
 Center     Atomic      Atomic             Coordinates (Angstroms)
 Number     Number       Type             X           Y           Z
 ---------------------------------------------------------------------
      1          6           0       -0.000000   -0.000000    2.558272
      2          6           0        0.000000    0.000000    1.289319
      3          6           0        0.000000    0.000000    0.000000
      4          6           0        0.000000    0.000000   -1.289322
      5          6           0       -0.000000   -0.000000   -2.558271
      6          1           0       -0.000000   -0.000000    3.629155
      7          1           0       -0.000000   -0.000000   -3.629141
 ---------------------------------------------------------------------

 SCF Done:  E(UB3LYP) =  -191.203223564     A.U. after   13 cycles

 Unable to determine electronic state:  an orbital has unidentified symmetry.
 Alpha  occ. eigenvalues --  -10.47940 -10.47937 -10.47251 -10.47249 -10.45278
 Alpha  occ. eigenvalues --   -1.08188  -1.04216  -0.97134  -0.87312  -0.77120
 Alpha  occ. eigenvalues --   -0.76194  -0.64259  -0.62874  -0.57970  -0.56047
 Alpha  occ. eigenvalues --   -0.45883  -0.44997
 Alpha virt. eigenvalues --   -0.25617  -0.24001  -0.14537  -0.12510  -0.12384
 Alpha virt. eigenvalues --   -0.10215  -0.09884  -0.09480  -0.07907  -0.07354
 Alpha virt. eigenvalues --   -0.05978  -0.05768  -0.05757  -0.02152  -0.01661

  Beta  occ. eigenvalues --  -10.47986 -10.47983 -10.45517 -10.45514 -10.44020
  Beta  occ. eigenvalues --   -1.05153  -1.00705  -0.92549  -0.85115  -0.75426
  Beta  occ. eigenvalues --   -0.74761  -0.59984  -0.57885  -0.52802
  Beta virt. eigenvalues --   -0.45970  -0.33660  -0.32527  -0.20764  -0.19367
  Beta virt. eigenvalues --   -0.14257  -0.11904  -0.11376  -0.09299  -0.09163
  Beta virt. eigenvalues --   -0.09038  -0.04990  -0.04959  -0.04952  -0.04786

 Mulliken charges and spin densities:
               1          2
     1  C    0.395644   0.959508
     2  C    0.106234   0.082925
     3  C   -0.774920   0.976664
     4  C    0.106223   0.082924
     5  C    0.395652   0.959490
     6  H    0.385582  -0.030757
     7  H    0.385586  -0.030754
 Sum of Mulliken charges =   1.00000   3.00000

 Dipole moment (field-independent basis, Debye):
    X=             -0.0000    Y=             -0.0000    Z=              0.0000  Tot=              0.0000
 Quadrupole moment (field-independent basis, Debye-Ang):
   XX=            -25.8115   YY=            -27.5217   ZZ=             13.7770
   XY=              0.0000   XZ=              0.0000   YZ=              0.0000

  Exact polarizability:  27.717   0.000  28.617  -0.000   0.000 141.968
 Approx polarizability:  38.468   0.000  38.577  -0.000  -0.000 324.864

                      1                      2                      3
                     ?A                     ?A                     ?B
 Frequencies --    112.1267               132.5447               386.9933
 Red. masses --      5.1656                 4.9388                11.2512
 Frc consts  --      0.0383                 0.0511                 0.9928
 IR Inten    --     10.5080                10.7340                 0.0000

                      4                      5                      6
                     ?B                     ?A                     ?A
 Frequencies --    405.0696               417.9595               447.0055
 Red. masses --      1.4927                 1.2040                 1.3337
 Frc consts  --      0.1443                 0.1239                 0.1570
 IR Inten    --      0.0007                43.0027                82.1508

                      7                      8                      9
                     ?B                     ?B                     ?A
 Frequencies --    449.6381               464.3031               500.7940
 Red. masses --      1.1381                 3.3591                 5.6454
 Frc consts  --      0.1356                 0.4266                 0.8342
 IR Inten    --      0.0397                 0.0000                 5.5322

                     10                     11                     12
                     ?A                     SG                     SG
 Frequencies --    536.0944               779.9491              1371.0120
 Red. masses --      9.5082                 7.1426                 6.9415
 Frc consts  --      1.6100                 2.5600                 7.6875
 IR Inten    --     13.2269                 0.0000               165.0503

                     13                     14                     15
                     SG                     SG                     SG
 Frequencies --   1871.1188              1888.8825              3350.7353
 Red. masses --      7.6111                11.5658                 1.1125
 Frc consts  --     15.7001                24.3128                 7.3595
 IR Inten    --      0.0000               338.4002               561.1913

                     16
                     SG
 Frequencies --   3363.6939
 Red. masses --      1.1267
 Frc consts  --      7.5112
 IR Inten    --      0.0117

 - Thermochemistry -
 -------------------
 Temperature   298.150 Kelvin.  Pressure   1.00000 Atm.
 Atom     1 has atomic number  6 and mass  12.00000

 Molecular mass:    62.01565 amu.
 Principal axes and moments of inertia in atomic units:
                           1         2         3
     Eigenvalues --     0.00000 798.19715 798.19715
           X           -0.00000   0.03346   0.99944
           Y           -0.00000   0.99944  -0.03346
           Z            1.00000   0.00000   0.00000
 This molecule is a prolate symmetric top.
 Rotational symmetry number  1.
 Warning -- assumption of classical behavior for rotation
           may cause significant error
 Rotational temperature (Kelvin)      0.10851
 Rotational constant (GHZ):           2.261022
 Zero-point vibrational energy      98559.9 (Joules/Mol)
                                   23.55637 (Kcal/Mol)
 Warning -- explicit consideration of  10 degrees of freedom as
           vibrations may cause significant error
 Vibrational temperatures:    161.33   190.70   556.80   582.80   601.35
          (Kelvin)            643.14   646.93   668.03   720.53   771.32
                             1122.17  1972.58  2692.12  2717.68  4820.95
                             4839.60

 Zero-point correction=                           0.037539 (Hartree/Particle)
 Thermal correction to Energy=                    0.043504
 Thermal correction to Enthalpy=                  0.044448
 Thermal correction to Gibbs Free Energy=         0.010428
 Sum of electronic and zero-point Energies=           -191.165684
 Sum of electronic and thermal Energies=              -191.159719
 Sum of electronic and thermal Enthalpies=            -191.158775
 Sum of electronic and thermal Free Energies=         -191.192795

                     E (Thermal)             CV                S
                      KCal/Mol        Cal/Mol-Kelvin    Cal/Mol-Kelvin
 Total                   27.299             20.532             71.602
 Electronic               0.000              0.000              2.755
 Translational            0.889              2.981             38.294
 Rotational               0.592              1.987             17.723
 Vibrational             25.818             15.564             12.830
 Vibration     1          0.607              1.939              3.232
 Vibration     2          0.613              1.921              2.909
 Vibration     3          0.755              1.498              1.012
 Vibration     4          0.770              1.459              0.944
 Vibration     5          0.781              1.431              0.899
 Vibration     6          0.806              1.368              0.805
 Vibration     7          0.809              1.362              0.797
 Vibration     8          0.822              1.329              0.754
 Vibration     9          0.856              1.248              0.656
 Vibration    10          0.891              1.170              0.574

 Optimization completed.
    -- Stationary point found.
 Normal termination of Gaussian 09 at Tue Jul 19 10:02:01 2016.
