 Gaussian 09, Revision E.01,
 Gaussian 09:  EM64L-G09RevE.01 30-Nov-2015

 ---------------------------------------------
 #p b3lyp/6-311++G(3df,2p) freq symmetry=Loose
 ---------------------------------------------

 ---------
 b3lyp opt
 ---------
 Symbolic Z-matrix:
 Charge =  3 Multiplicity = 2

                         Standard orientation:
 ---------------------------------------------------------------------
 Center     Atomic      Atomic             Coordinates (Angstroms)
 Number     Number       Type             X           Y           Z
 ---------------------------------------------------------------------
      1          6           0       -0.000000    0.000000    0.698779
      2          6           0        0.000000   -0.785205   -0.540111
      3          6           0        0.000000   -0.000000   -1.682769
      4          6           0        0.000000    0.785205   -0.540111
      5          6           0       -0.000000    0.000000    2.009411
      6          1           0       -0.000000    0.000000    3.139028
      7          1           0        0.000000   -0.000000   -2.810219
 ---------------------------------------------------------------------

 SCF Done:  E(UB3LYP) =  -189.731938307     A.U. after   19 cycles

 The electronic state is 2-A1.
 Alpha  occ. eigenvalues --  -11.14072 -11.14052 -11.08373 -11.04305 -11.04203
 Alpha  occ. eigenvalues --   -1.79867  -1.56733  -1.44847  -1.36356  -1.26060
 Alpha  occ. eigenvalues --   -1.22901  -1.21673  -1.20957  -1.13006  -1.04376
 Alpha virt. eigenvalues --   -0.92282  -0.86800  -0.81768  -0.78523  -0.65935
 Alpha virt. eigenvalues --   -0.61446  -0.52986  -0.52115  -0.50612  -0.47606
 Alpha virt. eigenvalues --   -0.46013  -0.45601  -0.43857  -0.40856  -0.39964

  Beta  occ. eigenvalues --  -11.12777 -11.12766 -11.08329 -11.04427 -11.04375
  Beta  occ. eigenvalues --   -1.78880  -1.56820  -1.44551  -1.31857  -1.25852
  Beta  occ. eigenvalues --   -1.22280  -1.21269  -1.20241  -1.04315
  Beta virt. eigenvalues --   -0.97126  -0.90707  -0.83998  -0.81842  -0.73289
  Beta virt. eigenvalues --   -0.65269  -0.60947  -0.52687  -0.51715  -0.50368
  Beta virt. eigenvalues --   -0.46717  -0.45083  -0.45001  -0.43784  -0.40241

 Mulliken charges and spin densities:
               1          2
     1  C   -0.199769   0.127180
     2  C    1.450099   0.237761
     3  C   -0.570120   0.066709
     4  C    1.450099   0.237761
     5  C   -0.100048   0.301930
     6  H    0.515811   0.001944
     7  H    0.453927   0.026714
 Sum of Mulliken charges =   3.00000   1.00000

 Dipole moment (field-independent basis, Debye):
    X=              0.0000    Y=             -0.0000    Z=              1.6904  Tot=              1.6904
 Quadrupole moment (field-independent basis, Debye-Ang):
   XX=            -21.9242   YY=            -14.7291   ZZ=             30.7620
   XY=              0.0000   XZ=             -0.0000   YZ=              0.0000

  Exact polarizability:  20.536   0.000  27.981   0.000   0.000  63.414
 Approx polarizability:  29.723   0.000  66.475   0.000  -0.000 125.086

                      1                      2                      3
                     B1                     B2                     B1
 Frequencies --    235.2609               291.8929               462.9474
 Red. masses --      4.9362                 3.0530                 4.2406
 Frc consts  --      0.1610                 0.1533                 0.5355
 IR Inten    --     18.9041                23.3393                 5.3568

                      4                      5                      6
                     B2                     B1                     B1
 Frequencies --    542.3014               623.4752               715.1125
 Red. masses --      5.0618                 1.3410                 1.2598
 Frc consts  --      0.8771                 0.3071                 0.3796
 IR Inten    --      0.6756               134.5973                 8.5327

                      7                      8                      9
                     B2                     A1                     B2
 Frequencies --    765.4614               775.3814               958.4029
 Red. masses --      4.6030                 7.1531                 1.5575
 Frc consts  --      1.5890                 2.5338                 0.8429
 IR Inten    --     27.6505                 0.9053                 0.0001

                     10                     11                     12
                     B2                     A1                     A1
 Frequencies --    976.3182              1019.4400              1439.2817
 Red. masses --      1.4421                10.1054                 6.5670
 Frc consts  --      0.8099                 6.1877                 8.0151
 IR Inten    --     36.5685                30.6729               165.0588

                     13                     14                     15
                     A1                     A1                     A1
 Frequencies --   1756.9011              2782.3424              2815.8369
 Red. masses --      6.6391                 1.1332                 1.1572
 Frc consts  --     12.0742                 5.1686                 5.4061
 IR Inten    --    285.7641              1030.1021               430.3785

 - Thermochemistry -
 -------------------
 Temperature   298.150 Kelvin.  Pressure   1.00000 Atm.
 Atom     1 has atomic number  6 and mass  12.00000

 Molecular mass:    62.01565 amu.
 Principal axes and moments of inertia in atomic units:
                           1         2         3
     Eigenvalues --    52.84156 404.18061 457.02217
           X           -0.00000  -0.00000   1.00000
           Y            0.00000   1.00000   0.00000
           Z            1.00000  -0.00000   0.00000
 This molecule is an asymmetric top.
 Rotational symmetry number  2.
 Rotational temperatures (Kelvin)      1.63912     0.21429     0.18952
 Rotational constants (GHZ):          34.15382     4.46518     3.94891
 Zero-point vibrational energy      96660.4 (Joules/Mol)
                                   23.10239 (Kcal/Mol)
 Warning -- explicit consideration of   4 degrees of freedom as
           vibrations may cause significant error
 Vibrational temperatures:    338.49   419.97   666.08   780.25   897.04
          (Kelvin)           1028.89  1101.33  1115.60  1378.93  1404.70
                             1466.74  2070.80  2527.79  4003.17  4051.36

 Zero-point correction=                           0.036816 (Hartree/Particle)
 Thermal correction to Energy=                    0.041589
 Thermal correction to Enthalpy=                  0.042533
 Thermal correction to Gibbs Free Energy=         0.010133
 Sum of electronic and zero-point Energies=           -189.695122
 Sum of electronic and thermal Energies=              -189.690349
 Sum of electronic and thermal Enthalpies=            -189.689405
 Sum of electronic and thermal Free Energies=         -189.721805

                     E (Thermal)             CV                S
                      KCal/Mol        Cal/Mol-Kelvin    Cal/Mol-Kelvin
 Total                   26.097             16.419             68.192
 Electronic               0.000              0.000              1.377
 Translational            0.889              2.981             38.294
 Rotational               0.889              2.981             22.416
 Vibrational             24.320             10.458              6.104
 Vibration     1          0.655              1.787              1.838
 Vibration     2          0.687              1.689              1.463
 Vibration     3          0.821              1.332              0.758
 Vibration     4          0.897              1.157              0.560

 Optimization completed.
    -- Stationary point found.
 Normal termination of Gaussian 09 at Tue Jul 19 07:11:21 2016.
