 Gaussian 09, Revision E.01,
 Gaussian 09:  EM64L-G09RevE.01 30-Nov-2015

 ---------------------------------------------
 #p b3lyp/6-311++G(3df,2p) freq symmetry=Loose
 ---------------------------------------------

 ---------
 b3lyp opt
 ---------
 Symbolic Z-matrix:
 Charge =  1 Multiplicity = 4

                         Standard orientation:
 ---------------------------------------------------------------------
 Center     Atomic      Atomic             Coordinates (Angstroms)
 Number     Number       Type             X           Y           Z
 ---------------------------------------------------------------------
      1          6           0       -0.645966   -0.117032    0.382177
      2          6           0        0.584590    0.852011    0.054672
      3          6           0        1.541608   -0.119899   -0.056779
      4          6           0        0.462007   -0.949288   -0.214234
      5          6           0       -1.878777    0.073275   -0.341488
      6          1           0        0.482724    1.839468   -0.394364
      7          1           0       -0.863497   -0.273869    1.448274
 ---------------------------------------------------------------------

 SCF Done:  E(UB3LYP) =  -191.014786101     A.U. after   22 cycles

 The electronic state is 4-A.
 Alpha  occ. eigenvalues --  -10.54959 -10.52632 -10.51763 -10.51591 -10.49873
 Alpha  occ. eigenvalues --   -1.22398  -1.03264  -0.91142  -0.84548  -0.78176
 Alpha  occ. eigenvalues --   -0.73666  -0.70379  -0.62730  -0.59130  -0.54825
 Alpha  occ. eigenvalues --   -0.53734  -0.47574
 Alpha virt. eigenvalues --   -0.35653  -0.33750  -0.27969  -0.15467  -0.14937
 Alpha virt. eigenvalues --   -0.13070  -0.11908  -0.09221  -0.08562  -0.07804
 Alpha virt. eigenvalues --   -0.07270  -0.06918  -0.06029  -0.04550  -0.02639

  Beta  occ. eigenvalues --  -10.53103 -10.52015 -10.50393 -10.49967 -10.49676
  Beta  occ. eigenvalues --   -1.20096  -1.00596  -0.88278  -0.80478  -0.76236
  Beta  occ. eigenvalues --   -0.70669  -0.67180  -0.59667  -0.53128
  Beta virt. eigenvalues --   -0.41484  -0.37990  -0.34372  -0.33606  -0.28671
  Beta virt. eigenvalues --   -0.24385  -0.14693  -0.14153  -0.12084  -0.10789
  Beta virt. eigenvalues --   -0.08634  -0.08106  -0.07132  -0.06598  -0.06466

 Mulliken charges and spin densities:
               1          2
     1  C    0.496116  -0.094839
     2  C   -0.013728   0.279410
     3  C    0.232342   0.832733
     4  C    0.139364   1.018990
     5  C   -0.393188   0.929800
     6  H    0.274473   0.037979
     7  H    0.264621  -0.004073
 Sum of Mulliken charges =   1.00000   3.00000

 Dipole moment (field-independent basis, Debye):
    X=              0.8538    Y=              0.8741    Z=              0.8131  Tot=              1.4677
 Quadrupole moment (field-independent basis, Debye-Ang):
   XX=            -23.3697   YY=            -21.4474   ZZ=            -23.8008
   XY=              1.0496   XZ=             -2.8171   YZ=             -1.1229

  Exact polarizability:  77.948  -1.930  44.260   3.854   0.398  33.813
 Approx polarizability: 156.907  -6.416  83.258   7.968   3.346  52.924

                      1                      2                      3
                      A                      A                      A
 Frequencies --    127.4697               342.9400               416.9153
 Red. masses --      7.2812                 5.4281                 5.1967
 Frc consts  --      0.0697                 0.3761                 0.5322
 IR Inten    --     12.6245                 9.3318                 1.7435

                      4                      5                      6
                      A                      A                      A
 Frequencies --    564.1791               621.1983               795.3661
 Red. masses --      7.7281                 7.0281                 1.6001
 Frc consts  --      1.4493                 1.5979                 0.5964
 IR Inten    --      6.5452                 3.2131                27.0226

                      7                      8                      9
                      A                      A                      A
 Frequencies --    888.8520               974.0078              1001.5466
 Red. masses --      2.6340                 1.2348                 2.2875
 Frc consts  --      1.2261                 0.6902                 1.3519
 IR Inten    --      6.9007                 8.0654                 4.3574

                     10                     11                     12
                      A                      A                      A
 Frequencies --   1078.6296              1155.6796              1222.7806
 Red. masses --      1.3186                 2.1361                 6.6769
 Frc consts  --      0.9039                 1.6809                 5.8820
 IR Inten    --     16.8611                42.0027                 5.6239

                     13                     14                     15
                      A                      A                      A
 Frequencies --   1465.2092              3011.8131              3126.1599
 Red. masses --      9.4059                 1.0810                 1.0947
 Frc consts  --     11.8974                 5.7771                 6.3032
 IR Inten    --      1.5611                78.8673                76.8161

 - Thermochemistry -
 -------------------
 Temperature   298.150 Kelvin.  Pressure   1.00000 Atm.
 Atom     1 has atomic number  6 and mass  12.00000

 Molecular mass:    62.01565 amu.
 Principal axes and moments of inertia in atomic units:
                           1         2         3
     Eigenvalues --   104.83634 319.64438 382.10339
           X            0.99967   0.01684  -0.01937
           Y           -0.01804   0.99782  -0.06343
           Z            0.01826   0.06375   0.99780
 This molecule is an asymmetric top.
 Rotational symmetry number  1.
 Rotational temperatures (Kelvin)      0.82618     0.27097     0.22668
 Rotational constants (GHZ):          17.21484     5.64609     4.72318
 Zero-point vibrational energy     100442.9 (Joules/Mol)
                                   24.00644 (Kcal/Mol)
 Warning -- explicit consideration of   4 degrees of freedom as
           vibrations may cause significant error
 Vibrational temperatures:    183.40   493.41   599.85   811.73   893.76
          (Kelvin)           1144.35  1278.86  1401.38  1441.00  1551.91
                             1662.76  1759.31  2108.11  4333.32  4497.84

 Zero-point correction=                           0.038257 (Hartree/Particle)
 Thermal correction to Energy=                    0.043046
 Thermal correction to Enthalpy=                  0.043990
 Thermal correction to Gibbs Free Energy=         0.009852
 Sum of electronic and zero-point Energies=           -190.976529
 Sum of electronic and thermal Energies=              -190.971740
 Sum of electronic and thermal Enthalpies=            -190.970796
 Sum of electronic and thermal Free Energies=         -191.004934

                     E (Thermal)             CV                S
                      KCal/Mol        Cal/Mol-Kelvin    Cal/Mol-Kelvin
 Total                   27.012             15.772             71.850
 Electronic               0.000              0.000              2.755
 Translational            0.889              2.981             38.294
 Rotational               0.889              2.981             24.064
 Vibrational             25.234              9.811              6.738
 Vibration     1          0.611              1.926              2.984
 Vibration     2          0.722              1.590              1.198
 Vibration     3          0.780              1.433              0.903
 Vibration     4          0.920              1.109              0.516

 Optimization completed.
    -- Stationary point found.
 Normal termination of Gaussian 09 at Sun Jun 19 03:15:12 2016.
