 Gaussian 09, Revision E.01,
 Gaussian 09:  EM64L-G09RevE.01 30-Nov-2015

 ---------------------------------------------
 #p b3lyp/6-311++G(3df,2p) freq symmetry=Loose
 ---------------------------------------------

 ---------
 b3lyp opt
 ---------
 Symbolic Z-matrix:
 Charge =  1 Multiplicity = 2

                         Standard orientation:
 ---------------------------------------------------------------------
 Center     Atomic      Atomic             Coordinates (Angstroms)
 Number     Number       Type             X           Y           Z
 ---------------------------------------------------------------------
      1          6           0        1.117040   -0.191342   -0.000000
      2          6           0        0.071356    0.903668    0.000000
      3          6           0       -1.007824   -0.100620    0.000000
      4          6           0        0.071356   -0.465354    0.947194
      5          6           0        0.071356   -0.465354   -0.947194
      6          1           0        0.147268    1.980616    0.000000
      7          1           0       -2.086965   -0.066612    0.000000
 ---------------------------------------------------------------------

 SCF Done:  E(UB3LYP) =  -191.104289696     A.U. after   15 cycles

 The electronic state is 2-A'.
 Alpha  occ. eigenvalues --  -10.55961 -10.53812 -10.53803 -10.53726 -10.53192
 Alpha  occ. eigenvalues --   -1.35229  -1.00015  -0.92956  -0.91085  -0.80100
 Alpha  occ. eigenvalues --   -0.73048  -0.70026  -0.65424  -0.61766  -0.56621
 Alpha  occ. eigenvalues --   -0.55224
 Alpha virt. eigenvalues --   -0.35771  -0.27926  -0.21327  -0.16885  -0.15540
 Alpha virt. eigenvalues --   -0.14947  -0.13332  -0.12408  -0.09643  -0.08248
 Alpha virt. eigenvalues --   -0.07900  -0.07115  -0.05920  -0.05885  -0.05332

  Beta  occ. eigenvalues --  -10.54130 -10.53612 -10.53604 -10.53534 -10.53241
  Beta  occ. eigenvalues --   -1.34566  -0.98585  -0.92296  -0.90928  -0.78510
  Beta  occ. eigenvalues --   -0.72680  -0.69221  -0.64452  -0.57370  -0.55040
  Beta virt. eigenvalues --   -0.42174  -0.34762  -0.27057  -0.21156  -0.16469
  Beta virt. eigenvalues --   -0.15086  -0.14709  -0.12579  -0.11914  -0.09258
  Beta virt. eigenvalues --   -0.07972  -0.07694  -0.07003  -0.05913  -0.05693

 Mulliken charges and spin densities:
               1          2
     1  C    0.433243   0.891721
     2  C    0.150691  -0.039712
     3  C    0.486820   0.055702
     4  C   -0.392732   0.034064
     5  C   -0.392732   0.034064
     6  H    0.359031   0.000181
     7  H    0.355680   0.023980
 Sum of Mulliken charges =   1.00000   1.00000

 Dipole moment (field-independent basis, Debye):
    X=             -1.0738    Y=              1.9203    Z=              0.0000  Tot=              2.2001
 Quadrupole moment (field-independent basis, Debye-Ang):
   XX=            -18.5848   YY=            -21.2086   ZZ=            -26.4086
   XY=              0.2410   XZ=              0.0000   YZ=             -0.0000

  Exact polarizability:  38.032  -0.074  37.427  -0.000   0.000  43.241
 Approx polarizability:  64.465   0.092  70.789  -0.000  -0.000 112.418

                      1                      2                      3
                     A'                     A"                     A'
 Frequencies --    373.3318               462.5583               525.6071
 Red. masses --      9.9276                 8.6228                 7.6279
 Frc consts  --      0.8152                 1.0870                 1.2416
 IR Inten    --      7.8802                49.9373                 3.0758

                      4                      5                      6
                     A"                     A'                     A"
 Frequencies --    706.0437               737.4274               826.4972
 Red. masses --      1.7335                11.2013                 5.2969
 Frc consts  --      0.5091                 3.5889                 2.1318
 IR Inten    --     36.2740                 6.7362                13.9363

                      7                      8                      9
                     A'                     A"                     A'
 Frequencies --    893.6646               961.0290               978.7340
 Red. masses --      1.2270                 1.7236                 1.4168
 Frc consts  --      0.5773                 0.9379                 0.7996
 IR Inten    --     22.0039                 0.0303                 6.0588

                     10                     11                     12
                     A"                     A'                     A'
 Frequencies --   1074.4234              1112.7603              1313.3349
 Red. masses --      1.7392                 2.9582                 5.9734
 Frc consts  --      1.1829                 2.1582                 6.0705
 IR Inten    --      8.2959                 9.2974                36.2284

                     13                     14                     15
                     A'                     A'                     A'
 Frequencies --   1361.6079              3237.7861              3254.0295
 Red. masses --      9.7996                 1.0999                 1.1133
 Frc consts  --     10.7044                 6.7936                 6.9453
 IR Inten    --      7.9443               137.0800                92.2882

 - Thermochemistry -
 -------------------
 Temperature   298.150 Kelvin.  Pressure   1.00000 Atm.
 Atom     1 has atomic number  6 and mass  12.00000

 Molecular mass:    62.01565 amu.
 Principal axes and moments of inertia in atomic units:
                           1         2         3
     Eigenvalues --   146.15277 182.67489 190.30816
           X            0.99746   0.00000   0.07120
           Y           -0.07120   0.00000   0.99746
           Z            0.00000   1.00000  -0.00000
 This molecule is an asymmetric top.
 Rotational symmetry number  1.
 Rotational temperatures (Kelvin)      0.59263     0.47414     0.45512
 Rotational constants (GHZ):          12.34832     9.87953     9.48326
 Zero-point vibrational energy     106580.3 (Joules/Mol)
                                   25.47330 (Kcal/Mol)
 Warning -- explicit consideration of   3 degrees of freedom as
           vibrations may cause significant error
 Vibrational temperatures:    537.14   665.52   756.23  1015.84  1060.99
          (Kelvin)           1189.14  1285.78  1382.70  1408.18  1545.85
                             1601.01  1889.59  1959.05  4658.45  4681.82

 Zero-point correction=                           0.040594 (Hartree/Particle)
 Thermal correction to Energy=                    0.044711
 Thermal correction to Enthalpy=                  0.045655
 Thermal correction to Gibbs Free Energy=         0.014050
 Sum of electronic and zero-point Energies=           -191.063695
 Sum of electronic and thermal Energies=              -191.059579
 Sum of electronic and thermal Enthalpies=            -191.058635
 Sum of electronic and thermal Free Energies=         -191.090240

                     E (Thermal)             CV                S
                      KCal/Mol        Cal/Mol-Kelvin    Cal/Mol-Kelvin
 Total                   28.056             14.366             66.519
 Electronic               0.000              0.000              1.377
 Translational            0.889              2.981             38.294
 Rotational               0.889              2.981             23.145
 Vibrational             26.279              8.404              3.702
 Vibration     1          0.745              1.527              1.066
 Vibration     2          0.820              1.333              0.759
 Vibration     3          0.881              1.193              0.597

 Optimization completed.
    -- Stationary point found.
 Normal termination of Gaussian 09 at Tue Jul 19 07:34:34 2016.
