 Gaussian 09, Revision E.01,
 Gaussian 09:  EM64L-G09RevE.01 30-Nov-2015

 ---------------------------------------------
 #p b3lyp/6-311++G(3df,2p) freq symmetry=Loose
 ---------------------------------------------

 ---------
 b3lyp opt
 ---------
 Symbolic Z-matrix:
 Charge =  1 Multiplicity = 4

                         Standard orientation:
 ---------------------------------------------------------------------
 Center     Atomic      Atomic             Coordinates (Angstroms)
 Number     Number       Type             X           Y           Z
 ---------------------------------------------------------------------
      1          6           0        0.344773    0.230637    0.003258
      2          6           0       -1.092549    0.510756    0.006783
      3          6           0        1.508080   -0.138007   -0.675347
      4          6           0       -1.794197   -0.801464   -0.011326
      5          6           0        1.506774   -0.160780    0.671505
      6          1           0       -1.418345    1.090269   -0.872512
      7          1           0       -1.418939    1.062886    0.903281
 ---------------------------------------------------------------------

 SCF Done:  E(UB3LYP) =  -191.019143252     A.U. after   21 cycles

 The electronic state is 4-A.
 Alpha  occ. eigenvalues --  -10.55317 -10.55238 -10.54276 -10.49402 -10.45466
 Alpha  occ. eigenvalues --   -1.24317  -1.06096  -0.85245  -0.81274  -0.78113
 Alpha  occ. eigenvalues --   -0.71952  -0.69136  -0.66964  -0.61867  -0.54704
 Alpha  occ. eigenvalues --   -0.53264  -0.45277
 Alpha virt. eigenvalues --   -0.33660  -0.30143  -0.29822  -0.16212  -0.13939
 Alpha virt. eigenvalues --   -0.11979  -0.11377  -0.10898  -0.10318  -0.07896
 Alpha virt. eigenvalues --   -0.07356  -0.06193  -0.05676  -0.04494  -0.03575

  Beta  occ. eigenvalues --  -10.53714 -10.53449 -10.53388 -10.47964 -10.45512
  Beta  occ. eigenvalues --   -1.21907  -1.04702  -0.81823  -0.75934  -0.75398
  Beta  occ. eigenvalues --   -0.67920  -0.66823  -0.64798  -0.50830
  Beta virt. eigenvalues --   -0.44537  -0.39175  -0.31982  -0.31547  -0.25994
  Beta virt. eigenvalues --   -0.25896  -0.15711  -0.12897  -0.11499  -0.10818
  Beta virt. eigenvalues --   -0.09869  -0.09399  -0.07423  -0.05528  -0.05222

 Mulliken charges and spin densities:
               1          2
     1  C    0.426649  -0.053699
     2  C   -0.064721  -0.092517
     3  C    0.160661   1.076877
     4  C   -0.133569   0.928814
     5  C    0.160671   1.076335
     6  H    0.224972   0.032293
     7  H    0.225337   0.031896
 Sum of Mulliken charges =   1.00000   3.00000

 Dipole moment (field-independent basis, Debye):
    X=              0.9136    Y=              2.0656    Z=              0.0295  Tot=              2.2588
 Quadrupole moment (field-independent basis, Debye-Ang):
   XX=            -18.3941   YY=            -25.7252   ZZ=            -22.4737
   XY=             -3.9574   XZ=             -0.0590   YZ=             -0.0459

  Exact polarizability:  84.630   4.243  38.637   0.069  -0.052  40.687
 Approx polarizability: 142.017  12.873  61.136   0.185  -0.249  75.127

                      1                      2                      3
                      A                      A                      A
 Frequencies --     55.7059               187.6577               227.9241
 Red. masses --      9.9424                10.3094                 1.1866
 Frc consts  --      0.0182                 0.2139                 0.0363
 IR Inten    --      3.0778                18.9038                 5.1358

                      4                      5                      6
                      A                      A                      A
 Frequencies --    362.7202               513.8416               756.5848
 Red. masses --      4.6892                 8.7810                 5.7528
 Frc consts  --      0.3635                 1.3660                 1.9402
 IR Inten    --      0.9091                 5.6153                 6.1806

                      7                      8                      9
                      A                      A                      A
 Frequencies --    889.5938              1015.3318              1151.8753
 Red. masses --      4.3210                 2.2071                 1.4644
 Frc consts  --      2.0148                 1.3406                 1.1448
 IR Inten    --     20.7448                19.8089                71.2857

                     10                     11                     12
                      A                      A                      A
 Frequencies --   1172.5980              1323.1645              1328.0106
 Red. masses --      2.0476                 1.2959                 3.7653
 Frc consts  --      1.6588                 1.3368                 3.9124
 IR Inten    --     29.0763                22.2469                20.5306

                     13                     14                     15
                      A                      A                      A
 Frequencies --   1647.5755              2951.3269              2992.5419
 Red. masses --     11.5235                 1.0573                 1.0968
 Frc consts  --     18.4300                 5.4259                 5.7871
 IR Inten    --      1.6691                70.5718                38.6833

 - Thermochemistry -
 -------------------
 Temperature   298.150 Kelvin.  Pressure   1.00000 Atm.
 Atom     1 has atomic number  6 and mass  12.00000

 Molecular mass:    62.01565 amu.
 Principal axes and moments of inertia in atomic units:
                           1         2         3
     Eigenvalues --    95.18802 447.88272 453.96699
           X            0.99950  -0.03168  -0.00066
           Y            0.03168   0.99948   0.00657
           Z            0.00045  -0.00659   0.99998
 This molecule is an asymmetric top.
 Rotational symmetry number  1.
 Rotational temperatures (Kelvin)      0.90992     0.19339     0.19079
 Rotational constants (GHZ):          18.95975     4.02950     3.97549
 Zero-point vibrational energy      99149.2 (Joules/Mol)
                                   23.69723 (Kcal/Mol)
 Warning -- explicit consideration of   5 degrees of freedom as
           vibrations may cause significant error
 Vibrational temperatures:     80.15   270.00   327.93   521.87   739.30
          (Kelvin)           1088.56  1279.93  1460.83  1657.29  1687.10
                             1903.74  1910.71  2370.49  4246.30  4305.59

 Zero-point correction=                           0.037764 (Hartree/Particle)
 Thermal correction to Energy=                    0.043324
 Thermal correction to Enthalpy=                  0.044268
 Thermal correction to Gibbs Free Energy=         0.007855
 Sum of electronic and zero-point Energies=           -190.981379
 Sum of electronic and thermal Energies=              -190.975819
 Sum of electronic and thermal Enthalpies=            -190.974875
 Sum of electronic and thermal Free Energies=         -191.011288

                     E (Thermal)             CV                S
                      KCal/Mol        Cal/Mol-Kelvin    Cal/Mol-Kelvin
 Total                   27.186             16.739             76.639
 Electronic               0.000              0.000              2.755
 Translational            0.889              2.981             38.294
 Rotational               0.889              2.981             24.474
 Vibrational             25.409             10.778             11.116
 Vibration     1          0.596              1.975              4.604
 Vibration     2          0.632              1.857              2.251
 Vibration     3          0.651              1.798              1.895
 Vibration     4          0.737              1.549              1.110
 Vibration     5          0.869              1.219              0.624

 Normal termination of Gaussian 09 at Sun Jun 19 03:41:14 2016.
