 Gaussian 09, Revision E.01,
 Gaussian 09:  EM64L-G09RevE.01 30-Nov-2015

 ---------------------------------------------
 #p b3lyp/6-311++G(3df,2p) freq symmetry=Loose
 ---------------------------------------------

 ---------
 b3lyp opt
 ---------
 Symbolic Z-matrix:
 Charge =  0 Multiplicity = 3

                         Standard orientation:
 ---------------------------------------------------------------------
 Center     Atomic      Atomic             Coordinates (Angstroms)
 Number     Number       Type             X           Y           Z
 ---------------------------------------------------------------------
      1          6           0        0.469187    0.000004   -0.060199
      2          6           0       -0.697544   -0.881778   -0.183340
      3          6           0       -1.634703   -0.000018    0.296950
      4          6           0       -0.697544    0.881800   -0.183233
      5          6           0        1.783534   -0.000005    0.081569
      6          1           0        2.331207    0.928815    0.144816
      7          1           0        2.331207   -0.928832    0.144702
 ---------------------------------------------------------------------

 SCF Done:  E(UB3LYP) =  -191.466246167     A.U. after   17 cycles

 The electronic state is 3-A.
 Alpha  occ. eigenvalues --  -10.26086 -10.26080 -10.25533 -10.25267 -10.20726
 Alpha  occ. eigenvalues --   -0.98369  -0.79133  -0.64124  -0.61404  -0.50778
 Alpha  occ. eigenvalues --   -0.48699  -0.44886  -0.40061  -0.36904  -0.31936
 Alpha  occ. eigenvalues --   -0.28074  -0.23778
 Alpha virt. eigenvalues --   -0.07408  -0.06285  -0.00256   0.01976   0.02725
 Alpha virt. eigenvalues --    0.04076   0.05076   0.05319   0.05716   0.07653
 Alpha virt. eigenvalues --    0.09400   0.09686   0.10530   0.11416   0.12424

  Beta  occ. eigenvalues --  -10.25001 -10.24915 -10.24914 -10.24284 -10.20588
  Beta  occ. eigenvalues --   -0.96603  -0.78459  -0.62292  -0.57986  -0.49778
  Beta  occ. eigenvalues --   -0.47812  -0.41791  -0.38869  -0.31707  -0.28016
  Beta virt. eigenvalues --   -0.16581  -0.11317  -0.05391  -0.03987  -0.00180
  Beta virt. eigenvalues --    0.02818   0.02945   0.04550   0.05567   0.05852
  Beta virt. eigenvalues --    0.06231   0.07813   0.10028   0.10190   0.11021

 Mulliken charges and spin densities:
               1          2
     1  C    0.595293   0.054094
     2  C   -0.237312   0.592237
     3  C   -0.040756   0.660061
     4  C   -0.237311   0.592238
     5  C   -0.446498   0.097827
     6  H    0.183292   0.001771
     7  H    0.183292   0.001771
 Sum of Mulliken charges =  -0.00000   2.00000

 Dipole moment (field-independent basis, Debye):
    X=              1.7923    Y=             -0.0000    Z=              0.4519  Tot=              1.8484
 Quadrupole moment (field-independent basis, Debye-Ang):
   XX=            -27.0160   YY=            -30.5570   ZZ=            -30.6637
   XY=             -0.0000   XZ=              0.4198   YZ=              0.0000

  Exact polarizability:  88.539   0.000  56.533  -3.119   0.001  37.085
 Approx polarizability: 153.247   0.001 110.240 -11.241   0.003  55.736

                      1                      2                      3
                      A                      A                      A
 Frequencies --    274.2276               359.0291               587.6607
 Red. masses --      6.1381                 2.8847                 9.6499
 Frc consts  --      0.2720                 0.2191                 1.9635
 IR Inten    --      0.1764                 0.0417                14.4814

                      4                      5                      6
                      A                      A                      A
 Frequencies --    631.0528               661.1499               740.1757
 Red. masses --      8.5954                 1.5050                 2.5640
 Frc consts  --      2.0167                 0.3876                 0.8276
 IR Inten    --      6.6053                 5.8788                26.1068

                      7                      8                      9
                      A                      A                      A
 Frequencies --    910.5070               933.7777              1034.8564
 Red. masses --      1.4125                 5.0896                 1.8972
 Frc consts  --      0.6900                 2.6147                 1.1971
 IR Inten    --     41.3393                 3.4161                 0.1406

                     10                     11                     12
                      A                      A                      A
 Frequencies --   1151.0414              1359.1082              1444.8609
 Red. masses --      5.0973                 8.6808                 1.1939
 Frc consts  --      3.9789                 9.4476                 1.4685
 IR Inten    --      1.2513                51.9242                 0.1962

                     13                     14                     15
                      A                      A                      A
 Frequencies --   1739.9015              3155.0853              3246.0221
 Red. masses --      8.1650                 1.0576                 1.1178
 Frc consts  --     14.5631                 6.2028                 6.9391
 IR Inten    --     11.8779                 0.0842                 0.1335

 - Thermochemistry -
 -------------------
 Temperature   298.150 Kelvin.  Pressure   1.00000 Atm.
 Atom     1 has atomic number  6 and mass  12.00000

 Molecular mass:    62.01565 amu.
 Principal axes and moments of inertia in atomic units:
                           1         2         3
     Eigenvalues --    80.07644 347.09287 412.71710
           X            0.99997   0.00000   0.00742
           Y            0.00000   1.00000  -0.00006
           Z           -0.00742   0.00006   0.99997
 This molecule is an asymmetric top.
 Rotational symmetry number  1.
 Rotational temperatures (Kelvin)      1.08164     0.24954     0.20986
 Rotational constants (GHZ):          22.53773     5.19959     4.37283
 Zero-point vibrational energy     109030.4 (Joules/Mol)
                                   26.05889 (Kcal/Mol)
 Warning -- explicit consideration of   3 degrees of freedom as
           vibrations may cause significant error
 Vibrational temperatures:    394.55   516.56   845.51   907.94   951.25
          (Kelvin)           1064.95  1310.01  1343.50  1488.93  1656.09
                             1955.45  2078.83  2503.33  4539.46  4670.30

 Zero-point correction=                           0.041527 (Hartree/Particle)
 Thermal correction to Energy=                    0.045871
 Thermal correction to Enthalpy=                  0.046815
 Thermal correction to Gibbs Free Energy=         0.014010
 Sum of electronic and zero-point Energies=           -191.424719
 Sum of electronic and thermal Energies=              -191.420375
 Sum of electronic and thermal Enthalpies=            -191.419431
 Sum of electronic and thermal Free Energies=         -191.452236

                     E (Thermal)             CV                S
                      KCal/Mol        Cal/Mol-Kelvin    Cal/Mol-Kelvin
 Total                   28.784             14.689             69.043
 Electronic               0.000              0.000              2.183
 Translational            0.889              2.981             38.294
 Rotational               0.889              2.981             23.954
 Vibrational             27.007              8.727              4.612
 Vibration     1          0.677              1.721              1.569
 Vibration     2          0.734              1.557              1.126
 Vibration     3          0.945              1.058              0.471

 Optimization completed.
    -- Stationary point found.
 Normal termination of Gaussian 09 at Tue Jul 19 06:31:16 2016.
