 Gaussian 09, Revision E.01,
 Gaussian 09:  EM64L-G09RevE.01 30-Nov-2015

 ---------------------------------------------
 #p b3lyp/6-311++G(3df,2p) freq symmetry=Loose
 ---------------------------------------------

 ---------
 b3lyp opt
 ---------
 Symbolic Z-matrix:
 Charge =  1 Multiplicity = 2

                         Standard orientation:
 ---------------------------------------------------------------------
 Center     Atomic      Atomic             Coordinates (Angstroms)
 Number     Number       Type             X           Y           Z
 ---------------------------------------------------------------------
      1          6           0       -0.000000    0.649336   -0.000000
      2          6           0        0.190708   -0.493926   -0.888467
      3          6           0       -0.382066   -1.417961    0.000000
      4          6           0        0.190708   -0.493926    0.888467
      5          6           0       -0.274001    1.956734   -0.000000
      6          1           0        0.824055   -0.600767   -1.764084
      7          1           0        0.824055   -0.600767    1.764084
 ---------------------------------------------------------------------

 SCF Done:  E(UB3LYP) =  -191.127610009     A.U. after   16 cycles

 The electronic state is 2-A'.
 Alpha  occ. eigenvalues --  -10.54387 -10.54384 -10.51222 -10.51032 -10.47660
 Alpha  occ. eigenvalues --   -1.24408  -1.02115  -0.92897  -0.86492  -0.82183
 Alpha  occ. eigenvalues --   -0.69628  -0.67003  -0.66594  -0.58374  -0.53838
 Alpha  occ. eigenvalues --   -0.51149
 Alpha virt. eigenvalues --   -0.36714  -0.32243  -0.31448  -0.22088  -0.15434
 Alpha virt. eigenvalues --   -0.13545  -0.12416  -0.12093  -0.10429  -0.08722
 Alpha virt. eigenvalues --   -0.07296  -0.06184  -0.05683  -0.04734  -0.04413

  Beta  occ. eigenvalues --  -10.54253 -10.54251 -10.50551 -10.50101 -10.47630
  Beta  occ. eigenvalues --   -1.23583  -1.00823  -0.92530  -0.84786  -0.81834
  Beta  occ. eigenvalues --   -0.69079  -0.66454  -0.66182  -0.53897  -0.52280
  Beta virt. eigenvalues --   -0.40097  -0.36162  -0.31748  -0.29282  -0.20670
  Beta virt. eigenvalues --   -0.15212  -0.13404  -0.12219  -0.11555  -0.10275
  Beta virt. eigenvalues --   -0.08692  -0.07166  -0.05984  -0.05497  -0.04454

 Mulliken charges and spin densities:
               1          2
     1  C    0.544935   0.016348
     2  C    0.124269   0.053738
     3  C   -0.122951   0.642691
     4  C    0.124269   0.053738
     5  C   -0.241207   0.230708
     6  H    0.285343   0.001388
     7  H    0.285343   0.001388
 Sum of Mulliken charges =   1.00000   1.00000

 Dipole moment (field-independent basis, Debye):
    X=              1.8096    Y=             -1.7947    Z=              0.0000  Tot=              2.5487
 Quadrupole moment (field-independent basis, Debye-Ang):
   XX=            -25.2483   YY=            -26.0005   ZZ=            -16.8244
   XY=             -1.5796   XZ=              0.0000   YZ=             -0.0000

  Exact polarizability:  32.693   1.684  81.492   0.000   0.000  42.380
 Approx polarizability:  50.496   8.881 170.361   0.000   0.000  73.465

                      1                      2                      3
                     A"                     A'                     A'
 Frequencies --    207.6672               228.3682               416.1824
 Red. masses --      6.6068                 8.6620                 3.0656
 Frc consts  --      0.1679                 0.2662                 0.3128
 IR Inten    --     11.0670                 5.6027                24.6589

                      4                      5                      6
                     A'                     A"                     A'
 Frequencies --    684.2548               779.6326               897.5041
 Red. masses --      7.7245                 8.4833                 2.3051
 Frc consts  --      2.1309                 3.0380                 1.0940
 IR Inten    --      3.5821                 0.5874                 6.0796

                      7                      8                      9
                     A'                     A"                     A"
 Frequencies --    938.1634               996.0339              1102.3658
 Red. masses --      1.6006                 1.4569                 1.1546
 Frc consts  --      0.8300                 0.8516                 0.8267
 IR Inten    --     69.4165                 0.0049                 1.7254

                     10                     11                     12
                     A'                     A"                     A'
 Frequencies --   1151.4010              1212.7174              1320.5802
 Red. masses --      1.8720                 5.8233                 4.4353
 Frc consts  --      1.4622                 5.0459                 4.5573
 IR Inten    --     55.7778                10.5918               120.7908

                     13                     14                     15
                     A'                     A"                     A'
 Frequencies --   1624.6498              3179.4568              3182.4855
 Red. masses --     10.3190                 1.0976                 1.1014
 Frc consts  --     16.0475                 6.5371                 6.5725
 IR Inten    --    408.0209                98.0648                34.8251

 - Thermochemistry -
 -------------------
 Temperature   298.150 Kelvin.  Pressure   1.00000 Atm.
 Atom     1 has atomic number  6 and mass  12.00000

 Molecular mass:    62.01565 amu.
 Principal axes and moments of inertia in atomic units:
                           1         2         3
     Eigenvalues --   106.91434 309.05249 382.24578
           X           -0.04102   0.00000   0.99916
           Y            0.99916   0.00000   0.04102
           Z            0.00000   1.00000   0.00000
 This molecule is an asymmetric top.
 Rotational symmetry number  1.
 Rotational temperatures (Kelvin)      0.81012     0.28026     0.22659
 Rotational constants (GHZ):          16.88025     5.83959     4.72142
 Zero-point vibrational energy     107194.2 (Joules/Mol)
                                   25.62002 (Kcal/Mol)
 Warning -- explicit consideration of   3 degrees of freedom as
           vibrations may cause significant error
 Vibrational temperatures:    298.79   328.57   598.79   984.49  1121.72
          (Kelvin)           1291.31  1349.81  1433.07  1586.06  1656.61
                             1744.83  1900.02  2337.51  4574.52  4578.88

 Zero-point correction=                           0.040828 (Hartree/Particle)
 Thermal correction to Energy=                    0.045437
 Thermal correction to Enthalpy=                  0.046382
 Thermal correction to Gibbs Free Energy=         0.013279
 Sum of electronic and zero-point Energies=           -191.086782
 Sum of electronic and thermal Energies=              -191.082173
 Sum of electronic and thermal Enthalpies=            -191.081228
 Sum of electronic and thermal Free Energies=         -191.114331

                     E (Thermal)             CV                S
                      KCal/Mol        Cal/Mol-Kelvin    Cal/Mol-Kelvin
 Total                   28.512             14.803             69.671
 Electronic               0.000              0.000              1.377
 Translational            0.889              2.981             38.294
 Rotational               0.889              2.981             24.050
 Vibrational             26.735              8.841              5.950
 Vibration     1          0.641              1.829              2.064
 Vibration     2          0.651              1.798              1.892
 Vibration     3          0.779              1.435              0.905

 Optimization completed.
    -- Stationary point found.
 Normal termination of Gaussian 09 at Tue Jul 19 06:31:43 2016.
