 Gaussian 09, Revision E.01,
 Gaussian 09:  EM64L-G09RevE.01 30-Nov-2015

 ---------------------------------------------
 #p b3lyp/6-311++G(3df,2p) freq symmetry=Loose
 ---------------------------------------------

 ---------
 b3lyp opt
 ---------
 Symbolic Z-matrix:
 Charge =  0 Multiplicity = 3

                         Standard orientation:
 ---------------------------------------------------------------------
 Center     Atomic      Atomic             Coordinates (Angstroms)
 Number     Number       Type             X           Y           Z
 ---------------------------------------------------------------------
      1          6           0        1.347299   -0.840347   -0.000131
      2          6           0        1.517905    0.603021    0.000041
      3          6           0        0.135285   -0.277969   -0.000037
      4          6           0       -1.162993   -0.058379    0.000018
      5          6           0       -2.420025    0.195787    0.000076
      6          1           0        1.747611    1.133547    0.920730
      7          1           0        1.747572    1.133771   -0.920528
 ---------------------------------------------------------------------

 SCF Done:  E(UB3LYP) =  -191.457735641     A.U. after   18 cycles

 The electronic state is 3-A.
 Alpha  occ. eigenvalues --  -10.28109 -10.27458 -10.26460 -10.22875 -10.21631
 Alpha  occ. eigenvalues --   -0.94980  -0.81142  -0.69781  -0.65591  -0.52201
 Alpha  occ. eigenvalues --   -0.47307  -0.45111  -0.38699  -0.34093  -0.30822
 Alpha  occ. eigenvalues --   -0.29179  -0.26282
 Alpha virt. eigenvalues --   -0.09818  -0.03905  -0.01453   0.01199   0.02494
 Alpha virt. eigenvalues --    0.02956   0.05863   0.06064   0.07055   0.07461
 Alpha virt. eigenvalues --    0.07505   0.08959   0.09546   0.11090   0.11523

  Beta  occ. eigenvalues --  -10.27908 -10.26024 -10.25969 -10.22121 -10.21381
  Beta  occ. eigenvalues --   -0.92901  -0.79369  -0.68039  -0.63596  -0.50583
  Beta  occ. eigenvalues --   -0.44389  -0.42321  -0.35882  -0.30108  -0.29390
  Beta virt. eigenvalues --   -0.19475  -0.16216  -0.05407  -0.02164  -0.01051
  Beta virt. eigenvalues --    0.01323   0.02877   0.03380   0.06016   0.06874
  Beta virt. eigenvalues --    0.07144   0.07943   0.08022   0.09155   0.10027

 Mulliken charges and spin densities:
               1          2
     1  C    0.111347   0.869505
     2  C   -0.464281   0.243563
     3  C   -0.053093   0.140958
     4  C    0.532387   0.290307
     5  C   -0.493879   0.390116
     6  H    0.183759   0.032775
     7  H    0.183759   0.032775
 Sum of Mulliken charges =  -0.00000   2.00000

 Dipole moment (field-independent basis, Debye):
    X=              4.1480    Y=              1.2346    Z=              0.0001  Tot=              4.3278
 Quadrupole moment (field-independent basis, Debye-Ang):
   XX=            -38.7891   YY=            -30.0509   ZZ=            -27.6742
   XY=              4.4203   XZ=              0.0008   YZ=             -0.0004

  Exact polarizability: 112.169  -7.460  51.785  -0.002   0.002  40.542
 Approx polarizability: 232.372 -32.579  83.130  -0.008   0.004  57.297

                      1                      2                      3
                      A                      A                      A
 Frequencies --    151.8408               173.5076               387.0892
 Red. masses --      7.9687                 6.6604                 5.2645
 Frc consts  --      0.1082                 0.1181                 0.4648
 IR Inten    --     19.6209                 7.7484                 4.7276

                      4                      5                      6
                      A                      A                      A
 Frequencies --    407.6744               529.0262               842.5283
 Red. masses --      5.9411                11.5408                 1.2101
 Frc consts  --      0.5818                 1.9030                 0.5061
 IR Inten    --      5.2784                 9.1611                 0.1021

                      7                      8                      9
                      A                      A                      A
 Frequencies --    881.1488               919.0537               968.6574
 Red. masses --     10.4183                 1.2657                 1.3461
 Frc consts  --      4.7659                 0.6299                 0.7442
 IR Inten    --      5.4821                 0.8882                46.8853

                     10                     11                     12
                      A                      A                      A
 Frequencies --   1085.8974              1432.1923              1558.3084
 Red. masses --      5.9318                 1.1366                 8.6173
 Frc consts  --      4.1211                 1.3736                12.3290
 IR Inten    --     37.6395                10.3864                40.9711

                     13                     14                     15
                      A                      A                      A
 Frequencies --   1982.3835              3062.1088              3147.5418
 Red. masses --     11.9085                 1.0468                 1.1155
 Frc consts  --     27.5729                 5.7831                 6.5111
 IR Inten    --    348.9374                 0.8150                 0.0058

 - Thermochemistry -
 -------------------
 Temperature   298.150 Kelvin.  Pressure   1.00000 Atm.
 Atom     1 has atomic number  6 and mass  12.00000

 Molecular mass:    62.01565 amu.
 Principal axes and moments of inertia in atomic units:
                           1         2         3
     Eigenvalues --    65.53609 514.09446 567.42907
           X            0.99948   0.03232   0.00002
           Y           -0.03232   0.99948  -0.00012
           Z           -0.00003   0.00012   1.00000
 This molecule is an asymmetric top.
 Rotational symmetry number  1.
 Rotational temperatures (Kelvin)      1.32162     0.16848     0.15264
 Rotational constants (GHZ):          27.53813     3.51052     3.18056
 Zero-point vibrational energy     104846.5 (Joules/Mol)
                                   25.05890 (Kcal/Mol)
 Warning -- explicit consideration of   5 degrees of freedom as
           vibrations may cause significant error
 Vibrational temperatures:    218.46   249.64   556.93   586.55   761.15
          (Kelvin)           1212.21  1267.78  1322.31  1393.68  1562.36
                             2060.60  2242.06  2852.20  4405.69  4528.60

 Zero-point correction=                           0.039934 (Hartree/Particle)
 Thermal correction to Energy=                    0.045092
 Thermal correction to Enthalpy=                  0.046036
 Thermal correction to Gibbs Free Energy=         0.011268
 Sum of electronic and zero-point Energies=           -191.417802
 Sum of electronic and thermal Energies=              -191.412644
 Sum of electronic and thermal Enthalpies=            -191.411700
 Sum of electronic and thermal Free Energies=         -191.446467

                     E (Thermal)             CV                S
                      KCal/Mol        Cal/Mol-Kelvin    Cal/Mol-Kelvin
 Total                   28.296             16.332             73.174
 Electronic               0.000              0.000              2.183
 Translational            0.889              2.981             38.294
 Rotational               0.889              2.981             24.462
 Vibrational             26.518             10.371              8.236
 Vibration     1          0.619              1.901              2.649
 Vibration     2          0.627              1.875              2.397
 Vibration     3          0.756              1.498              1.011
 Vibration     4          0.772              1.454              0.935
 Vibration     5          0.884              1.186              0.589

 Optimization completed.
    -- Stationary point found.
 Normal termination of Gaussian 09 at Tue Jul 19 09:15:14 2016.
