 Gaussian 09, Revision E.01,
 Gaussian 09:  EM64L-G09RevE.01 30-Nov-2015

 ---------------------------------------------
 #p b3lyp/6-311++G(3df,2p) freq symmetry=Loose
 ---------------------------------------------

 ---------
 b3lyp opt
 ---------
 Symbolic Z-matrix:
 Charge =  2 Multiplicity = 3

                         Standard orientation:
 ---------------------------------------------------------------------
 Center     Atomic      Atomic             Coordinates (Angstroms)
 Number     Number       Type             X           Y           Z
 ---------------------------------------------------------------------
      1          6           0       -0.000002   -1.405028    0.667151
      2          6           0       -0.000002   -1.405028   -0.667151
      3          6           0        0.000000   -0.178413    0.000000
      4          6           0       -0.000000    1.177251   -0.000000
      5          6           0       -0.000000    2.433127   -0.000000
      6          1           0       -0.000006   -1.865727    1.658148
      7          1           0       -0.000006   -1.865727   -1.658148
 ---------------------------------------------------------------------

 SCF Done:  E(UB3LYP) =  -190.621502324     A.U. after   14 cycles

 The electronic state is 3-A".
 Alpha  occ. eigenvalues --  -10.82595 -10.76483 -10.76185 -10.73550 -10.73468
 Alpha  occ. eigenvalues --   -1.44706  -1.33030  -1.18664  -1.06647  -1.01404
 Alpha  occ. eigenvalues --   -0.91517  -0.90043  -0.89677  -0.88613  -0.81685
 Alpha  occ. eigenvalues --   -0.81500
 Alpha virt. eigenvalues --   -0.57988  -0.51786  -0.48880  -0.38599  -0.32707
 Alpha virt. eigenvalues --   -0.31209  -0.30761  -0.28998  -0.25811  -0.25474
 Alpha virt. eigenvalues --   -0.23551  -0.23463  -0.21792  -0.20125  -0.19424

  Beta  occ. eigenvalues --  -10.79192 -10.76077 -10.75922 -10.73479 -10.73395
  Beta  occ. eigenvalues --   -1.44143  -1.28856  -1.16573  -1.06000  -1.00874
  Beta  occ. eigenvalues --   -0.89995  -0.88684  -0.86188  -0.79573
  Beta virt. eigenvalues --   -0.68769  -0.65885  -0.55537  -0.49015  -0.43928
  Beta virt. eigenvalues --   -0.36576  -0.32436  -0.30610  -0.30515  -0.28851
  Beta virt. eigenvalues --   -0.25835  -0.24244  -0.22874  -0.22613  -0.21207

 Mulliken charges and spin densities:
               1          2
     1  C    0.170460  -0.026562
     2  C    0.170460  -0.026562
     3  C   -0.135066   0.229404
     4  C    0.395884   0.187973
     5  C    0.648541   1.603564
     6  H    0.374861   0.016092
     7  H    0.374861   0.016092
 Sum of Mulliken charges =   2.00000   2.00000

 Dipole moment (field-independent basis, Debye):
    X=             -0.0000    Y=              0.7313    Z=              0.0000  Tot=              0.7313
 Quadrupole moment (field-independent basis, Debye-Ang):
   XX=            -23.5150   YY=             11.7792   ZZ=            -14.0556
   XY=              0.0000   XZ=             -0.0000   YZ=             -0.0000

  Exact polarizability:  23.188   0.000  76.554   0.000  -0.000  31.382
 Approx polarizability:  32.622   0.000 149.686   0.000  -0.000  48.699

                      1                      2                      3
                     A"                     A'                     A'
 Frequencies --    189.9475               210.1391               518.5662
 Red. masses --      4.8622                 8.3483                 4.8572
 Frc consts  --      0.1034                 0.2172                 0.7696
 IR Inten    --      6.9140                 9.4838                 7.2763

                      4                      5                      6
                     A"                     A'                     A'
 Frequencies --    526.9346               730.4553               859.6276
 Red. masses --      6.9135                 3.9377                 1.3229
 Frc consts  --      1.1310                 1.2379                 0.5759
 IR Inten    --      0.0078                 0.0958                49.5768

                      7                      8                      9
                     A"                     A'                     A"
 Frequencies --    889.8925               950.0762              1008.2766
 Red. masses --      1.4668                 1.3120                 1.7134
 Frc consts  --      0.6844                 0.6977                 1.0263
 IR Inten    --      0.0000                 0.0364                50.4249

                     10                     11                     12
                     A"                     A'                     A'
 Frequencies --   1043.0997              1192.1115              1680.8099
 Red. masses --      3.5325                 7.3734                 5.4012
 Frc consts  --      2.2645                 6.1738                 8.9903
 IR Inten    --     31.6277                55.0666               127.0238

                     13                     14                     15
                     A'                     A"                     A'
 Frequencies --   2022.6393              3106.2012              3152.7888
 Red. masses --     11.2111                 1.0950                 1.1599
 Frc consts  --     27.0232                 6.2248                 6.7930
 IR Inten    --     37.7257               313.0464               253.8852

 - Thermochemistry -
 -------------------
 Temperature   298.150 Kelvin.  Pressure   1.00000 Atm.
 Atom     1 has atomic number  6 and mass  12.00000

 Molecular mass:    62.01565 amu.
 Principal axes and moments of inertia in atomic units:
                           1         2         3
     Eigenvalues --    57.93734 507.90601 565.84335
           X            0.00000   0.00000   1.00000
           Y            1.00000   0.00000  -0.00000
           Z           -0.00000   1.00000  -0.00000
 This molecule is an asymmetric top.
 Rotational symmetry number  1.
 Rotational temperatures (Kelvin)      1.49496     0.17053     0.15307
 Rotational constants (GHZ):          31.14988     3.55330     3.18947
 Zero-point vibrational energy     108151.8 (Joules/Mol)
                                   25.84890 (Kcal/Mol)
 Warning -- explicit consideration of   4 degrees of freedom as
           vibrations may cause significant error
 Vibrational temperatures:    273.29   302.34   746.10   758.14  1050.96
          (Kelvin)           1236.81  1280.36  1366.95  1450.68  1500.79
                             1715.18  2418.31  2910.12  4469.13  4536.15

 Zero-point correction=                           0.041193 (Hartree/Particle)
 Thermal correction to Energy=                    0.045914
 Thermal correction to Enthalpy=                  0.046858
 Thermal correction to Gibbs Free Energy=         0.013032
 Sum of electronic and zero-point Energies=           -190.580309
 Sum of electronic and thermal Energies=              -190.575588
 Sum of electronic and thermal Enthalpies=            -190.574644
 Sum of electronic and thermal Free Energies=         -190.608470

                     E (Thermal)             CV                S
                      KCal/Mol        Cal/Mol-Kelvin    Cal/Mol-Kelvin
 Total                   28.812             15.280             71.194
 Electronic               0.000              0.000              2.183
 Translational            0.889              2.981             38.294
 Rotational               0.889              2.981             24.325
 Vibrational             27.034              9.318              6.392
 Vibration     1          0.633              1.854              2.228
 Vibration     2          0.642              1.825              2.042
 Vibration     3          0.874              1.209              0.613
 Vibration     4          0.882              1.190              0.594

 Optimization completed.
    -- Stationary point found.
 Normal termination of Gaussian 09 at Tue Jul 19 09:03:00 2016.
