 Gaussian 09, Revision E.01,
 Gaussian 09:  EM64L-G09RevE.01 30-Nov-2015

 ---------------------------------------------
 #p b3lyp/6-311++G(3df,2p) freq symmetry=Loose
 ---------------------------------------------

 ---------
 b3lyp opt
 ---------
 Symbolic Z-matrix:
 Charge =  0 Multiplicity = 3

                         Standard orientation:
 ---------------------------------------------------------------------
 Center     Atomic      Atomic             Coordinates (Angstroms)
 Number     Number       Type             X           Y           Z
 ---------------------------------------------------------------------
      1          6           0       -0.077623    0.824165    0.000000
      2          6           0       -0.136046   -0.362401    0.772082
      3          6           0        0.220055   -1.567989    0.000000
      4          6           0       -0.136046   -0.362401   -0.772082
      5          6           0       -0.000000    2.180416   -0.000000
      6          1           0        1.263268   -1.879803    0.000000
      7          1           0       -0.485288   -2.391229    0.000000
 ---------------------------------------------------------------------

 SCF Done:  E(UB3LYP) =  -191.420725963     A.U. after   17 cycles

 The electronic state is 3-A".
 Alpha  occ. eigenvalues --  -10.29182 -10.29159 -10.27427 -10.26700 -10.22008
 Alpha  occ. eigenvalues --   -1.02345  -0.80734  -0.71037  -0.58334  -0.54999
 Alpha  occ. eigenvalues --   -0.53448  -0.44986  -0.40603  -0.34498  -0.30686
 Alpha  occ. eigenvalues --   -0.25008  -0.22815
 Alpha virt. eigenvalues --   -0.12850  -0.03635  -0.02071   0.00538   0.01177
 Alpha virt. eigenvalues --    0.02404   0.03127   0.06137   0.07008   0.07868
 Alpha virt. eigenvalues --    0.08404   0.09030   0.09446   0.10711   0.11694

  Beta  occ. eigenvalues --  -10.28618 -10.28595 -10.27238 -10.26606 -10.20301
  Beta  occ. eigenvalues --   -1.01526  -0.78872  -0.67470  -0.56653  -0.53897
  Beta  occ. eigenvalues --   -0.52266  -0.43591  -0.37940  -0.32350  -0.27629
  Beta virt. eigenvalues --   -0.14070  -0.12203  -0.08219  -0.01741  -0.01740
  Beta virt. eigenvalues --    0.00971   0.02758   0.03099   0.03873   0.06339
  Beta virt. eigenvalues --    0.07165   0.08892   0.09248   0.09555   0.09616

 Mulliken charges and spin densities:
               1          2
     1  C    0.918929   0.107503
     2  C   -0.040688   0.336742
     3  C   -0.472855   0.076531
     4  C   -0.040688   0.336742
     5  C   -0.750964   1.079005
     6  H    0.203649   0.042115
     7  H    0.182616   0.021362
 Sum of Mulliken charges =  -0.00000   2.00000

 Dipole moment (field-independent basis, Debye):
    X=              0.3540    Y=             -5.1802    Z=             -0.0000  Tot=              5.1923
 Quadrupole moment (field-independent basis, Debye-Ang):
   XX=            -28.0841   YY=            -35.1673   ZZ=            -32.2898
   XY=             -0.9098   XZ=             -0.0000   YZ=              0.0000

  Exact polarizability:  40.179   0.661 100.824  -0.000   0.000  49.637
 Approx polarizability:  58.976   6.704 181.188   0.000  -0.000 100.323

                      1                      2                      3
                     A'                     A"                     A'
 Frequencies --    157.3401               329.2819               406.5475
 Red. masses --      3.6356                 7.8697                10.5849
 Frc consts  --      0.0530                 0.5027                 1.0308
 IR Inten    --     62.3396                 2.3844                55.7018

                      4                      5                      6
                     A"                     A'                     A"
 Frequencies --    602.3794               610.3711               896.0831
 Red. masses --      7.3272                 9.5251                10.8173
 Frc consts  --      1.5665                 2.0908                 5.1176
 IR Inten    --     97.7462                14.7687                 0.5296

                      7                      8                      9
                     A"                     A'                     A'
 Frequencies --    980.1948               997.4929              1046.8906
 Red. masses --      1.1206                 5.1823                 1.5053
 Frc consts  --      0.6343                 3.0380                 0.9720
 IR Inten    --      2.9503                 7.1787                53.8636

                     10                     11                     12
                     A"                     A'                     A'
 Frequencies --   1101.4847              1250.0809              1489.8137
 Red. masses --      1.2698                 6.8936                 1.1427
 Frc consts  --      0.9077                 6.3471                 1.4943
 IR Inten    --      8.7589                 0.8866                 0.0620

                     13                     14                     15
                     A'                     A'                     A'
 Frequencies --   1584.0050              3059.5730              3150.8277
 Red. masses --      8.8724                 1.0591                 1.1069
 Frc consts  --     13.1161                 5.8415                 6.4744
 IR Inten    --     20.6200                 1.6607                 4.8243

 - Thermochemistry -
 -------------------
 Temperature   298.150 Kelvin.  Pressure   1.00000 Atm.
 Atom     1 has atomic number  6 and mass  12.00000

 Molecular mass:    62.01565 amu.
 Principal axes and moments of inertia in atomic units:
                           1         2         3
     Eigenvalues --    60.74472 392.19172 433.62698
           X           -0.04694   0.00000   0.99890
           Y            0.99890   0.00000   0.04694
           Z           -0.00000   1.00000  -0.00000
 This molecule is an asymmetric top.
 Rotational symmetry number  1.
 Rotational temperatures (Kelvin)      1.42587     0.22085     0.19974
 Rotational constants (GHZ):          29.71026     4.60168     4.16197
 Zero-point vibrational energy     105644.4 (Joules/Mol)
                                   25.24962 (Kcal/Mol)
 Warning -- explicit consideration of   5 degrees of freedom as
           vibrations may cause significant error
 Vibrational temperatures:    226.38   473.76   584.93   866.69   878.19
          (Kelvin)           1289.26  1410.28  1435.17  1506.24  1584.79
                             1798.59  2143.51  2279.03  4402.04  4533.33

 Zero-point correction=                           0.040238 (Hartree/Particle)
 Thermal correction to Energy=                    0.044911
 Thermal correction to Enthalpy=                  0.045856
 Thermal correction to Gibbs Free Energy=         0.012349
 Sum of electronic and zero-point Energies=           -191.380488
 Sum of electronic and thermal Energies=              -191.375815
 Sum of electronic and thermal Enthalpies=            -191.374870
 Sum of electronic and thermal Free Energies=         -191.408377

                     E (Thermal)             CV                S
                      KCal/Mol        Cal/Mol-Kelvin    Cal/Mol-Kelvin
 Total                   28.182             15.166             70.520
 Electronic               0.000              0.000              2.183
 Translational            0.889              2.981             38.294
 Rotational               0.889              2.981             23.850
 Vibrational             26.405              9.204              6.193
 Vibration     1          0.621              1.894              2.582
 Vibration     2          0.712              1.617              1.264
 Vibration     3          0.771              1.456              0.939
 Vibration     4          0.961              1.027              0.446
 Vibration     5          0.969              1.010              0.432

 Optimization completed.
    -- Stationary point found.
 Normal termination of Gaussian 09 at Sun Jun 19 01:52:07 2016.
