 Gaussian 09, Revision E.01,
 Gaussian 09:  EM64L-G09RevE.01 30-Nov-2015

 ---------------------------------------------
 #p b3lyp/6-311++G(3df,2p) freq symmetry=Loose
 ---------------------------------------------

 ---------
 b3lyp opt
 ---------
 Symbolic Z-matrix:
 Charge =  3 Multiplicity = 4

                         Standard orientation:
 ---------------------------------------------------------------------
 Center     Atomic      Atomic             Coordinates (Angstroms)
 Number     Number       Type             X           Y           Z
 ---------------------------------------------------------------------
      1          6           0        2.493354   -0.467214    0.006805
      2          6           0        1.269889   -0.063785   -0.007404
      3          6           0       -0.000163    0.585464   -0.000211
      4          6           0       -1.269558   -0.064309    0.007449
      5          6           0       -2.493269   -0.467151   -0.006822
      6          1           0        0.054541    1.431491   -0.819588
      7          1           0       -0.056056    1.430473    0.820686
 ---------------------------------------------------------------------

 SCF Done:  E(UB3LYP) =  -189.570693166     A.U. after   39 cycles

 The electronic state is 4-A.
 Alpha  occ. eigenvalues --  -11.07790 -11.07786 -11.01637 -11.01631 -10.97778
 Alpha  occ. eigenvalues --   -1.58207  -1.54041  -1.47887  -1.30990  -1.21827
 Alpha  occ. eigenvalues --   -1.14984  -1.12128  -1.11708  -1.06331  -1.05184
 Alpha  occ. eigenvalues --   -1.01345
 Alpha virt. eigenvalues --   -0.94870  -0.74645  -0.73976  -0.71057  -0.69820
 Alpha virt. eigenvalues --   -0.56981  -0.50230  -0.49871  -0.46362  -0.45471
 Alpha virt. eigenvalues --   -0.42692  -0.41293  -0.39985  -0.36925  -0.36217

  Beta  occ. eigenvalues --  -11.04868 -11.04863 -11.00950 -11.00947 -10.97882
  Beta  occ. eigenvalues --   -1.56617  -1.49917  -1.44878  -1.29274  -1.21518
  Beta  occ. eigenvalues --   -1.15015  -1.02317  -1.00813
  Beta virt. eigenvalues --   -0.91866  -0.89934  -0.87700  -0.87057  -0.69368
  Beta virt. eigenvalues --   -0.68683  -0.66013  -0.65353  -0.56093  -0.49569
  Beta virt. eigenvalues --   -0.49278  -0.45713  -0.45294  -0.41217  -0.40723

 Mulliken charges and spin densities:
               1          2
     1  C    0.582904   1.222760
     2  C    0.772738   0.282946
     3  C   -0.474829   0.042694
     4  C    0.772910   0.280845
     5  C    0.581806   1.221760
     6  H    0.382073  -0.025121
     7  H    0.382398  -0.025883
 Sum of Mulliken charges =   3.00000   3.00000

 Dipole moment (field-independent basis, Debye):
    X=             -0.0005    Y=              0.6662    Z=              0.0026  Tot=              0.6662
 Quadrupole moment (field-independent basis, Debye-Ang):
   XX=             36.2087   YY=            -12.5194   ZZ=            -18.5957
   XY=              0.0005   XZ=              0.3029   YZ=              0.0066

  Exact polarizability: 169.101   0.012  32.621   0.093   0.002  25.342
 Approx polarizability: 403.228   0.100  53.175 -10.056   0.007  36.671

                      1                      2                      3
                      A                      A                      A
 Frequencies --    145.8312               250.7386               274.2817
 Red. masses --      8.4412                 3.8256                 3.7019
 Frc consts  --      0.1058                 0.1417                 0.1641
 IR Inten    --      0.2682                23.4050                 7.5935

                      4                      5                      6
                      A                      A                      A
 Frequencies --    312.6939               484.8062               524.2569
 Red. masses --      7.6585                 2.3098                 7.0502
 Frc consts  --      0.4412                 0.3199                 1.1417
 IR Inten    --      0.0046                79.6136                46.2371

                      7                      8                      9
                      A                      A                      A
 Frequencies --    634.2105               699.1759               785.1899
 Red. masses --      1.2600                 2.6631                 4.7914
 Frc consts  --      0.2986                 0.7670                 1.7405
 IR Inten    --    295.3672                 8.7123                 0.3533

                     10                     11                     12
                      A                      A                      A
 Frequencies --    972.0405              1156.3019              1570.4129
 Red. masses --      1.0644                 2.2117                 7.1690
 Frc consts  --      0.5925                 1.7423                10.4169
 IR Inten    --     10.5728              1453.7188              3021.5796

                     13                     14                     15
                      A                      A                      A
 Frequencies --   1891.8227              2177.9171              2331.0033
 Red. masses --     11.1823                 1.0566                 1.0694
 Frc consts  --     23.5799                 2.9530                 3.4235
 IR Inten    --     19.9815               486.4393               769.7152

 - Thermochemistry -
 -------------------
 Temperature   298.150 Kelvin.  Pressure   1.00000 Atm.
 Atom     1 has atomic number  6 and mass  12.00000

 Molecular mass:    62.01565 amu.
 Principal axes and moments of inertia in atomic units:
                           1         2         3
     Eigenvalues --    52.87145 675.84396 719.01516
           X            1.00000  -0.00001  -0.00048
           Y            0.00001   1.00000   0.00006
           Z            0.00048  -0.00006   1.00000
 This molecule is an asymmetric top.
 Rotational symmetry number  1.
 Rotational temperatures (Kelvin)      1.63820     0.12816     0.12046
 Rotational constants (GHZ):          34.13452     2.67035     2.51002
 Zero-point vibrational energy      84998.8 (Joules/Mol)
                                   20.31519 (Kcal/Mol)
 Warning -- explicit consideration of   6 degrees of freedom as
           vibrations may cause significant error
 Vibrational temperatures:    209.82   360.76   394.63   449.90   697.53
          (Kelvin)            754.29   912.49  1005.96  1129.71  1398.55
                             1663.66  2259.47  2721.91  3133.53  3353.79

 Zero-point correction=                           0.032374 (Hartree/Particle)
 Thermal correction to Energy=                    0.038047
 Thermal correction to Enthalpy=                  0.038991
 Thermal correction to Gibbs Free Energy=         0.003091
 Sum of electronic and zero-point Energies=           -189.538319
 Sum of electronic and thermal Energies=              -189.532646
 Sum of electronic and thermal Enthalpies=            -189.531702
 Sum of electronic and thermal Free Energies=         -189.567602

                     E (Thermal)             CV                S
                      KCal/Mol        Cal/Mol-Kelvin    Cal/Mol-Kelvin
 Total                   23.875             18.677             75.557
 Electronic               0.000              0.000              2.755
 Translational            0.889              2.981             38.294
 Rotational               0.889              2.981             24.755
 Vibrational             22.097             12.715              9.753
 Vibration     1          0.617              1.907              2.726
 Vibration     2          0.663              1.762              1.725
 Vibration     3          0.677              1.721              1.569
 Vibration     4          0.701              1.649              1.348
 Vibration     5          0.841              1.284              0.697
 Vibration     6          0.879              1.196              0.600

 Normal termination of Gaussian 09 at Sun Jun 19 05:06:39 2016.
