 Gaussian 09, Revision E.01,
 Gaussian 09:  EM64L-G09RevE.01 30-Nov-2015

 ---------------------------------------------
 #p b3lyp/6-311++G(3df,2p) freq symmetry=Loose
 ---------------------------------------------

 ---------
 b3lyp opt
 ---------
 Symbolic Z-matrix:
 Charge =  0 Multiplicity = 3

                         Standard orientation:
 ---------------------------------------------------------------------
 Center     Atomic      Atomic             Coordinates (Angstroms)
 Number     Number       Type             X           Y           Z
 ---------------------------------------------------------------------
      1          6           0       -0.621980   -0.067987    0.025857
      2          6           0        0.595495    0.806414   -0.002806
      3          6           0        1.664922   -0.165883   -0.267626
      4          6           0        0.607980   -0.802263    0.248018
      5          6           0       -1.905521   -0.129858   -0.059300
      6          1           0       -2.775594    0.459651   -0.271702
      7          1           0        0.730212    1.697813    0.606837
 ---------------------------------------------------------------------

 SCF Done:  E(UB3LYP) =  -191.440885742     A.U. after   18 cycles

 The electronic state is 3-A.
 Alpha  occ. eigenvalues --  -10.28009 -10.26059 -10.25466 -10.22971 -10.21901
 Alpha  occ. eigenvalues --   -0.98451  -0.79591  -0.65751  -0.64281  -0.53320
 Alpha  occ. eigenvalues --   -0.49691  -0.43906  -0.41732  -0.32254  -0.29622
 Alpha  occ. eigenvalues --   -0.26690  -0.25109
 Alpha virt. eigenvalues --   -0.06935  -0.04476  -0.00737   0.00495   0.03183
 Alpha virt. eigenvalues --    0.04764   0.05082   0.05485   0.06047   0.07534
 Alpha virt. eigenvalues --    0.08716   0.08980   0.10559   0.11031   0.11599

  Beta  occ. eigenvalues --  -10.27068 -10.25627 -10.24929 -10.21644 -10.21499
  Beta  occ. eigenvalues --   -0.97421  -0.77663  -0.63812  -0.62180  -0.52079
  Beta  occ. eigenvalues --   -0.46182  -0.41761  -0.40163  -0.30107  -0.26349
  Beta virt. eigenvalues --   -0.15019  -0.11719  -0.05788  -0.02427  -0.00468
  Beta virt. eigenvalues --    0.00839   0.03766   0.05073   0.05571   0.06210
  Beta virt. eigenvalues --    0.07035   0.07727   0.09117   0.09573   0.11083

 Mulliken charges and spin densities:
               1          2
     1  C    0.309685  -0.231249
     2  C   -0.020559   0.546683
     3  C   -0.590418   0.037177
     4  C    0.240615   0.612196
     5  C   -0.366862   0.994682
     6  H    0.234519   0.007119
     7  H    0.193020   0.033392
 Sum of Mulliken charges =  -0.00000   2.00000

 Dipole moment (field-independent basis, Debye):
    X=             -2.5827    Y=              1.6253    Z=              0.5168  Tot=              3.0950
 Quadrupole moment (field-independent basis, Debye-Ang):
   XX=            -32.5467   YY=            -27.3491   ZZ=            -30.2484
   XY=             -0.3901   XZ=              2.0807   YZ=              0.9952

  Exact polarizability:  90.300   0.436  48.851  -3.153  -1.203  39.071
 Approx polarizability: 160.216   2.710  85.069  -9.896  -5.175  58.180

                      1                      2                      3
                      A                      A                      A
 Frequencies --    249.1275               333.7135               486.1460
 Red. masses --      6.2468                 2.5851                 7.4379
 Frc consts  --      0.2284                 0.1696                 1.0357
 IR Inten    --     25.8365                12.6739                25.7569

                      4                      5                      6
                      A                      A                      A
 Frequencies --    604.8119               635.2303               668.4854
 Red. masses --      1.7648                 3.1157                 4.1132
 Frc consts  --      0.3803                 0.7407                 1.0830
 IR Inten    --     44.3274                14.1969                58.8946

                      7                      8                      9
                      A                      A                      A
 Frequencies --    692.1971               810.3252               946.3762
 Red. masses --      1.8148                 2.5136                 2.0196
 Frc consts  --      0.5123                 0.9724                 1.0657
 IR Inten    --     30.6136                15.2763                 9.2591

                     10                     11                     12
                      A                      A                      A
 Frequencies --    997.4987              1107.5603              1423.9558
 Red. masses --      5.8304                 1.2289                10.3057
 Frc consts  --      3.4180                 0.8882                12.3118
 IR Inten    --      5.0192                 0.7619                 9.6943

                     13                     14                     15
                      A                      A                      A
 Frequencies --   1745.6261              3096.3936              3309.2772
 Red. masses --      8.0510                 1.0891                 1.1079
 Frc consts  --     14.4545                 6.1520                 7.1483
 IR Inten    --     22.6346                 1.8831                20.4710

 - Thermochemistry -
 -------------------
 Temperature   298.150 Kelvin.  Pressure   1.00000 Atm.
 Atom     1 has atomic number  6 and mass  12.00000

 Molecular mass:    62.01565 amu.
 Principal axes and moments of inertia in atomic units:
                           1         2         3
     Eigenvalues --    75.83694 358.70612 420.05063
           X            0.99992  -0.00212   0.01214
           Y            0.00148   0.99860   0.05296
           Z           -0.01223  -0.05294   0.99852
 This molecule is an asymmetric top.
 Rotational symmetry number  1.
 Rotational temperatures (Kelvin)      1.14211     0.24146     0.20620
 Rotational constants (GHZ):          23.79765     5.03125     4.29648
 Zero-point vibrational energy     102320.9 (Joules/Mol)
                                   24.45529 (Kcal/Mol)
 Warning -- explicit consideration of   4 degrees of freedom as
           vibrations may cause significant error
 Vibrational temperatures:    358.44   480.14   699.45   870.19   913.95
          (Kelvin)            961.80   995.92  1165.88  1361.62  1435.18
                             1593.53  2048.75  2511.56  4455.01  4761.31

 Zero-point correction=                           0.038972 (Hartree/Particle)
 Thermal correction to Energy=                    0.043638
 Thermal correction to Enthalpy=                  0.044582
 Thermal correction to Gibbs Free Energy=         0.011282
 Sum of electronic and zero-point Energies=           -191.401914
 Sum of electronic and thermal Energies=              -191.397248
 Sum of electronic and thermal Enthalpies=            -191.396304
 Sum of electronic and thermal Free Energies=         -191.429604

                     E (Thermal)             CV                S
                      KCal/Mol        Cal/Mol-Kelvin    Cal/Mol-Kelvin
 Total                   27.383             16.185             70.086
 Electronic               0.000              0.000              2.183
 Translational            0.889              2.981             38.294
 Rotational               0.889              2.981             23.950
 Vibrational             25.606             10.224              5.658
 Vibration     1          0.662              1.764              1.737
 Vibration     2          0.715              1.608              1.242
 Vibration     3          0.842              1.281              0.694
 Vibration     4          0.963              1.022              0.441

 Normal termination of Gaussian 09 at Sun Jun 19 01:54:27 2016.
