 Gaussian 09, Revision E.01,
 Gaussian 09:  EM64L-G09RevE.01 30-Nov-2015

 ---------------------------------------------
 #p b3lyp/6-311++G(3df,2p) freq symmetry=Loose
 ---------------------------------------------

 ---------
 b3lyp opt
 ---------
 Symbolic Z-matrix:
 Charge =  1 Multiplicity = 4

                         Standard orientation:
 ---------------------------------------------------------------------
 Center     Atomic      Atomic             Coordinates (Angstroms)
 Number     Number       Type             X           Y           Z
 ---------------------------------------------------------------------
      1          6           0        0.525935   -0.188720    0.000052
      2          6           0       -0.657330   -1.010278    0.000060
      3          6           0       -1.366891    0.234130   -0.000108
      4          6           0       -0.248592    1.094652   -0.000124
      5          6           0        1.892625   -0.142858    0.000132
      6          1           0       -0.869820   -2.064991    0.000151
      7          1           0       -0.004659    2.143440   -0.000213
 ---------------------------------------------------------------------

 SCF Done:  E(UB3LYP) =  -191.094352911     A.U. after   19 cycles

 The electronic state is 4-A.
 Alpha  occ. eigenvalues --  -10.54795 -10.53341 -10.50544 -10.49302 -10.48326
 Alpha  occ. eigenvalues --   -1.20619  -1.03285  -0.94927  -0.81109  -0.79527
 Alpha  occ. eigenvalues --   -0.70827  -0.69103  -0.67619  -0.59112  -0.54490
 Alpha  occ. eigenvalues --   -0.52461  -0.47767
 Alpha virt. eigenvalues --   -0.37705  -0.32001  -0.19363  -0.14932  -0.13837
 Alpha virt. eigenvalues --   -0.13046  -0.12447  -0.10311  -0.09106  -0.07421
 Alpha virt. eigenvalues --   -0.06253  -0.06027  -0.05349  -0.03880  -0.03087

  Beta  occ. eigenvalues --  -10.53899 -10.51476 -10.50337 -10.48236 -10.47164
  Beta  occ. eigenvalues --   -1.17689  -0.99880  -0.91568  -0.77966  -0.76556
  Beta  occ. eigenvalues --   -0.68812  -0.66577  -0.62952  -0.56031
  Beta virt. eigenvalues --   -0.42845  -0.37281  -0.35203  -0.34573  -0.25532
  Beta virt. eigenvalues --   -0.14501  -0.14475  -0.13226  -0.12179  -0.11839
  Beta virt. eigenvalues --   -0.08930  -0.08679  -0.06919  -0.05442  -0.05182

 Mulliken charges and spin densities:
               1          2
     1  C    0.775961   0.101601
     2  C   -0.113613   0.715891
     3  C    0.347247   1.051401
     4  C   -0.361170   0.678859
     5  C   -0.284577   0.489586
     6  H    0.320248  -0.018965
     7  H    0.315904  -0.018373
 Sum of Mulliken charges =   1.00000   3.00000

 Dipole moment (field-independent basis, Debye):
    X=             -0.8021    Y=             -0.0957    Z=             -0.0000  Tot=              0.8078
 Quadrupole moment (field-independent basis, Debye-Ang):
   XX=            -22.8453   YY=            -15.9983   ZZ=            -26.7340
   XY=              0.7094   XZ=              0.0002   YZ=             -0.0010

  Exact polarizability:  65.722  -0.416  48.006   0.002  -0.002  30.457
 Approx polarizability: 132.540  -6.224  80.494   0.006  -0.004  44.482

                      1                      2                      3
                      A                      A                      A
 Frequencies --     87.7231               129.9981               521.0142
 Red. masses --     11.7448                 6.9005                 1.6428
 Frc consts  --      0.0533                 0.0687                 0.2627
 IR Inten    --      1.1680                 5.3499                17.3693

                      4                      5                      6
                      A                      A                      A
 Frequencies --    569.8710               614.1309               699.2791
 Red. masses --      1.3177                 2.2885                 7.5860
 Frc consts  --      0.2521                 0.5085                 2.1856
 IR Inten    --      2.4270                56.1079                 2.2728

                      7                      8                      9
                      A                      A                      A
 Frequencies --    838.3920               937.6776              1082.2446
 Red. masses --      3.7632                 3.9464                 1.7787
 Frc consts  --      1.5585                 2.0444                 1.2275
 IR Inten    --      8.8194                22.8561                 4.3817

                     10                     11                     12
                      A                      A                      A
 Frequencies --   1120.2871              1157.2669              1262.4354
 Red. masses --      2.4311                 2.2145                 3.5196
 Frc consts  --      1.7977                 1.7474                 3.3049
 IR Inten    --     27.4534                25.2834                46.5744

                     13                     14                     15
                      A                      A                      A
 Frequencies --   1470.3477              3269.0840              3279.9032
 Red. masses --     10.8938                 1.0953                 1.1054
 Frc consts  --     13.8762                 6.8965                 7.0063
 IR Inten    --    135.4502               147.1785                14.8991

 - Thermochemistry -
 -------------------
 Temperature   298.150 Kelvin.  Pressure   1.00000 Atm.
 Atom     1 has atomic number  6 and mass  12.00000

 Molecular mass:    62.01565 amu.
 Principal axes and moments of inertia in atomic units:
                           1         2         3
     Eigenvalues --   131.42824 269.55313 400.98137
           X            0.99895   0.04584  -0.00006
           Y           -0.04584   0.99895   0.00010
           Z            0.00007  -0.00010   1.00000
 This molecule is an asymmetric top.
 Rotational symmetry number  1.
 Rotational temperatures (Kelvin)      0.65902     0.32132     0.21600
 Rotational constants (GHZ):          13.73176     6.69531     4.50081
 Zero-point vibrational energy     101919.8 (Joules/Mol)
                                   24.35941 (Kcal/Mol)
 Warning -- explicit consideration of   5 degrees of freedom as
           vibrations may cause significant error
 Vibrational temperatures:    126.21   187.04   749.62   819.92   883.60
          (Kelvin)           1006.11  1206.26  1349.11  1557.11  1611.84
                             1665.05  1816.36  2115.50  4703.48  4719.04

 Zero-point correction=                           0.038819 (Hartree/Particle)
 Thermal correction to Energy=                    0.043944
 Thermal correction to Enthalpy=                  0.044888
 Thermal correction to Gibbs Free Energy=         0.009617
 Sum of electronic and zero-point Energies=           -191.055534
 Sum of electronic and thermal Energies=              -191.050409
 Sum of electronic and thermal Enthalpies=            -191.049465
 Sum of electronic and thermal Free Energies=         -191.084736

                     E (Thermal)             CV                S
                      KCal/Mol        Cal/Mol-Kelvin    Cal/Mol-Kelvin
 Total                   27.575             16.059             74.234
 Electronic               0.000              0.000              2.755
 Translational            0.889              2.981             38.294
 Rotational               0.889              2.981             24.167
 Vibrational             25.798             10.097              9.019
 Vibration     1          0.601              1.958              3.710
 Vibration     2          0.612              1.923              2.946
 Vibration     3          0.876              1.203              0.608
 Vibration     4          0.926              1.096              0.504
 Vibration     5          0.974              1.002              0.426

 Optimization completed.
    -- Stationary point found.
 Normal termination of Gaussian 09 at Tue Jul 19 11:28:48 2016.
