 Gaussian 09, Revision E.01,
 Gaussian 09:  EM64L-G09RevE.01 30-Nov-2015

 ---------------------------------------------
 #p b3lyp/6-311++G(3df,2p) freq symmetry=Loose
 ---------------------------------------------

 ---------
 b3lyp opt
 ---------
 Symbolic Z-matrix:
 Charge =  1 Multiplicity = 4

                         Standard orientation:
 ---------------------------------------------------------------------
 Center     Atomic      Atomic             Coordinates (Angstroms)
 Number     Number       Type             X           Y           Z
 ---------------------------------------------------------------------
      1          6           0        0.286654    1.485072    0.675721
      2          6           0       -0.405722    0.296710    0.000000
      3          6           0        0.286654   -1.013459   -0.000000
      4          6           0       -0.433153   -2.110582    0.000000
      5          6           0        0.286654    1.485072   -0.675721
      6          1           0        1.373974   -1.119010   -0.000000
      7          1           0       -1.500498    0.262135    0.000000
 ---------------------------------------------------------------------

 SCF Done:  E(UB3LYP) =  -191.002039852     A.U. after   20 cycles

 The electronic state is 4-A".
 Alpha  occ. eigenvalues --  -10.55660 -10.55584 -10.52015 -10.51214 -10.44799
 Alpha  occ. eigenvalues --   -1.20914  -1.05950  -0.89480  -0.80845  -0.78138
 Alpha  occ. eigenvalues --   -0.72009  -0.69757  -0.61435  -0.58616  -0.58469
 Alpha  occ. eigenvalues --   -0.55742  -0.50483
 Alpha virt. eigenvalues --   -0.35106  -0.31713  -0.23727  -0.15344  -0.14202
 Alpha virt. eigenvalues --   -0.13977  -0.12400  -0.11207  -0.09003  -0.08520
 Alpha virt. eigenvalues --   -0.06982  -0.05813  -0.05584  -0.05196  -0.03445

  Beta  occ. eigenvalues --  -10.53527 -10.53470 -10.51492 -10.50490 -10.44697
  Beta  occ. eigenvalues --   -1.17127  -1.04436  -0.86340  -0.79147  -0.70314
  Beta  occ. eigenvalues --   -0.70128  -0.65832  -0.54198  -0.52677
  Beta virt. eigenvalues --   -0.45844  -0.43899  -0.38539  -0.34126  -0.25418
  Beta virt. eigenvalues --   -0.20624  -0.14946  -0.13691  -0.11628  -0.11227
  Beta virt. eigenvalues --   -0.09850  -0.08516  -0.08069  -0.06342  -0.05346

 Mulliken charges and spin densities:
               1          2
     1  C    0.123801   1.258850
     2  C    0.380084  -0.069202
     3  C    0.150857   0.113708
     4  C   -0.299790   0.394001
     5  C    0.123801   1.258850
     6  H    0.239297   0.004366
     7  H    0.281950   0.039427
 Sum of Mulliken charges =   1.00000   3.00000

 Dipole moment (field-independent basis, Debye):
    X=              0.2959    Y=              1.1720    Z=              0.0000  Tot=              1.2088
 Quadrupole moment (field-independent basis, Debye-Ang):
   XX=            -21.5513   YY=            -18.8026   ZZ=            -26.2926
   XY=             -2.0066   XZ=              0.0000   YZ=             -0.0000

  Exact polarizability:  41.303  19.369 131.368   0.000   0.000  43.949
 Approx polarizability:  73.171  64.412 337.155  -0.000  -0.000  81.417

                      1                      2                      3
                     A"                     A'                     A'
 Frequencies --    133.3239               174.0051               343.2391
 Red. masses --      5.0269                 7.7260                 6.3695
 Frc consts  --      0.0526                 0.1378                 0.4421
 IR Inten    --      1.7992                 9.8398                17.4490

                      4                      5                      6
                     A"                     A"                     A"
 Frequencies --    353.0344               620.0998               708.6020
 Red. masses --      3.9889                 3.2761                 2.4365
 Frc consts  --      0.2929                 0.7422                 0.7208
 IR Inten    --      2.2935                 5.3087                 0.9231

                      7                      8                      9
                     A'                     A"                     A'
 Frequencies --    851.6517               898.4594               924.9071
 Red. masses --      7.3328                 1.2069                 5.5899
 Frc consts  --      3.1336                 0.5740                 2.8174
 IR Inten    --     70.8689                92.5259                50.8313

                     10                     11                     12
                     A'                     A'                     A'
 Frequencies --    996.9100              1239.5723              1341.2436
 Red. masses --      1.2450                 1.1222                 8.7540
 Frc consts  --      0.7290                 1.0159                 9.2784
 IR Inten    --    106.2353                26.9020               299.0017

                     13                     14                     15
                     A'                     A'                     A'
 Frequencies --   1582.9078              3011.2944              3092.8705
 Red. masses --      8.8005                 1.0779                 1.0865
 Frc consts  --     12.9918                 5.7589                 6.1238
 IR Inten    --     44.8041                48.2556                83.6519

 - Thermochemistry -
 -------------------
 Temperature   298.150 Kelvin.  Pressure   1.00000 Atm.
 Atom     1 has atomic number  6 and mass  12.00000

 Molecular mass:    62.01565 amu.
 Principal axes and moments of inertia in atomic units:
                           1         2         3
     Eigenvalues --    73.13373 472.96172 478.09412
           X            0.12721   0.00000   0.99188
           Y            0.99188   0.00000  -0.12721
           Z           -0.00000   1.00000  -0.00000
 This molecule is an asymmetric top.
 Rotational symmetry number  1.
 Rotational temperatures (Kelvin)      1.18432     0.18313     0.18116
 Rotational constants (GHZ):          24.67728     3.81583     3.77487
 Zero-point vibrational energy      97328.9 (Joules/Mol)
                                   23.26216 (Kcal/Mol)
 Warning -- explicit consideration of   5 degrees of freedom as
           vibrations may cause significant error
 Vibrational temperatures:    191.82   250.35   493.84   507.94   892.18
          (Kelvin)           1019.52  1225.34  1292.68  1330.73  1434.33
                             1783.47  1929.75  2277.45  4332.58  4449.95

 Zero-point correction=                           0.037071 (Hartree/Particle)
 Thermal correction to Energy=                    0.042397
 Thermal correction to Enthalpy=                  0.043341
 Thermal correction to Gibbs Free Energy=         0.008031
 Sum of electronic and zero-point Energies=           -190.964969
 Sum of electronic and thermal Energies=              -190.959643
 Sum of electronic and thermal Enthalpies=            -190.958699
 Sum of electronic and thermal Free Energies=         -190.994009

                     E (Thermal)             CV                S
                      KCal/Mol        Cal/Mol-Kelvin    Cal/Mol-Kelvin
 Total                   26.604             17.001             74.315
 Electronic               0.000              0.000              2.755
 Translational            0.889              2.981             38.294
 Rotational               0.889              2.981             24.318
 Vibrational             24.827             11.040              8.949
 Vibration     1          0.613              1.920              2.898
 Vibration     2          0.627              1.874              2.392
 Vibration     3          0.722              1.589              1.197
 Vibration     4          0.729              1.569              1.153
 Vibration     5          0.980              0.989              0.416

 Optimization completed.
    -- Stationary point found.
 Normal termination of Gaussian 09 at Tue Jul 19 13:16:16 2016.
