 Gaussian 09, Revision E.01,
 Gaussian 09:  EM64L-G09RevE.01 30-Nov-2015

 ---------------------------------------------
 #p b3lyp/6-311++G(3df,2p) freq symmetry=Loose
 ---------------------------------------------

 ---------
 b3lyp opt
 ---------
 Symbolic Z-matrix:
 Charge =  3 Multiplicity = 4

                         Standard orientation:
 ---------------------------------------------------------------------
 Center     Atomic      Atomic             Coordinates (Angstroms)
 Number     Number       Type             X           Y           Z
 ---------------------------------------------------------------------
      1          6           0       -0.000000    0.690452    0.000000
      2          6           0        0.828003   -0.551629   -0.000000
      3          6           0        0.000124   -1.682740   -0.000000
      4          6           0       -0.827947   -0.551818    0.000000
      5          6           0       -0.000097    2.036759    0.000000
      6          1           0       -0.000756    3.161605    0.000000
      7          1           0        0.000264   -2.807744   -0.000000
 ---------------------------------------------------------------------

 SCF Done:  E(UB3LYP) =  -189.706606832     A.U. after   15 cycles

 The electronic state is 4-A".
 Alpha  occ. eigenvalues --  -11.13348 -11.13336 -11.08090 -11.05100 -11.04876
 Alpha  occ. eigenvalues --   -1.78189  -1.57582  -1.44391  -1.37362  -1.25279
 Alpha  occ. eigenvalues --   -1.22839  -1.22193  -1.21150  -1.13111  -1.06354
 Alpha  occ. eigenvalues --   -1.00793
 Alpha virt. eigenvalues --   -0.87822  -0.83534  -0.82686  -0.68962  -0.63399
 Alpha virt. eigenvalues --   -0.55273  -0.53014  -0.50971  -0.49307  -0.47771
 Alpha virt. eigenvalues --   -0.45825  -0.44064  -0.40838  -0.40290  -0.39622

  Beta  occ. eigenvalues --  -11.11869 -11.11864 -11.07390 -11.04433 -11.03198
  Beta  occ. eigenvalues --   -1.76511  -1.52917  -1.41077  -1.32183  -1.23386
  Beta  occ. eigenvalues --   -1.20770  -1.20484  -1.17508
  Beta virt. eigenvalues --   -0.95880  -0.94380  -0.84942  -0.84643  -0.78018
  Beta virt. eigenvalues --   -0.73291  -0.63439  -0.59955  -0.53537  -0.51643
  Beta virt. eigenvalues --   -0.50016  -0.46855  -0.45085  -0.44910  -0.43653

 Mulliken charges and spin densities:
               1          2
     1  C   -0.309968   0.693650
     2  C    1.389969   0.357998
     3  C   -0.542643   0.405739
     4  C    1.389723   0.358222
     5  C    0.102544   1.200396
     6  H    0.514838  -0.028669
     7  H    0.455538   0.012664
 Sum of Mulliken charges =   3.00000   3.00000

 Dipole moment (field-independent basis, Debye):
    X=             -0.0006    Y=              0.9468    Z=              0.0000  Tot=              0.9468
 Quadrupole moment (field-independent basis, Debye-Ang):
   XX=            -15.6772   YY=             29.3530   ZZ=            -20.6350
   XY=             -0.0057   XZ=              0.0000   YZ=              0.0000

  Exact polarizability:  28.663  -0.003  69.143  -0.000  -0.000  20.282
 Approx polarizability:  64.443  -0.000 129.272  -0.000   0.000  31.006

                      1                      2                      3
                     A"                     A'                     A'
 Frequencies --    200.5981               318.2007               378.7354
 Red. masses --      3.5956                 1.3378                 5.2865
 Frc consts  --      0.0852                 0.0798                 0.4468
 IR Inten    --     20.1228                40.9216                 6.5835

                      4                      5                      6
                     A"                     A'                     A'
 Frequencies --    478.0707               524.6718               686.7614
 Red. masses --      5.3620                 3.8420                 7.6809
 Frc consts  --      0.7220                 0.6231                 2.1344
 IR Inten    --      9.4505                 6.7317                 0.0290

                      7                      8                      9
                     A"                     A"                     A'
 Frequencies --    735.6248               821.0450               905.4435
 Red. masses --      1.3817                 1.2649                 9.7997
 Frc consts  --      0.4405                 0.5024                 4.7335
 IR Inten    --      9.2286                34.0270                97.3933

                     10                     11                     12
                     A'                     A'                     A'
 Frequencies --    985.9655               997.0624              1336.7012
 Red. masses --      1.3759                 6.3931                 6.6921
 Frc consts  --      0.7881                 3.7446                 7.0450
 IR Inten    --     39.8389                41.4140               187.0408

                     13                     14                     15
                     A'                     A'                     A'
 Frequencies --   1558.6382              2810.0082              2838.7732
 Red. masses --      7.3956                 1.1274                 1.1307
 Frc consts  --     10.5856                 5.2452                 5.3685
 IR Inten    --     39.8138              1072.4267               495.6132

 - Thermochemistry -
 -------------------
 Temperature   298.150 Kelvin.  Pressure   1.00000 Atm.
 Atom     1 has atomic number  6 and mass  12.00000

 Molecular mass:    62.01565 amu.
 Principal axes and moments of inertia in atomic units:
                           1         2         3
     Eigenvalues --    58.75481 409.97020 468.72501
           X           -0.00007   1.00000   0.00000
           Y            1.00000   0.00007   0.00000
           Z            0.00000   0.00000   1.00000
 This molecule is an asymmetric top.
 Rotational symmetry number  1.
 Rotational temperatures (Kelvin)      1.47416     0.21127     0.18479
 Rotational constants (GHZ):          30.71648     4.40213     3.85032
 Zero-point vibrational energy      93167.0 (Joules/Mol)
                                   22.26744 (Kcal/Mol)
 Warning -- explicit consideration of   5 degrees of freedom as
           vibrations may cause significant error
 Vibrational temperatures:    288.62   457.82   544.92   687.84   754.88
          (Kelvin)            988.10  1058.40  1181.30  1302.73  1418.58
                             1434.55  1923.21  2242.53  4042.97  4084.36

 Zero-point correction=                           0.035485 (Hartree/Particle)
 Thermal correction to Energy=                    0.040486
 Thermal correction to Enthalpy=                  0.041430
 Thermal correction to Gibbs Free Energy=         0.007251
 Sum of electronic and zero-point Energies=           -189.671121
 Sum of electronic and thermal Energies=              -189.666121
 Sum of electronic and thermal Enthalpies=            -189.665177
 Sum of electronic and thermal Free Energies=         -189.699356

                     E (Thermal)             CV                S
                      KCal/Mol        Cal/Mol-Kelvin    Cal/Mol-Kelvin
 Total                   25.405             17.142             71.935
 Electronic               0.000              0.000              2.755
 Translational            0.889              2.981             38.294
 Rotational               0.889              2.981             23.939
 Vibrational             23.628             11.180              6.948
 Vibration     1          0.638              1.839              2.128
 Vibration     2          0.705              1.639              1.319
 Vibration     3          0.749              1.515              1.044
 Vibration     4          0.835              1.299              0.715
 Vibration     5          0.880              1.195              0.599

 Optimization completed.
    -- Stationary point found.
 Normal termination of Gaussian 09 at Tue Jul 19 10:28:05 2016.
