 Gaussian 09, Revision E.01,
 Gaussian 09:  EM64L-G09RevE.01 30-Nov-2015

 ---------------------------------------------
 #p b3lyp/6-311++G(3df,2p) freq symmetry=Loose
 ---------------------------------------------

 ---------
 b3lyp opt
 ---------
 Symbolic Z-matrix:
 Charge =  3 Multiplicity = 2

                         Standard orientation:
 ---------------------------------------------------------------------
 Center     Atomic      Atomic             Coordinates (Angstroms)
 Number     Number       Type             X           Y           Z
 ---------------------------------------------------------------------
      1          6           0       -0.763636    0.000029    0.391831
      2          6           0        0.501572    0.772472    0.062319
      3          6           0        1.608779   -0.000015   -0.201533
      4          6           0        0.501572   -0.772463    0.062434
      5          6           0       -2.116608   -0.000036   -0.487236
      6          1           0        2.708771   -0.000033   -0.443153
      7          1           0       -1.098852    0.000110    1.476252
 ---------------------------------------------------------------------

 SCF Done:  E(UB3LYP) =  -189.642850759     A.U. after   22 cycles

 The electronic state is 2-A.
 Alpha  occ. eigenvalues --  -11.17757 -11.11941 -11.11918 -11.04099 -11.03070
 Alpha  occ. eigenvalues --   -1.78492  -1.54271  -1.40661  -1.34494  -1.26533
 Alpha  occ. eigenvalues --   -1.22274  -1.19214  -1.15058  -1.11671  -1.06202
 Alpha virt. eigenvalues --   -0.91340  -0.89101  -0.85457  -0.79446  -0.77004
 Alpha virt. eigenvalues --   -0.61613  -0.55307  -0.53215  -0.52687  -0.48654
 Alpha virt. eigenvalues --   -0.47736  -0.47621  -0.43536  -0.42995  -0.41037

  Beta  occ. eigenvalues --  -11.17752 -11.10666 -11.10653 -11.04201 -11.03218
  Beta  occ. eigenvalues --   -1.77479  -1.54317  -1.40447  -1.29840  -1.26157
  Beta  occ. eigenvalues --   -1.21547  -1.18771  -1.14518  -1.06116
  Beta virt. eigenvalues --   -0.95980  -0.90552  -0.89015  -0.82712  -0.76790
  Beta virt. eigenvalues --   -0.74604  -0.61337  -0.54139  -0.52797  -0.52353
  Beta virt. eigenvalues --   -0.47816  -0.47216  -0.47110  -0.43115  -0.42665

 Mulliken charges and spin densities:
               1          2
     1  C    0.085684  -0.195709
     2  C    0.700408   0.637389
     3  C    0.066380  -0.136859
     4  C    0.700408   0.637389
     5  C    0.644164   0.026525
     6  H    0.448775   0.026791
     7  H    0.354181   0.004474
 Sum of Mulliken charges =   3.00000   1.00000

 Dipole moment (field-independent basis, Debye):
    X=             -0.8541    Y=             -0.0000    Z=             -0.0687  Tot=              0.8569
 Quadrupole moment (field-independent basis, Debye-Ang):
   XX=             16.7633   YY=            -16.0059   ZZ=            -16.3000
   XY=             -0.0001   XZ=             -1.9261   YZ=             -0.0000

  Exact polarizability:  53.439  -0.000  29.851  -0.361  -0.000  26.569
 Approx polarizability:  88.076  -0.000  69.653  -0.830  -0.002  43.161

                      1                      2                      3
                      A                      A                      A
 Frequencies --    245.0097               311.7466               437.6205
 Red. masses --      5.5926                 8.2351                 6.6037
 Frc consts  --      0.1978                 0.4715                 0.7451
 IR Inten    --      1.0935                 0.3843                 5.7236

                      4                      5                      6
                      A                      A                      A
 Frequencies --    463.2722               618.1676               789.7678
 Red. masses --      7.2517                 5.6405                 1.2620
 Frc consts  --      0.9170                 1.2699                 0.4638
 IR Inten    --     69.7642               147.0516                65.7540

                      7                      8                      9
                      A                      A                      A
 Frequencies --    839.1167               907.4449               982.4240
 Red. masses --      2.8695                 6.9440                 1.3172
 Frc consts  --      1.1904                 3.3690                 0.7490
 IR Inten    --     21.9117                90.2265                62.2055

                     10                     11                     12
                      A                      A                      A
 Frequencies --   1034.8514              1077.9163              1234.4540
 Red. masses --      1.5322                 3.8412                 1.4865
 Frc consts  --      0.9668                 2.6296                 1.3346
 IR Inten    --      5.0756                24.2590                52.8702

                     13                     14                     15
                      A                      A                      A
 Frequencies --   1506.6742              2657.9557              2796.3542
 Red. masses --      6.6688                 1.0823                 1.1315
 Frc consts  --      8.9195                 4.5049                 5.2129
 IR Inten    --     66.9696               387.3835               702.6322

 - Thermochemistry -
 -------------------
 Temperature   298.150 Kelvin.  Pressure   1.00000 Atm.
 Atom     1 has atomic number  6 and mass  12.00000

 Molecular mass:    62.01565 amu.
 Principal axes and moments of inertia in atomic units:
                           1         2         3
     Eigenvalues --    78.17913 407.36488 431.46779
           X            0.99961  -0.00000  -0.02805
           Y            0.00000   1.00000   0.00007
           Z            0.02805  -0.00007   0.99961
 This molecule is an asymmetric top.
 Rotational symmetry number  1.
 Rotational temperatures (Kelvin)      1.10789     0.21262     0.20074
 Rotational constants (GHZ):          23.08469     4.43028     4.18279
 Zero-point vibrational energy      95119.7 (Joules/Mol)
                                   22.73416 (Kcal/Mol)
 Warning -- explicit consideration of   5 degrees of freedom as
           vibrations may cause significant error
 Vibrational temperatures:    352.51   448.53   629.64   666.54   889.40
          (Kelvin)           1136.30  1207.30  1305.61  1413.49  1488.92
                             1550.88  1776.10  2167.77  3824.20  4023.33

 Zero-point correction=                           0.036229 (Hartree/Particle)
 Thermal correction to Energy=                    0.040958
 Thermal correction to Enthalpy=                  0.041903
 Thermal correction to Gibbs Free Energy=         0.008757
 Sum of electronic and zero-point Energies=           -189.606622
 Sum of electronic and thermal Energies=              -189.601892
 Sum of electronic and thermal Enthalpies=            -189.600948
 Sum of electronic and thermal Free Energies=         -189.634094

                     E (Thermal)             CV                S
                      KCal/Mol        Cal/Mol-Kelvin    Cal/Mol-Kelvin
 Total                   25.702             16.138             69.761
 Electronic               0.000              0.000              1.377
 Translational            0.889              2.981             38.294
 Rotational               0.889              2.981             24.134
 Vibrational             23.924             10.177              5.956
 Vibration     1          0.660              1.771              1.766
 Vibration     2          0.700              1.651              1.353
 Vibration     3          0.798              1.388              0.834
 Vibration     4          0.821              1.332              0.757
 Vibration     5          0.978              0.994              0.419

 Optimization completed.
    -- Stationary point found.
 Normal termination of Gaussian 09 at Tue Jul 19 07:42:10 2016.
