 Gaussian 09, Revision E.01,
 Gaussian 09:  EM64L-G09RevE.01 30-Nov-2015

 ---------------------------------------------
 #p b3lyp/6-311++G(3df,2p) freq symmetry=Loose
 ---------------------------------------------

 ---------
 b3lyp opt
 ---------
 Symbolic Z-matrix:
 Charge =  3 Multiplicity = 2

                         Standard orientation:
 ---------------------------------------------------------------------
 Center     Atomic      Atomic             Coordinates (Angstroms)
 Number     Number       Type             X           Y           Z
 ---------------------------------------------------------------------
      1          6           0       -2.276978   -0.820379    0.000000
      2          6           0       -1.132547   -0.230386    0.000000
      3          6           0        0.000000    0.539885   -0.000000
      4          6           0        1.352591    0.239993    0.000000
      5          6           0        2.636816    0.218768    0.000000
      6          1           0       -3.262756   -1.351487    0.000000
      7          1           0       -0.216541    1.664199   -0.000000
 ---------------------------------------------------------------------

 SCF Done:  E(UB3LYP) =  -189.730003408     A.U. after   26 cycles

 The electronic state is 2-A'.
 Alpha  occ. eigenvalues --  -11.08984 -11.02736 -11.01278 -10.99959 -10.99636
 Alpha  occ. eigenvalues --   -1.57652  -1.52500  -1.46574  -1.32855  -1.21782
 Alpha  occ. eigenvalues --   -1.19746  -1.11793  -1.09022  -1.04895  -1.02683
 Alpha virt. eigenvalues --   -0.92560  -0.87153  -0.73389  -0.70440  -0.68698
 Alpha virt. eigenvalues --   -0.59263  -0.55673  -0.50223  -0.47307  -0.45347
 Alpha virt. eigenvalues --   -0.43652  -0.40868  -0.39781  -0.38664  -0.37695

  Beta  occ. eigenvalues --  -11.07211 -11.01899 -11.01299 -11.00544 -10.98927
  Beta  occ. eigenvalues --   -1.57618  -1.51628  -1.45328  -1.32399  -1.20962
  Beta  occ. eigenvalues --   -1.19780  -1.09093  -1.04996  -1.01603
  Beta virt. eigenvalues --   -0.91111  -0.89536  -0.85701  -0.72172  -0.68716
  Beta virt. eigenvalues --   -0.67109  -0.58467  -0.54894  -0.49615  -0.47250
  Beta virt. eigenvalues --   -0.45524  -0.43256  -0.40870  -0.39375  -0.38623

 Mulliken charges and spin densities:
               1          2
     1  C    0.522799   0.495024
     2  C    0.333354   0.472250
     3  C    0.057483   0.013201
     4  C    0.755619  -0.555925
     5  C    0.499287   0.590461
     6  H    0.502230  -0.013926
     7  H    0.329230  -0.001085
 Sum of Mulliken charges =   3.00000   1.00000

 Dipole moment (field-independent basis, Debye):
    X=             -0.8952    Y=             -0.4873    Z=             -0.0000  Tot=              1.0192
 Quadrupole moment (field-independent basis, Debye-Ang):
   XX=             47.6719   YY=             -9.9368   ZZ=            -22.2134
   XY=             15.3011   XZ=             -0.0000   YZ=              0.0000

  Exact polarizability:  94.354  16.191  32.329   0.001   0.001  21.698
 Approx polarizability: 214.282  39.758  54.200  -0.000  -0.000  29.242

                      1                      2                      3
                     A'                     A"                     A'
 Frequencies --    134.7411               237.9009               285.0525
 Red. masses --      6.2881                 3.4415                 5.1576
 Frc consts  --      0.0673                 0.1148                 0.2469
 IR Inten    --      8.8889                42.0396                 7.0950

                      4                      5                      6
                     A"                     A'                     A'
 Frequencies --    291.0385               506.3471               719.9761
 Red. masses --      5.2445                 5.9239                 1.4077
 Frc consts  --      0.2617                 0.8949                 0.4299
 IR Inten    --     10.5731                 2.2978                14.5412

                      7                      8                      9
                     ?A                     ?A                     A"
 Frequencies --    785.1675               796.3194               815.3717
 Red. masses --      7.3698                 1.9101                 1.3494
 Frc consts  --      2.6769                 0.7136                 0.5286
 IR Inten    --      8.3651                 4.8653                21.4063

                     10                     11                     12
                     A'                     A'                     A'
 Frequencies --   1035.8871              1326.2271              1776.5075
 Red. masses --      1.3365                 3.6348                10.5684
 Frc consts  --      0.8450                 3.7668                19.6514
 IR Inten    --      7.6403                39.7233               954.8770

                     13                     14                     15
                     A'                     A'                     A'
 Frequencies --   1838.7521              2555.9661              2914.6200
 Red. masses --      6.5692                 1.0696                 1.1732
 Frc consts  --     13.0860                 4.1169                 5.8719
 IR Inten    --    451.9862               561.2898               546.3549

 - Thermochemistry -
 -------------------
 Temperature   298.150 Kelvin.  Pressure   1.00000 Atm.
 Atom     1 has atomic number  6 and mass  12.00000

 Molecular mass:    62.01565 amu.
 Principal axes and moments of inertia in atomic units:
                           1         2         3
     Eigenvalues --    32.94650 722.99780 755.94429
           X            0.97675  -0.21438   0.00000
           Y            0.21438   0.97675   0.00000
           Z           -0.00000  -0.00000   1.00000
 This molecule is an asymmetric top.
 Rotational symmetry number  1.
 Rotational temperatures (Kelvin)      2.62892     0.11980     0.11458
 Rotational constants (GHZ):          54.77794     2.49619     2.38740
 Zero-point vibrational energy      95820.1 (Joules/Mol)
                                   22.90156 (Kcal/Mol)
 Warning -- explicit consideration of   5 degrees of freedom as
           vibrations may cause significant error
 Vibrational temperatures:    193.86   342.29   410.13   418.74   728.52
          (Kelvin)           1035.88  1129.68  1145.72  1173.14  1490.41
                             1908.14  2555.99  2645.55  3677.46  4193.48

 Zero-point correction=                           0.036496 (Hartree/Particle)
 Thermal correction to Energy=                    0.041979
 Thermal correction to Enthalpy=                  0.042923
 Thermal correction to Gibbs Free Energy=         0.008047
 Sum of electronic and zero-point Energies=           -189.693507
 Sum of electronic and thermal Energies=              -189.688025
 Sum of electronic and thermal Enthalpies=            -189.687081
 Sum of electronic and thermal Free Energies=         -189.721957

                     E (Thermal)             CV                S
                      KCal/Mol        Cal/Mol-Kelvin    Cal/Mol-Kelvin
 Total                   26.342             17.567             73.403
 Electronic               0.000              0.000              1.377
 Translational            0.889              2.981             38.294
 Rotational               0.889              2.981             24.402
 Vibrational             24.565             11.605              9.330
 Vibration     1          0.613              1.919              2.877
 Vibration     2          0.656              1.783              1.819
 Vibration     3          0.683              1.701              1.503
 Vibration     4          0.687              1.690              1.468
 Vibration     5          0.862              1.236              0.642

 Optimization completed.
    -- Stationary point found.
 Normal termination of Gaussian 09 at Tue Jul 19 06:36:30 2016.
