 Gaussian 09, Revision E.01,
 Gaussian 09:  EM64L-G09RevE.01 30-Nov-2015

 ---------------------------------------------
 #p b3lyp/6-311++G(3df,2p) freq symmetry=Loose
 ---------------------------------------------

 ---------
 b3lyp opt
 ---------
 Symbolic Z-matrix:
 Charge =  3 Multiplicity = 2

                         Standard orientation:
 ---------------------------------------------------------------------
 Center     Atomic      Atomic             Coordinates (Angstroms)
 Number     Number       Type             X           Y           Z
 ---------------------------------------------------------------------
      1          6           0        0.000000   -2.410418   -0.000000
      2          6           0        0.000000   -1.104620   -0.000000
      3          6           0       -0.000000    0.225199    0.000000
      4          6           0       -0.000000    1.510714    0.000000
      5          6           0       -0.000000    2.800499    0.000000
      6          1           0        0.000006   -3.064124    0.944550
      7          1           0        0.000006   -3.064124   -0.944550
 ---------------------------------------------------------------------

 SCF Done:  E(UB3LYP) =  -189.780006918     A.U. after   22 cycles

 The electronic state is 2-A'.
 Alpha  occ. eigenvalues --  -11.11655 -11.03683 -11.01056 -10.98527 -10.95965
 Alpha  occ. eigenvalues --   -1.57653  -1.53262  -1.46068  -1.37874  -1.19500
 Alpha  occ. eigenvalues --   -1.14174  -1.12941  -1.10330  -1.08176  -1.02745
 Alpha virt. eigenvalues --   -0.93234  -0.86884  -0.78031  -0.70803  -0.59663
 Alpha virt. eigenvalues --   -0.55753  -0.53170  -0.49977  -0.47347  -0.42509
 Alpha virt. eigenvalues --   -0.42453  -0.40341  -0.39087  -0.37673  -0.35911

  Beta  occ. eigenvalues --  -11.08463 -11.04077 -11.01136 -10.98211 -10.96171
  Beta  occ. eigenvalues --   -1.57729  -1.51978  -1.45273  -1.37600  -1.19974
  Beta  occ. eigenvalues --   -1.13896  -1.10467  -1.07483  -1.01281
  Beta virt. eigenvalues --   -0.91002  -0.88808  -0.85142  -0.76043  -0.69514
  Beta virt. eigenvalues --   -0.57839  -0.54980  -0.53652  -0.50147  -0.47285
  Beta virt. eigenvalues --   -0.42736  -0.42590  -0.40375  -0.39119  -0.37570

 Mulliken charges and spin densities:
               1          2
     1  C   -0.064167  -0.091503
     2  C    0.876877  -0.142548
     3  C   -0.416882  -0.137891
     4  C    1.101971   0.059445
     5  C    0.706277   1.337923
     6  H    0.397963  -0.012713
     7  H    0.397963  -0.012713
 Sum of Mulliken charges =   3.00000   1.00000

 Dipole moment (field-independent basis, Debye):
    X=              0.0000    Y=             -0.8560    Z=              0.0000  Tot=              0.8560
 Quadrupole moment (field-independent basis, Debye-Ang):
   XX=            -21.9349   YY=             62.3932   ZZ=            -17.1741
   XY=             -0.0001   XZ=             -0.0000   YZ=              0.0000

  Exact polarizability:  20.855  -0.000 120.487  -0.000   0.000  23.342
 Approx polarizability:  28.048  -0.000 351.061  -0.000   0.000  33.235

                      1                      2                      3
                     A"                     A'                     A'
 Frequencies --    151.8099               154.7888               305.3910
 Red. masses --      4.5752                 5.6801                 6.9326
 Frc consts  --      0.0621                 0.0802                 0.3809
 IR Inten    --     22.6933                28.8940                 2.1849

                      4                      5                      6
                     A"                     A"                     A'
 Frequencies --    318.2912               508.3952               604.1859
 Red. masses --      2.8743                 2.7183                10.2454
 Frc consts  --      0.1716                 0.4140                 2.2035
 IR Inten    --      4.2233                24.1779                12.4184

                      7                      8                      9
                     A'                     A"                     A'
 Frequencies --    723.6765               759.0328               928.1311
 Red. masses --      7.1664                 3.6792                 1.4019
 Frc consts  --      2.2113                 1.2489                 0.7115
 IR Inten    --      0.0179                11.4096                50.4291

                     10                     11                     12
                     A'                     A'                     A'
 Frequencies --   1054.3757              1360.1208              1670.1527
 Red. masses --      1.0952                10.0817                 9.9168
 Frc consts  --      0.7174                10.9885                16.2980
 IR Inten    --    429.7190               228.5362                 2.5146

                     13                     14                     15
                     A'                     A"                     A'
 Frequencies --   2007.4026              2530.2171              2532.2539
 Red. masses --     11.9532                 1.0980                 1.0504
 Frc consts  --     28.3793                 4.1417                 3.9686
 IR Inten    --    845.0584               591.5680              1767.9105

 - Thermochemistry -
 -------------------
 Temperature   298.150 Kelvin.  Pressure   1.00000 Atm.
 Atom     1 has atomic number  6 and mass  12.00000

 Molecular mass:    62.01565 amu.
 Principal axes and moments of inertia in atomic units:
                           1         2         3
     Eigenvalues --     6.42189 802.78007 809.20196
           X           -0.00000   0.00000   1.00000
           Y            1.00000   0.00000   0.00000
           Z            0.00000   1.00000   0.00000
 This molecule is an asymmetric top.
 Rotational symmetry number  1.
 Rotational temperatures (Kelvin)     13.48728     0.10789     0.10704
 Rotational constants (GHZ):         281.02962     2.24811     2.23027
 Zero-point vibrational energy      93357.9 (Joules/Mol)
                                   22.31308 (Kcal/Mol)
 Warning -- explicit consideration of   6 degrees of freedom as
           vibrations may cause significant error
 Vibrational temperatures:    218.42   222.71   439.39   457.95   731.47
          (Kelvin)            869.29  1041.21  1092.08  1335.37  1517.01
                             1956.91  2402.97  2888.20  3640.41  3643.34

 Zero-point correction=                           0.035558 (Hartree/Particle)
 Thermal correction to Energy=                    0.041138
 Thermal correction to Enthalpy=                  0.042082
 Thermal correction to Gibbs Free Energy=         0.007673
 Sum of electronic and zero-point Energies=           -189.744449
 Sum of electronic and thermal Energies=              -189.738869
 Sum of electronic and thermal Enthalpies=            -189.737925
 Sum of electronic and thermal Free Energies=         -189.772334

                     E (Thermal)             CV                S
                      KCal/Mol        Cal/Mol-Kelvin    Cal/Mol-Kelvin
 Total                   25.814             17.782             72.420
 Electronic               0.000              0.000              1.377
 Translational            0.889              2.981             38.294
 Rotational               0.889              2.981             22.949
 Vibrational             24.037             11.820              9.799
 Vibration     1          0.619              1.901              2.649
 Vibration     2          0.620              1.897              2.613
 Vibration     3          0.696              1.663              1.387
 Vibration     4          0.705              1.639              1.319
 Vibration     5          0.864              1.231              0.637
 Vibration     6          0.963              1.023              0.443

 Optimization completed.
    -- Stationary point found.
 Normal termination of Gaussian 09 at Tue Jul 19 08:26:21 2016.
