 Gaussian 09, Revision E.01,
 Gaussian 09:  EM64L-G09RevE.01 30-Nov-2015

 ---------------------------------------------
 #p b3lyp/6-311++G(3df,2p) freq symmetry=Loose
 ---------------------------------------------

 ---------
 b3lyp opt
 ---------
 Symbolic Z-matrix:
 Charge =  2 Multiplicity = 3

                         Standard orientation:
 ---------------------------------------------------------------------
 Center     Atomic      Atomic             Coordinates (Angstroms)
 Number     Number       Type             X           Y           Z
 ---------------------------------------------------------------------
      1          6           0       -2.380440   -0.513037   -0.000000
      2          6           0       -1.246237   -0.030040   -0.000000
      3          6           0        0.000000    0.524846    0.000000
      4          6           0        1.246162   -0.030156    0.000000
      5          6           0        2.380513   -0.512820    0.000000
      6          1           0        0.000009    1.683620    0.486740
      7          1           0        0.000009    1.683620   -0.486740
 ---------------------------------------------------------------------

 SCF Done:  E(UB3LYP) =  -190.413325146     A.U. after   22 cycles

 The electronic state is 3-A'.
 Alpha  occ. eigenvalues --  -10.79356 -10.77574 -10.77572 -10.69166 -10.69164
 Alpha  occ. eigenvalues --   -1.35338  -1.26617  -1.23160  -1.08221  -1.07777
 Alpha  occ. eigenvalues --   -0.88049  -0.86771  -0.86490  -0.78881  -0.77962
 Alpha  occ. eigenvalues --   -0.77407
 Alpha virt. eigenvalues --   -0.67344  -0.50916  -0.44109  -0.44039  -0.43512
 Alpha virt. eigenvalues --   -0.39327  -0.30964  -0.29493  -0.28168  -0.25242
 Alpha virt. eigenvalues --   -0.23704  -0.21822  -0.21191  -0.20026  -0.19285

  Beta  occ. eigenvalues --  -10.79320 -10.75074 -10.75073 -10.69118 -10.69116
  Beta  occ. eigenvalues --   -1.35504  -1.24875  -1.20932  -1.07706  -1.07463
  Beta  occ. eigenvalues --   -0.88299  -0.77621  -0.76258  -0.75728
  Beta virt. eigenvalues --   -0.64918  -0.63550  -0.63263  -0.48920  -0.42340
  Beta virt. eigenvalues --   -0.41347  -0.41024  -0.38346  -0.30757  -0.28471
  Beta virt. eigenvalues --   -0.28056  -0.25321  -0.23671  -0.21339  -0.21012

 Mulliken charges and spin densities:
               1          2
     1  C    0.511782   1.140894
     2  C    0.639983  -0.152095
     3  C   -0.829911   0.044741
     4  C    0.640318  -0.152066
     5  C    0.511591   1.140895
     6  H    0.263118  -0.011184
     7  H    0.263118  -0.011184
 Sum of Mulliken charges =   2.00000   2.00000

 Dipole moment (field-independent basis, Debye):
    X=              0.0002    Y=              2.6281    Z=             -0.0000  Tot=              2.6281
 Quadrupole moment (field-independent basis, Debye-Ang):
   XX=             10.5226   YY=            -12.9207   ZZ=            -22.7338
   XY=              0.0011   XZ=             -0.0000   YZ=             -0.0000

  Exact polarizability: 106.614   0.004  39.110   0.000   0.000  26.440
 Approx polarizability: 384.649   0.015  64.562  -0.000   0.000  37.584

                      1                      2                      3
                     A'                     A'                     A"
 Frequencies --    135.9225               242.1695               253.0511
 Red. masses --      9.8036                 7.1544                 2.7511
 Frc consts  --      0.1067                 0.2472                 0.1038
 IR Inten    --      0.1489                 7.7735                62.2447

                      4                      5                      6
                     A"                     A'                     A"
 Frequencies --    292.1633               543.1080               652.6778
 Red. masses --      9.3706                10.5545                 3.1195
 Frc consts  --      0.4713                 1.8343                 0.7829
 IR Inten    --      0.0000                 5.2483                28.0544

                      7                      8                      9
                     A'                     A"                     A'
 Frequencies --    698.8435               747.2316               962.8231
 Red. masses --      2.0718                 1.0348                 1.1883
 Frc consts  --      0.5962                 0.3404                 0.6490
 IR Inten    --     46.8729                 0.0000                97.1503

                     10                     11                     12
                     A'                     A'                     A"
 Frequencies --   1023.1118              1390.2893              1871.6300
 Red. masses --      1.7498                 8.4269                 1.0276
 Frc consts  --      1.0792                 9.5969                 2.1209
 IR Inten    --     82.8672                 9.5538               144.6313

                     13                     14                     15
                     A'                     A'                     A'
 Frequencies --   2118.2520              2152.8541              2452.4523
 Red. masses --     11.9949                10.7148                 1.0593
 Frc consts  --     31.7105                29.2592                 3.7537
 IR Inten    --   1474.8527                78.1078               103.2166

 - Thermochemistry -
 -------------------
 Temperature   298.150 Kelvin.  Pressure   1.00000 Atm.
 Atom     1 has atomic number  6 and mass  12.00000

 Molecular mass:    62.01565 amu.
 Principal axes and moments of inertia in atomic units:
                           1         2         3
     Eigenvalues --    55.89670 620.47201 672.95806
           X            1.00000  -0.00003   0.00000
           Y            0.00003   1.00000   0.00000
           Z           -0.00000  -0.00000   1.00000
 This molecule is an asymmetric top.
 Rotational symmetry number  1.
 Rotational temperatures (Kelvin)      1.54953     0.13959     0.12871
 Rotational constants (GHZ):          32.28708     2.90866     2.68180
 Zero-point vibrational energy      92929.4 (Joules/Mol)
                                   22.21066 (Kcal/Mol)
 Warning -- explicit consideration of   5 degrees of freedom as
           vibrations may cause significant error
 Vibrational temperatures:    195.56   348.43   364.08   420.36   781.41
          (Kelvin)            939.06  1005.48  1075.10  1385.29  1472.03
                             2000.31  2692.85  3047.69  3097.47  3528.53

 Zero-point correction=                           0.035395 (Hartree/Particle)
 Thermal correction to Energy=                    0.040927
 Thermal correction to Enthalpy=                  0.041871
 Thermal correction to Gibbs Free Energy=         0.006397
 Sum of electronic and zero-point Energies=           -190.377930
 Sum of electronic and thermal Energies=              -190.372399
 Sum of electronic and thermal Enthalpies=            -190.371454
 Sum of electronic and thermal Free Energies=         -190.406928

                     E (Thermal)             CV                S
                      KCal/Mol        Cal/Mol-Kelvin    Cal/Mol-Kelvin
 Total                   25.682             17.668             74.660
 Electronic               0.000              0.000              2.183
 Translational            0.889              2.981             38.294
 Rotational               0.889              2.981             24.660
 Vibrational             23.904             11.707              9.523
 Vibration     1          0.614              1.917              2.860
 Vibration     2          0.658              1.776              1.787
 Vibration     3          0.664              1.758              1.709
 Vibration     4          0.688              1.688              1.461
 Vibration     5          0.898              1.155              0.559

 Optimization completed.
    -- Stationary point found.
 Normal termination of Gaussian 09 at Tue Jul 19 06:36:30 2016.
