 Gaussian 09, Revision E.01,
 Gaussian 09:  EM64L-G09RevE.01 30-Nov-2015

 ---------------------------------------------
 #p b3lyp/6-311++G(3df,2p) freq symmetry=Loose
 ---------------------------------------------

 ---------
 b3lyp opt
 ---------
 Symbolic Z-matrix:
 Charge =  2 Multiplicity = 3

                         Standard orientation:
 ---------------------------------------------------------------------
 Center     Atomic      Atomic             Coordinates (Angstroms)
 Number     Number       Type             X           Y           Z
 ---------------------------------------------------------------------
      1          6           0        1.564052   -0.789075    0.002031
      2          6           0        0.468821    0.061570    0.000577
      3          6           0       -0.947832    0.276277    0.002186
      4          6           0       -2.086892   -0.246951   -0.001991
      5          6           0        1.758436    0.561909   -0.003452
      6          1           0       -3.146396   -0.525471   -0.004942
      7          1           0       -1.393120    1.343083    0.008839
 ---------------------------------------------------------------------

 SCF Done:  E(UB3LYP) =  -190.572923907     A.U. after   16 cycles

 The electronic state is 3-A.
 Alpha  occ. eigenvalues --  -10.78867 -10.77372 -10.77200 -10.76676 -10.72452
 Alpha  occ. eigenvalues --   -1.45259  -1.33227  -1.15717  -1.03545  -1.02483
 Alpha  occ. eigenvalues --   -0.94695  -0.93435  -0.89604  -0.82262  -0.81174
 Alpha  occ. eigenvalues --   -0.75931
 Alpha virt. eigenvalues --   -0.59210  -0.56394  -0.49884  -0.40202  -0.37093
 Alpha virt. eigenvalues --   -0.33913  -0.30123  -0.27665  -0.27192  -0.26672
 Alpha virt. eigenvalues --   -0.26013  -0.23213  -0.22185  -0.21330  -0.20415

  Beta  occ. eigenvalues --  -10.78858 -10.76377 -10.75368 -10.75192 -10.72439
  Beta  occ. eigenvalues --   -1.43108  -1.33034  -1.14925  -1.03255  -0.98315
  Beta  occ. eigenvalues --   -0.91731  -0.89173  -0.88776  -0.80673
  Beta virt. eigenvalues --   -0.63463  -0.59909  -0.57971  -0.55568  -0.45666
  Beta virt. eigenvalues --   -0.39751  -0.36003  -0.33313  -0.29498  -0.27361
  Beta virt. eigenvalues --   -0.25995  -0.25754  -0.24844  -0.21980  -0.21514

 Mulliken charges and spin densities:
               1          2
     1  C    0.210705   0.981616
     2  C    0.654572  -0.105833
     3  C   -0.013090   0.102254
     4  C    0.164593   0.028377
     5  C    0.262366   0.983506
     6  H    0.441543   0.001622
     7  H    0.279312   0.008458
 Sum of Mulliken charges =   2.00000   2.00000

 Dipole moment (field-independent basis, Debye):
    X=             -4.2263    Y=              0.2945    Z=             -0.0001  Tot=              4.2366
 Quadrupole moment (field-independent basis, Debye-Ang):
   XX=             13.8501   YY=            -16.8269   ZZ=            -23.9277
   XY=              0.6728   XZ=              0.0109   YZ=              0.0267

  Exact polarizability:  64.632   2.326  34.404   0.011   0.002  24.134
 Approx polarizability: 109.466  10.318  64.983   0.053   0.007  35.234

                      1                      2                      3
                      A                      A                      A
 Frequencies --     80.8570               110.8834               358.4581
 Red. masses --      2.5967                 3.2050                 2.1824
 Frc consts  --      0.0100                 0.0232                 0.1652
 IR Inten    --      0.0488                19.9330                34.7713

                      4                      5                      6
                      A                      A                      A
 Frequencies --    366.2953               626.0787               699.2957
 Red. masses --      4.2320                 3.0445                 7.0192
 Frc consts  --      0.3345                 0.7031                 2.0224
 IR Inten    --      2.8680                35.1266                 4.6993

                      7                      8                      9
                      A                      A                      A
 Frequencies --    742.4745               872.2611               994.7974
 Red. masses --      1.3479                 1.3605                 1.4085
 Frc consts  --      0.4378                 0.6099                 0.8213
 IR Inten    --     28.4733                 1.3957                 6.5556

                     10                     11                     12
                      A                      A                      A
 Frequencies --   1186.3730              1320.3536              1670.9759
 Red. masses --      8.8791                10.4781                10.4179
 Frc consts  --      7.3631                10.7625                17.1385
 IR Inten    --     72.2059                28.7593                 6.3861

                     13                     14                     15
                      A                      A                      A
 Frequencies --   1934.7472              2576.6419              3146.1517
 Red. masses --      5.8861                 1.0701                 1.1564
 Frc consts  --     12.9816                 4.1858                 6.7437
 IR Inten    --    205.5646               266.9702               347.4486

 - Thermochemistry -
 -------------------
 Temperature   298.150 Kelvin.  Pressure   1.00000 Atm.
 Atom     1 has atomic number  6 and mass  12.00000

 Molecular mass:    62.01565 amu.
 Principal axes and moments of inertia in atomic units:
                           1         2         3
     Eigenvalues --    53.70632 513.32970 567.03324
           X            1.00000  -0.00214   0.00002
           Y            0.00214   1.00000   0.00096
           Z           -0.00002  -0.00096   1.00000
 This molecule is an asymmetric top.
 Rotational symmetry number  1.
 Rotational temperatures (Kelvin)      1.61273     0.16873     0.15275
 Rotational constants (GHZ):          33.60389     3.51575     3.18278
 Zero-point vibrational energy      99808.3 (Joules/Mol)
                                   23.85476 (Kcal/Mol)
 Warning -- explicit consideration of   4 degrees of freedom as
           vibrations may cause significant error
 Vibrational temperatures:    116.34   159.54   515.74   527.02   900.79
          (Kelvin)           1006.13  1068.25  1254.99  1431.29  1706.92
                             1899.69  2404.16  2783.67  3707.21  4526.60

 Zero-point correction=                           0.038015 (Hartree/Particle)
 Thermal correction to Energy=                    0.043514
 Thermal correction to Enthalpy=                  0.044458
 Thermal correction to Gibbs Free Energy=         0.008639
 Sum of electronic and zero-point Energies=           -190.534909
 Sum of electronic and thermal Energies=              -190.529410
 Sum of electronic and thermal Enthalpies=            -190.528466
 Sum of electronic and thermal Free Energies=         -190.564285

                     E (Thermal)             CV                S
                      KCal/Mol        Cal/Mol-Kelvin    Cal/Mol-Kelvin
 Total                   27.305             16.853             75.388
 Electronic               0.000              0.000              2.183
 Translational            0.889              2.981             38.294
 Rotational               0.889              2.981             24.262
 Vibrational             25.528             10.891             10.649
 Vibration     1          0.600              1.962              3.870
 Vibration     2          0.607              1.940              3.253
 Vibration     3          0.733              1.558              1.129
 Vibration     4          0.739              1.542              1.095

 Normal termination of Gaussian 09 at Sun Jun 19 03:59:22 2016.
