 Gaussian 09, Revision E.01,
 Gaussian 09:  EM64L-G09RevE.01 30-Nov-2015

 ---------------------------------------------
 #p b3lyp/6-311++G(3df,2p) freq symmetry=Loose
 ---------------------------------------------

 ---------
 b3lyp opt
 ---------
 Symbolic Z-matrix:
 Charge =  1 Multiplicity = 2

                         Standard orientation:
 ---------------------------------------------------------------------
 Center     Atomic      Atomic             Coordinates (Angstroms)
 Number     Number       Type             X           Y           Z
 ---------------------------------------------------------------------
      1          6           0        2.217285   -0.390783    0.000005
      2          6           0        1.106535    0.099616   -0.000013
      3          6           0       -0.125398    0.694191   -0.000036
      4          6           0       -1.306639   -0.008892    0.000010
      5          6           0       -2.394556   -0.553505    0.000046
      6          1           0        3.194879   -0.827682    0.000021
      7          1           0       -0.178240    1.783924   -0.000092
 ---------------------------------------------------------------------

 SCF Done:  E(UB3LYP) =  -191.192872956     A.U. after   23 cycles

 The electronic state is 2-A.
 Alpha  occ. eigenvalues --  -10.51502 -10.51176 -10.45720 -10.44484 -10.43501
 Alpha  occ. eigenvalues --   -1.08543  -1.02117  -0.96698  -0.82139  -0.76088
 Alpha  occ. eigenvalues --   -0.74133  -0.64126  -0.61596  -0.54722  -0.54269
 Alpha  occ. eigenvalues --   -0.53294
 Alpha virt. eigenvalues --   -0.39433  -0.22727  -0.20143  -0.19359  -0.15242
 Alpha virt. eigenvalues --   -0.11891  -0.11823  -0.10908  -0.09988  -0.08678
 Alpha virt. eigenvalues --   -0.06838  -0.06634  -0.05202  -0.05200  -0.04368

  Beta  occ. eigenvalues --  -10.51490 -10.48693 -10.45887 -10.44409 -10.43512
  Beta  occ. eigenvalues --   -1.08484  -1.01130  -0.95595  -0.81809  -0.76092
  Beta  occ. eigenvalues --   -0.74253  -0.61552  -0.53509  -0.53393  -0.52927
  Beta virt. eigenvalues --   -0.41698  -0.38309  -0.21722  -0.18889  -0.18124
  Beta virt. eigenvalues --   -0.15134  -0.11867  -0.11274  -0.10738  -0.09808
  Beta virt. eigenvalues --   -0.08355  -0.06824  -0.05892  -0.05138  -0.05115

 Mulliken charges and spin densities:
               1          2
     1  C    0.504835  -0.079191
     2  C   -0.039809  -0.019969
     3  C   -0.773115   0.041157
     4  C    0.564041  -0.117025
     5  C    0.136662   1.177068
     6  H    0.376979   0.002883
     7  H    0.230407  -0.004923
 Sum of Mulliken charges =   1.00000   1.00000

 Dipole moment (field-independent basis, Debye):
    X=              0.9036    Y=              0.1465    Z=             -0.0000  Tot=              0.9154
 Quadrupole moment (field-independent basis, Debye-Ang):
   XX=             -1.5068   YY=            -21.6184   ZZ=            -26.0857
   XY=             -1.3845   XZ=             -0.0001   YZ=             -0.0002

  Exact polarizability: 105.770  -2.375  40.902  -0.001  -0.001  28.622
 Approx polarizability: 231.127   1.695  63.002  -0.001  -0.001  39.810

                      1                      2                      3
                      A                      A                      A
 Frequencies --    107.5414               245.8886               274.3683
 Red. masses --      7.1925                 5.6567                 2.8507
 Frc consts  --      0.0490                 0.2015                 0.1264
 IR Inten    --      0.7889                 6.2168                22.3691

                      4                      5                      6
                      A                      A                      A
 Frequencies --    293.0228               555.6483               689.0376
 Red. masses --      6.3154                 8.6364                 1.2479
 Frc consts  --      0.3195                 1.5710                 0.3491
 IR Inten    --      2.0544                 5.0073                43.1736

                      7                      8                      9
                      A                      A                      A
 Frequencies --    846.4109               928.0231               976.4853
 Red. masses --      1.3367                 1.7587                 7.1392
 Frc consts  --      0.5642                 0.8924                 4.0108
 IR Inten    --     11.5415                 2.9832                 7.5236

                     10                     11                     12
                      A                      A                      A
 Frequencies --   1169.7558              1419.1332              2140.8099
 Red. masses --      1.5995                 2.5071                 8.3774
 Frc consts  --      1.2895                 2.9749                22.6212
 IR Inten    --     64.2492                28.8066               803.8863

                     13                     14                     15
                      A                      A                      A
 Frequencies --   2172.7297              3103.5332              3385.6417
 Red. masses --      7.9222                 1.0877                 1.1613
 Frc consts  --     22.0346                 6.1729                 7.8427
 IR Inten    --     90.6895                37.9116               106.5561

 - Thermochemistry -
 -------------------
 Temperature   298.150 Kelvin.  Pressure   1.00000 Atm.
 Atom     1 has atomic number  6 and mass  12.00000

 Molecular mass:    62.01565 amu.
 Principal axes and moments of inertia in atomic units:
                           1         2         3
     Eigenvalues --    54.43030 619.22299 673.65328
           X            0.99983  -0.01830   0.00001
           Y            0.01830   0.99983   0.00005
           Z           -0.00001  -0.00005   1.00000
 This molecule is an asymmetric top.
 Rotational symmetry number  1.
 Rotational temperatures (Kelvin)      1.59128     0.13987     0.12857
 Rotational constants (GHZ):          33.15692     2.91453     2.67904
 Zero-point vibrational energy     109506.3 (Joules/Mol)
                                   26.17264 (Kcal/Mol)
 Warning -- explicit consideration of   5 degrees of freedom as
           vibrations may cause significant error
 Vibrational temperatures:    154.73   353.78   394.75   421.59   799.45
          (Kelvin)            991.37  1217.80  1335.22  1404.94  1683.02
                             2041.81  3080.14  3126.07  4465.29  4871.18

 Zero-point correction=                           0.041709 (Hartree/Particle)
 Thermal correction to Energy=                    0.047121
 Thermal correction to Enthalpy=                  0.048065
 Thermal correction to Gibbs Free Energy=         0.013039
 Sum of electronic and zero-point Energies=           -191.151164
 Sum of electronic and thermal Energies=              -191.145752
 Sum of electronic and thermal Enthalpies=            -191.144808
 Sum of electronic and thermal Free Energies=         -191.179834

                     E (Thermal)             CV                S
                      KCal/Mol        Cal/Mol-Kelvin    Cal/Mol-Kelvin
 Total                   29.569             16.841             73.719
 Electronic               0.000              0.000              1.377
 Translational            0.889              2.981             38.294
 Rotational               0.889              2.981             24.633
 Vibrational             27.791             10.880              9.415
 Vibration     1          0.606              1.943              3.313
 Vibration     2          0.660              1.770              1.760
 Vibration     3          0.677              1.721              1.569
 Vibration     4          0.688              1.687              1.456
 Vibration     5          0.911              1.127              0.533

 Optimization completed.
    -- Stationary point found.
 Normal termination of Gaussian 09 at Tue Jul 19 05:51:05 2016.
