 Gaussian 09, Revision E.01,
 Gaussian 09:  EM64L-G09RevE.01 30-Nov-2015

 ---------------------------------------------
 #p b3lyp/6-311++G(3df,2p) freq symmetry=Loose
 ---------------------------------------------

 ---------
 b3lyp opt
 ---------
 Symbolic Z-matrix:
 Charge =  1 Multiplicity = 4

                         Standard orientation:
 ---------------------------------------------------------------------
 Center     Atomic      Atomic             Coordinates (Angstroms)
 Number     Number       Type             X           Y           Z
 ---------------------------------------------------------------------
      1          6           0        1.383110    0.839080    0.000470
      2          6           0        0.376524   -0.137492    0.000242
      3          6           0       -0.978249   -0.542862    0.000415
      4          6           0       -1.969486    0.332950   -0.000450
      5          6           0        1.744965   -0.454580   -0.000719
      6          1           0       -2.174793    1.393050   -0.000488
      7          1           0       -1.166391   -1.615622    0.000742
 ---------------------------------------------------------------------

 SCF Done:  E(UB3LYP) =  -191.115613480     A.U. after   16 cycles

 The electronic state is 4-A.
 Alpha  occ. eigenvalues --  -10.54551 -10.54423 -10.53414 -10.46225 -10.43552
 Alpha  occ. eigenvalues --   -1.23292  -1.04939  -0.88704  -0.80442  -0.77269
 Alpha  occ. eigenvalues --   -0.71826  -0.68449  -0.67575  -0.61484  -0.54108
 Alpha  occ. eigenvalues --   -0.53878  -0.48230
 Alpha virt. eigenvalues --   -0.33031  -0.29054  -0.17844  -0.14814  -0.13565
 Alpha virt. eigenvalues --   -0.11298  -0.10235  -0.09887  -0.09020  -0.07762
 Alpha virt. eigenvalues --   -0.07200  -0.05649  -0.05298  -0.04081  -0.03873

  Beta  occ. eigenvalues --  -10.52862 -10.52728 -10.52576 -10.44530 -10.43658
  Beta  occ. eigenvalues --   -1.20854  -1.03248  -0.85468  -0.76250  -0.72893
  Beta  occ. eigenvalues --   -0.67772  -0.66495  -0.65511  -0.52858
  Beta virt. eigenvalues --   -0.43806  -0.38484  -0.31019  -0.30749  -0.25537
  Beta virt. eigenvalues --   -0.17162  -0.14166  -0.12945  -0.10332  -0.10187
  Beta virt. eigenvalues --   -0.08832  -0.08498  -0.06366  -0.05553  -0.04753

 Mulliken charges and spin densities:
               1          2
     1  C    0.306179   0.940069
     2  C    0.397486   0.053492
     3  C   -0.008097  -0.089432
     4  C   -0.325748   1.070641
     5  C    0.153406   0.955310
     6  H    0.259907   0.015902
     7  H    0.216867   0.054018
 Sum of Mulliken charges =   1.00000   3.00000

 Dipole moment (field-independent basis, Debye):
    X=              0.2154    Y=              0.4288    Z=              0.0000  Tot=              0.4799
 Quadrupole moment (field-independent basis, Debye-Ang):
   XX=            -14.1290   YY=            -20.0344   ZZ=            -26.3788
   XY=             -1.7527   XZ=             -0.0003   YZ=             -0.0014

  Exact polarizability:  71.490  -3.230  43.325   0.002   0.004  29.530
 Approx polarizability: 118.417 -10.908  77.176   0.005   0.011  43.000

                      1                      2                      3
                      A                      A                      A
 Frequencies --     98.6715               226.0070               410.0375
 Red. masses --      4.4080                 4.2740                 3.2880
 Frc consts  --      0.0253                 0.1286                 0.3257
 IR Inten    --      0.3292                 0.4828                 0.0162

                      4                      5                      6
                      A                      A                      A
 Frequencies --    498.1646               741.1798               758.0373
 Red. masses --      3.0727                 2.1523                 2.2871
 Frc consts  --      0.4493                 0.6966                 0.7743
 IR Inten    --      6.1022                25.0649                 0.0009

                      7                      8                      9
                      A                      A                      A
 Frequencies --    875.0506               875.3466              1083.0931
 Red. masses --      3.3412                 1.1081                 8.5476
 Frc consts  --      1.5074                 0.5002                 5.9078
 IR Inten    --     10.0853                57.1817                51.5532

                     10                     11                     12
                      A                      A                      A
 Frequencies --   1264.7996              1382.9598              1571.6432
 Red. masses --      1.2080                10.3643                 6.6400
 Frc consts  --      1.1386                11.6791                 9.6634
 IR Inten    --      8.5690               174.6002                97.6001

                     13                     14                     15
                      A                      A                      A
 Frequencies --   1678.3566              3099.5689              3246.2634
 Red. masses --     11.8644                 1.0858                 1.1064
 Frc consts  --     19.6908                 6.1459                 6.8697
 IR Inten    --    148.5192                31.7650                33.9758

 - Thermochemistry -
 -------------------
 Temperature   298.150 Kelvin.  Pressure   1.00000 Atm.
 Atom     1 has atomic number  6 and mass  12.00000

 Molecular mass:    62.01565 amu.
 Principal axes and moments of inertia in atomic units:
                           1         2         3
     Eigenvalues --    73.54772 447.09338 520.64100
           X            0.99994  -0.01075   0.00000
           Y            0.01075   0.99994  -0.00009
           Z           -0.00000   0.00009   1.00000
 This molecule is an asymmetric top.
 Rotational symmetry number  1.
 Rotational temperatures (Kelvin)      1.17765     0.19373     0.16636
 Rotational constants (GHZ):          24.53837     4.03661     3.46638
 Zero-point vibrational energy     106522.5 (Joules/Mol)
                                   25.45950 (Kcal/Mol)
 Warning -- explicit consideration of   4 degrees of freedom as
           vibrations may cause significant error
 Vibrational temperatures:    141.97   325.17   589.95   716.75  1066.39
          (Kelvin)           1090.65  1259.00  1259.43  1558.33  1819.76
                             1989.77  2261.24  2414.78  4459.58  4670.64

 Zero-point correction=                           0.040572 (Hartree/Particle)
 Thermal correction to Energy=                    0.045549
 Thermal correction to Enthalpy=                  0.046493
 Thermal correction to Gibbs Free Energy=         0.011654
 Sum of electronic and zero-point Energies=           -191.075041
 Sum of electronic and thermal Energies=              -191.070065
 Sum of electronic and thermal Enthalpies=            -191.069120
 Sum of electronic and thermal Free Energies=         -191.103960

                     E (Thermal)             CV                S
                      KCal/Mol        Cal/Mol-Kelvin    Cal/Mol-Kelvin
 Total                   28.582             15.631             73.326
 Electronic               0.000              0.000              2.755
 Translational            0.889              2.981             38.294
 Rotational               0.889              2.981             24.352
 Vibrational             26.805              9.670              7.925
 Vibration     1          0.604              1.950              3.480
 Vibration     2          0.650              1.801              1.910
 Vibration     3          0.774              1.448              0.926
 Vibration     4          0.854              1.254              0.663

 Optimization completed.
    -- Stationary point found.
 Normal termination of Gaussian 09 at Sun Jun 19 03:01:17 2016.
