 Gaussian 09, Revision E.01,
 Gaussian 09:  EM64L-G09RevE.01 30-Nov-2015

 ---------------------------------------------
 #p b3lyp/6-311++G(3df,2p) freq symmetry=Loose
 ---------------------------------------------

 ---------
 b3lyp opt
 ---------
 Symbolic Z-matrix:
 Charge =  2 Multiplicity = 1

                         Standard orientation:
 ---------------------------------------------------------------------
 Center     Atomic      Atomic             Coordinates (Angstroms)
 Number     Number       Type             X           Y           Z
 ---------------------------------------------------------------------
      1          6           0        1.366723   -1.944434    0.000000
      2          6           0        1.246127   -0.537119   -0.000000
      3          6           0        0.000000    0.192577   -0.000000
      4          6           0       -1.048145    0.823915   -0.000000
      5          6           0       -2.201721    1.565310   -0.000000
      6          1           0        1.911048   -0.300749    0.900552
      7          1           0        1.911048   -0.300749   -0.900552
 ---------------------------------------------------------------------

 SCF Done:  E(RB3LYP) =  -190.512315880     A.U. after   14 cycles

 The electronic state is 1-A'.
 Alpha  occ. eigenvalues --  -10.86421 -10.78319 -10.76296 -10.73388 -10.67528
 Alpha  occ. eigenvalues --   -1.36088  -1.28270  -1.18110  -1.09907  -0.99617
 Alpha  occ. eigenvalues --   -0.96831  -0.83860  -0.80932  -0.79787  -0.76350
 Alpha virt. eigenvalues --   -0.63126  -0.62148  -0.60283  -0.59190  -0.39257
 Alpha virt. eigenvalues --   -0.38769  -0.35006  -0.30165  -0.30049  -0.29262
 Alpha virt. eigenvalues --   -0.26839  -0.24519  -0.24047  -0.20743  -0.20427

 Mulliken charges:
               1
     1  C    0.161533
     2  C   -0.084782
     3  C    0.165969
     4  C    1.130887
     5  C   -0.031960
     6  H    0.329176
     7  H    0.329176
 Sum of Mulliken charges =   2.00000

 Dipole moment (field-independent basis, Debye):
    X=              3.5320    Y=             -1.3789    Z=             -0.0000  Tot=              3.7917
 Quadrupole moment (field-independent basis, Debye-Ang):
   XX=              0.3659   YY=            -11.4329   ZZ=            -20.9012
   XY=            -13.7327   XZ=             -0.0000   YZ=              0.0000

  Exact polarizability:  64.572 -24.513  52.287   0.000  -0.000  30.244
 Approx polarizability: 138.037 -60.265  99.692  -0.000   0.000  47.225

                      1                      2                      3
                     A'                     A"                     A'
 Frequencies --    114.6371               131.6575               221.5866
 Red. masses --     10.7583                 5.7488                 9.4769
 Frc consts  --      0.0833                 0.0587                 0.2742
 IR Inten    --      0.9952                 1.2918                 3.5686

                      4                      5                      6
                     A"                     A'                     A"
 Frequencies --    331.8361               459.2391               480.2191
 Red. masses --      2.3436                 5.4259                 2.5267
 Frc consts  --      0.1521                 0.6742                 0.3433
 IR Inten    --      7.6892                 5.0261                 0.2738

                      7                      8                      9
                     A'                     A'                     A"
 Frequencies --    725.7961               883.1630              1006.9747
 Red. masses --      7.2009                 1.5138                 1.1877
 Frc consts  --      2.2349                 0.6957                 0.7096
 IR Inten    --      2.0177                84.2805                 3.6272

                     10                     11                     12
                     A'                     A'                     A'
 Frequencies --   1186.5830              1253.2331              1421.3644
 Red. masses --      1.1169                 4.8716                 6.5480
 Frc consts  --      0.9265                 4.5080                 7.7942
 IR Inten    --     99.7072               498.5387               102.9561

                     13                     14                     15
                     A'                     A"                     A'
 Frequencies --   2252.4808              2617.7494              2624.7450
 Red. masses --     11.8172                 1.0857                 1.0577
 Frc consts  --     35.3252                 4.3835                 4.2934
 IR Inten    --   1001.1666               261.5859               298.1538

 - Thermochemistry -
 -------------------
 Temperature   298.150 Kelvin.  Pressure   1.00000 Atm.
 Atom     1 has atomic number  6 and mass  12.00000

 Molecular mass:    62.01565 amu.
 Principal axes and moments of inertia in atomic units:
                           1         2         3
     Eigenvalues --    38.29408 710.92980 737.54878
           X            0.76574   0.64315   0.00000
           Y           -0.64315   0.76574   0.00000
           Z           -0.00000   0.00000   1.00000
 This molecule is an asymmetric top.
 Rotational symmetry number  1.
 Rotational temperatures (Kelvin)      2.26181     0.12183     0.11743
 Rotational constants (GHZ):          47.12846     2.53856     2.44694
 Zero-point vibrational energy      93974.2 (Joules/Mol)
                                   22.46038 (Kcal/Mol)
 Warning -- explicit consideration of   6 degrees of freedom as
           vibrations may cause significant error
 Vibrational temperatures:    164.94   189.43   318.81   477.44   660.74
          (Kelvin)            690.93  1044.26  1270.67  1448.81  1707.23
                             1803.12  2045.02  3240.81  3766.35  3776.42

 Zero-point correction=                           0.035793 (Hartree/Particle)
 Thermal correction to Energy=                    0.041647
 Thermal correction to Enthalpy=                  0.042592
 Thermal correction to Gibbs Free Energy=         0.007336
 Sum of electronic and zero-point Energies=           -190.476523
 Sum of electronic and thermal Energies=              -190.470669
 Sum of electronic and thermal Enthalpies=            -190.469724
 Sum of electronic and thermal Free Energies=         -190.504980

                     E (Thermal)             CV                S
                      KCal/Mol        Cal/Mol-Kelvin    Cal/Mol-Kelvin
 Total                   26.134             18.040             74.201
 Electronic               0.000              0.000              0.000
 Translational            0.889              2.981             38.294
 Rotational               0.889              2.981             24.511
 Vibrational             24.357             12.078             11.397
 Vibration     1          0.608              1.937              3.189
 Vibration     2          0.612              1.922              2.922
 Vibration     3          0.648              1.808              1.946
 Vibration     4          0.714              1.612              1.251
 Vibration     5          0.817              1.340              0.768
 Vibration     6          0.837              1.294              0.709

 Optimization completed.
    -- Stationary point found.
 Normal termination of Gaussian 09 at Tue Jul 19 06:15:12 2016.
