 Gaussian 09, Revision E.01,
 Gaussian 09:  EM64L-G09RevE.01 30-Nov-2015

 ------------------------------------------------------
 #p b3lyp/6-311++G(3df,2p) freq IOp(2/17=3) IOp(2/18=3)
 ------------------------------------------------------

 ---------
 b3lyp opt
 ---------
 Symbolic Z-matrix:
 Charge =  1 Multiplicity = 4

                         Standard orientation:
 ---------------------------------------------------------------------
 Center     Atomic      Atomic             Coordinates (Angstroms)
 Number     Number       Type             X           Y           Z
 ---------------------------------------------------------------------
      1          6           0        2.327783   -0.000000   -0.567655
      2          6           0        1.238581   -0.000000   -0.018113
      3          6           0       -0.000000    0.000000    0.699623
      4          6           0       -1.238581    0.000000   -0.018113
      5          6           0       -2.327783    0.000000   -0.567655
      6          1           0        0.000000    0.851324    1.416233
      7          1           0       -0.000000   -0.851324    1.416233
 ---------------------------------------------------------------------

 SCF Done:  E(UB3LYP) =  -191.040235911     A.U. after   17 cycles

 The electronic state is 4-A2.
 Alpha  occ. eigenvalues --  -10.50322 -10.50322 -10.48304 -10.46148 -10.46147
 Alpha  occ. eigenvalues --   -1.09036  -1.03312  -0.98722  -0.79765  -0.74579
 Alpha  occ. eigenvalues --   -0.71413  -0.63974  -0.63596  -0.57224  -0.55142
 Alpha  occ. eigenvalues --   -0.54759  -0.54616
 Alpha virt. eigenvalues --   -0.23207  -0.22948  -0.22062  -0.20302  -0.16967
 Alpha virt. eigenvalues --   -0.11516  -0.11071  -0.10707  -0.08545  -0.06779
 Alpha virt. eigenvalues --   -0.06776  -0.06609  -0.05699  -0.04571  -0.03224

  Beta  occ. eigenvalues --  -10.48151 -10.47569 -10.47569 -10.45928 -10.45927
  Beta  occ. eigenvalues --   -1.08118  -0.99804  -0.94970  -0.78679  -0.73660
  Beta  occ. eigenvalues --   -0.69724  -0.53322  -0.52762  -0.51020
  Beta virt. eigenvalues --   -0.44758  -0.41181  -0.40878  -0.20456  -0.18823
  Beta virt. eigenvalues --   -0.17728  -0.17041  -0.16539  -0.10666  -0.10619
  Beta virt. eigenvalues --   -0.10153  -0.08354  -0.06300  -0.05948  -0.05781

 Mulliken charges and spin densities:
               1          2
     1  C    0.167752   1.338311
     2  C    0.549001   0.067821
     3  C   -0.962616   0.057730
     4  C    0.549001   0.067821
     5  C    0.167752   1.338311
     6  H    0.264555   0.065003
     7  H    0.264555   0.065003
 Sum of Mulliken charges =   1.00000   3.00000

 Dipole moment (field-independent basis, Debye):
    X=             -0.0000    Y=              0.0000    Z=              0.9730  Tot=              0.9730
 Quadrupole moment (field-independent basis, Debye-Ang):
   XX=             -8.9674   YY=            -24.5834   ZZ=            -21.6825
   XY=             -0.0000   XZ=             -0.0000   YZ=             -0.0000

  Exact polarizability: 149.658  -0.000  32.501   0.000   0.000  43.885
 Approx polarizability: 378.527  -0.000  45.614  -0.000  -0.000  63.848

                      1                      2                      3
                     A1                     B2                     B1
 Frequencies --    131.2469               225.4884               239.3483
 Red. masses --      9.8969                 2.0180                 8.8563
 Frc consts  --      0.1004                 0.0605                 0.2989
 IR Inten    --      0.0399                17.7673                 0.6074

                      4                      5                      6
                     A2                     A1                     B2
 Frequencies --    321.7799               514.9990               650.3187
 Red. masses --      7.0200                11.3642                 2.9641
 Frc consts  --      0.4283                 1.7758                 0.7386
 IR Inten    --      0.0000                 0.2229                10.3299

                      7                      8                      9
                     A1                     B1                     A2
 Frequencies --    865.9646              1030.9147              1096.5951
 Red. masses --      8.5834                 1.7801                 1.0808
 Frc consts  --      3.7924                 1.1146                 0.7658
 IR Inten    --      6.9430               104.1239                 0.0000

                     10                     11                     12
                     A1                     B1                     B1
 Frequencies --   1218.1010              1236.9481              2058.6491
 Red. masses --      1.0447                 2.3193                11.6797
 Frc consts  --      0.9133                 2.0908                29.1638
 IR Inten    --     79.3786               270.9956              1563.1697

                     13                     14                     15
                     A1                     B2                     A1
 Frequencies --   2184.6999              2835.0679              2869.6321
 Red. masses --     11.9278                 1.0760                 1.0620
 Frc consts  --     33.5424                 5.0954                 5.1525
 IR Inten    --      0.0699                78.2477               121.7997

 - Thermochemistry -
 -------------------
 Temperature   298.150 Kelvin.  Pressure   1.00000 Atm.
 Atom     1 has atomic number  6 and mass  12.00000

 Molecular mass:    62.01565 amu.
 Principal axes and moments of inertia in atomic units:
                           1         2         3
     Eigenvalues --    67.82030 601.09813 658.48488
           X            1.00000   0.00000   0.00000
           Y           -0.00000   0.00000   1.00000
           Z           -0.00000   1.00000  -0.00000
 This molecule is an asymmetric top.
 Rotational symmetry number  2.
 Rotational temperatures (Kelvin)      1.27711     0.14409     0.13154
 Rotational constants (GHZ):          26.61063     3.00241     2.74075
 Zero-point vibrational energy     104552.1 (Joules/Mol)
                                   24.98856 (Kcal/Mol)
 Warning -- explicit consideration of   5 degrees of freedom as
           vibrations may cause significant error
 Vibrational temperatures:    188.83   324.43   344.37   462.97   740.97
          (Kelvin)            935.66  1245.93  1483.25  1577.75  1752.57
                             1779.69  2961.93  3143.29  4079.03  4128.76

 Zero-point correction=                           0.039822 (Hartree/Particle)
 Thermal correction to Energy=                    0.045246
 Thermal correction to Enthalpy=                  0.046190
 Thermal correction to Gibbs Free Energy=         0.011127
 Sum of electronic and zero-point Energies=           -191.000414
 Sum of electronic and thermal Energies=              -190.994990
 Sum of electronic and thermal Enthalpies=            -190.994046
 Sum of electronic and thermal Free Energies=         -191.029108

                     E (Thermal)             CV                S
                      KCal/Mol        Cal/Mol-Kelvin    Cal/Mol-Kelvin
 Total                   28.392             16.809             73.795
 Electronic               0.000              0.000              2.755
 Translational            0.889              2.981             38.294
 Rotational               0.889              2.981             23.422
 Vibrational             26.615             10.847              9.325
 Vibration     1          0.612              1.922              2.928
 Vibration     2          0.650              1.802              1.915
 Vibration     3          0.657              1.780              1.808
 Vibration     4          0.707              1.632              1.301
 Vibration     5          0.870              1.217              0.622

 Optimization completed.
    -- Stationary point found.
 Normal termination of Gaussian 09 at Thu Jan 31 04:51:50 2019.
