 Gaussian 09, Revision E.01,
 Gaussian 09:  EM64L-G09RevE.01 30-Nov-2015

 ---------------------------------------------
 #p b3lyp/6-311++G(3df,2p) freq symmetry=Loose
 ---------------------------------------------

 ---------
 b3lyp opt
 ---------
 Symbolic Z-matrix:
 Charge =  2 Multiplicity = 3

                         Standard orientation:
 ---------------------------------------------------------------------
 Center     Atomic      Atomic             Coordinates (Angstroms)
 Number     Number       Type             X           Y           Z
 ---------------------------------------------------------------------
      1          6           0       -1.962642   -0.810505    0.000000
      2          6           0       -1.033204    0.013893    0.000000
      3          6           0       -0.000000    0.908836   -0.000000
      4          6           0        1.213995    0.243119   -0.000000
      5          6           0        2.265510   -0.438198    0.000000
      6          1           0       -2.800696   -1.504772    0.000000
      7          1           0       -0.101256    2.001903   -0.000000
 ---------------------------------------------------------------------

 SCF Done:  E(UB3LYP) =  -190.579752159     A.U. after   22 cycles

 The electronic state is 3-A'.
 Alpha  occ. eigenvalues --  -10.81269 -10.76432 -10.74460 -10.74007 -10.70778
 Alpha  occ. eigenvalues --   -1.35329  -1.28854  -1.22881  -1.05812  -0.99874
 Alpha  occ. eigenvalues --   -0.98127  -0.89765  -0.86482  -0.82705  -0.79084
 Alpha  occ. eigenvalues --   -0.79076
 Alpha virt. eigenvalues --   -0.63663  -0.50316  -0.45295  -0.44172  -0.36162
 Alpha virt. eigenvalues --   -0.34191  -0.29535  -0.28090  -0.26360  -0.24990
 Alpha virt. eigenvalues --   -0.24307  -0.22352  -0.21302  -0.20558  -0.20344

  Beta  occ. eigenvalues --  -10.78030 -10.76425 -10.74008 -10.73693 -10.70547
  Beta  occ. eigenvalues --   -1.34144  -1.25564  -1.20655  -1.05087  -0.99329
  Beta  occ. eigenvalues --   -0.97713  -0.86012  -0.77592  -0.76061
  Beta virt. eigenvalues --   -0.69465  -0.65306  -0.62112  -0.45486  -0.43252
  Beta virt. eigenvalues --   -0.39628  -0.35156  -0.33907  -0.29154  -0.27845
  Beta virt. eigenvalues --   -0.25905  -0.24919  -0.24048  -0.21947  -0.20639

 Mulliken charges and spin densities:
               1          2
     1  C    0.652925   0.145693
     2  C    0.159055   0.133059
     3  C   -0.735230   0.137186
     4  C    0.632476   0.199745
     5  C    0.549206   1.398776
     6  H    0.439954  -0.005377
     7  H    0.301614  -0.009081
 Sum of Mulliken charges =   2.00000   2.00000

 Dipole moment (field-independent basis, Debye):
    X=             -0.2607    Y=             -0.7866    Z=              0.0000  Tot=              0.8287
 Quadrupole moment (field-independent basis, Debye-Ang):
   XX=             13.2777   YY=            -11.7778   ZZ=            -23.9437
   XY=              5.7167   XZ=             -0.0000   YZ=             -0.0000

  Exact polarizability: 140.852  11.387  40.308   0.000  -0.000  24.282
 Approx polarizability: 388.688  42.100  76.916  -0.000  -0.000  33.613

                      1                      2                      3
                     A'                     A"                     A"
 Frequencies --    124.2736               276.0507               302.2881
 Red. masses --      5.8818                 5.1313                 3.1623
 Frc consts  --      0.0535                 0.2304                 0.1703
 IR Inten    --      5.4104                 8.9216                28.5122

                      4                      5                      6
                     A'                     A'                     A'
 Frequencies --    320.8503               509.9796               733.7832
 Red. masses --      5.9556                 8.9233                 1.2878
 Frc consts  --      0.3612                 1.3673                 0.4085
 IR Inten    --     19.5304                21.4364                31.9740

                      7                      8                      9
                     A"                     A"                     A'
 Frequencies --    818.0987               844.6373               976.7939
 Red. masses --      1.4695                 1.4700                 3.9216
 Frc consts  --      0.5795                 0.6179                 2.2045
 IR Inten    --      0.3236                19.9859               425.0268

                     10                     11                     12
                     A'                     A'                     A'
 Frequencies --   1043.7346              1260.8402              1939.1556
 Red. masses --      6.4702                 1.3102                10.8254
 Frc consts  --      4.1529                 1.2272                23.9840
 IR Inten    --     37.2721               372.1905              1434.2982

                     13                     14                     15
                     A'                     A'                     A'
 Frequencies --   2041.1860              3053.2841              3217.0662
 Red. masses --      6.4675                 1.0967                 1.1644
 Frc consts  --     15.8764                 6.0237                 7.1001
 IR Inten    --    424.1240               176.8599               245.7167

 - Thermochemistry -
 -------------------
 Temperature   298.150 Kelvin.  Pressure   1.00000 Atm.
 Atom     1 has atomic number  6 and mass  12.00000

 Molecular mass:    62.01565 amu.
 Principal axes and moments of inertia in atomic units:
                           1         2         3
     Eigenvalues --    90.56020 528.01677 618.57697
           X            0.99276  -0.12015   0.00000
           Y            0.12015   0.99276   0.00000
           Z            0.00000  -0.00000   1.00000
 This molecule is an asymmetric top.
 Rotational symmetry number  1.
 Rotational temperatures (Kelvin)      0.95642     0.16404     0.14002
 Rotational constants (GHZ):          19.92863     3.41796     2.91757
 Zero-point vibrational energy     104446.1 (Joules/Mol)
                                   24.96321 (Kcal/Mol)
 Warning -- explicit consideration of   5 degrees of freedom as
           vibrations may cause significant error
 Vibrational temperatures:    178.80   397.17   434.92   461.63   733.75
          (Kelvin)           1055.75  1177.06  1215.24  1405.39  1501.70
                             1814.07  2790.01  2936.81  4392.99  4628.63

 Zero-point correction=                           0.039781 (Hartree/Particle)
 Thermal correction to Energy=                    0.045108
 Thermal correction to Enthalpy=                  0.046053
 Thermal correction to Gibbs Free Energy=         0.010817
 Sum of electronic and zero-point Energies=           -190.539971
 Sum of electronic and thermal Energies=              -190.534644
 Sum of electronic and thermal Enthalpies=            -190.533700
 Sum of electronic and thermal Free Energies=         -190.568935

                     E (Thermal)             CV                S
                      KCal/Mol        Cal/Mol-Kelvin    Cal/Mol-Kelvin
 Total                   28.306             17.035             74.159
 Electronic               0.000              0.000              2.183
 Translational            0.889              2.981             38.294
 Rotational               0.889              2.981             24.895
 Vibrational             26.528             11.073              8.786
 Vibration     1          0.610              1.929              3.033
 Vibration     2          0.678              1.718              1.558
 Vibration     3          0.694              1.669              1.404
 Vibration     4          0.706              1.634              1.306
 Vibration     5          0.865              1.228              0.634

 Optimization completed.
    -- Stationary point found.
 Normal termination of Gaussian 09 at Tue Jul 19 07:30:54 2016.
