 Gaussian 09, Revision E.01,
 Gaussian 09:  EM64L-G09RevE.01 30-Nov-2015

 ---------------------------------------------
 #p b3lyp/6-311++G(3df,2p) freq symmetry=Loose
 ---------------------------------------------

 ---------
 b3lyp opt
 ---------
 Symbolic Z-matrix:
 Charge =  3 Multiplicity = 2

                         Standard orientation:
 ---------------------------------------------------------------------
 Center     Atomic      Atomic             Coordinates (Angstroms)
 Number     Number       Type             X           Y           Z
 ---------------------------------------------------------------------
      1          6           0       -1.444147   -0.009598   -0.000000
      2          6           0       -0.000000    0.705688    0.000000
      3          6           0        1.446979    0.719330    0.000000
      4          6           0        1.003999   -0.566344   -0.000000
      5          6           0       -0.312744   -0.885444   -0.000000
      6          1           0       -2.082261    0.109100    0.945286
      7          1           0       -2.082261    0.109100   -0.945286
 ---------------------------------------------------------------------

 SCF Done:  E(UB3LYP) =  -189.639213063     A.U. after   17 cycles

 The electronic state is 2-A'.
 Alpha  occ. eigenvalues --  -11.17656 -11.16680 -11.16564 -11.13869 -11.04493
 Alpha  occ. eigenvalues --   -1.85419  -1.64074  -1.50180  -1.35747  -1.27371
 Alpha  occ. eigenvalues --   -1.27232  -1.25762  -1.20219  -1.15535  -1.10870
 Alpha virt. eigenvalues --   -0.96732  -0.89755  -0.88897  -0.77460  -0.75175
 Alpha virt. eigenvalues --   -0.68845  -0.57968  -0.54247  -0.51357  -0.50422
 Alpha virt. eigenvalues --   -0.49236  -0.44787  -0.44126  -0.42257  -0.40880

  Beta  occ. eigenvalues --  -11.17399 -11.16457 -11.14336 -11.13818 -11.04554
  Beta  occ. eigenvalues --   -1.84954  -1.63262  -1.49615  -1.34673  -1.27026
  Beta  occ. eigenvalues --   -1.27008  -1.24369  -1.16253  -1.15234
  Beta virt. eigenvalues --   -0.95457  -0.94069  -0.88568  -0.88178  -0.76075
  Beta virt. eigenvalues --   -0.72749  -0.68269  -0.57855  -0.53682  -0.50520
  Beta virt. eigenvalues --   -0.50059  -0.48519  -0.44758  -0.43250  -0.42093

 Mulliken charges and spin densities:
               1          2
     1  C   -0.040091  -0.013494
     2  C    0.400287   0.047166
     3  C    0.810099   0.943024
     4  C    0.349163  -0.092515
     5  C    0.720234   0.130353
     6  H    0.380155  -0.007267
     7  H    0.380155  -0.007267
 Sum of Mulliken charges =   3.00000   1.00000

 Dipole moment (field-independent basis, Debye):
    X=             -1.4387    Y=             -0.0788    Z=             -0.0000  Tot=              1.4408
 Quadrupole moment (field-independent basis, Debye-Ang):
   XX=              7.1260   YY=            -13.2708   ZZ=            -17.2939
   XY=              2.1226   XZ=              0.0000   YZ=             -0.0000

  Exact polarizability:  51.684   2.902  31.153   0.000   0.000  22.257
 Approx polarizability: 112.973   7.193  77.771   0.000  -0.000  34.335

                      1                      2                      3
                     A'                     A"                     A"
 Frequencies --    237.3637               313.7599               409.0057
 Red. masses --      9.4852                 5.5182                 2.4377
 Frc consts  --      0.3149                 0.3201                 0.2403
 IR Inten    --     16.5287                 0.4385                14.2548

                      4                      5                      6
                     A'                     A'                     A"
 Frequencies --    557.6114               578.7569               844.4318
 Red. masses --     10.7634                 9.7494                 1.8642
 Frc consts  --      1.9718                 1.9241                 0.7832
 IR Inten    --     10.9828                 7.3488                11.3254

                      7                      8                      9
                     A"                     A'                     A'
 Frequencies --    893.4864               943.1491               974.3458
 Red. masses --      1.1366                 5.7491                 2.8095
 Frc consts  --      0.5346                 3.0131                 1.5715
 IR Inten    --      0.7847               116.9039                19.2640

                     10                     11                     12
                     A'                     A'                     A'
 Frequencies --   1045.9167              1130.2994              1408.2709
 Red. masses --      1.7366                 1.2022                 8.8950
 Frc consts  --      1.1193                 0.9049                10.3937
 IR Inten    --     86.0886               257.4198               103.4386

                     13                     14                     15
                     A'                     A'                     A"
 Frequencies --   1581.1710              2543.3745              2561.5360
 Red. masses --      9.0792                 1.0495                 1.1155
 Frc consts  --     13.3738                 4.0001                 4.3123
 IR Inten    --    205.4636              1093.4429               551.7389

 - Thermochemistry -
 -------------------
 Temperature   298.150 Kelvin.  Pressure   1.00000 Atm.
 Atom     1 has atomic number  6 and mass  12.00000

 Molecular mass:    62.01565 amu.
 Principal axes and moments of inertia in atomic units:
                           1         2         3
     Eigenvalues --    91.72712 268.78835 347.65167
           X            0.98392  -0.17860   0.00000
           Y            0.17860   0.98392   0.00000
           Z            0.00000  -0.00000   1.00000
 This molecule is an asymmetric top.
 Rotational symmetry number  1.
 Rotational temperatures (Kelvin)      0.94426     0.32224     0.24914
 Rotational constants (GHZ):          19.67511     6.71436     5.19123
 Zero-point vibrational energy      95835.7 (Joules/Mol)
                                   22.90528 (Kcal/Mol)
 Warning -- explicit consideration of   5 degrees of freedom as
           vibrations may cause significant error
 Vibrational temperatures:    341.51   451.43   588.47   802.28   832.70
          (Kelvin)           1214.95  1285.53  1356.98  1401.86  1504.84
                             1626.25  2026.19  2274.95  3659.34  3685.47

 Zero-point correction=                           0.036502 (Hartree/Particle)
 Thermal correction to Energy=                    0.041172
 Thermal correction to Enthalpy=                  0.042116
 Thermal correction to Gibbs Free Energy=         0.009263
 Sum of electronic and zero-point Energies=           -189.602711
 Sum of electronic and thermal Energies=              -189.598041
 Sum of electronic and thermal Enthalpies=            -189.597097
 Sum of electronic and thermal Free Energies=         -189.629950

                     E (Thermal)             CV                S
                      KCal/Mol        Cal/Mol-Kelvin    Cal/Mol-Kelvin
 Total                   25.836             15.729             69.145
 Electronic               0.000              0.000              1.377
 Translational            0.889              2.981             38.294
 Rotational               0.889              2.981             23.665
 Vibrational             24.058              9.767              5.809
 Vibration     1          0.656              1.783              1.823
 Vibration     2          0.702              1.647              1.342
 Vibration     3          0.773              1.451              0.930
 Vibration     4          0.913              1.123              0.529
 Vibration     5          0.935              1.077              0.488

 Optimization completed.
    -- Stationary point found.
 Normal termination of Gaussian 09 at Tue Jul 19 07:29:44 2016.
