 Gaussian 09, Revision E.01,
 Gaussian 09:  EM64L-G09RevE.01 30-Nov-2015

 ------------------------------------------------------
 #p b3lyp/6-311++G(3df,2p) freq IOp(2/17=3) IOp(2/18=3)
 ------------------------------------------------------

 ---------
 b3lyp opt
 ---------
 Symbolic Z-matrix:
 Charge =  0 Multiplicity = 3

                         Standard orientation:
 ---------------------------------------------------------------------
 Center     Atomic      Atomic             Coordinates (Angstroms)
 Number     Number       Type             X           Y           Z
 ---------------------------------------------------------------------
      1          6           0        0.000000    0.473033    0.000000
      2          6           0       -0.270620   -0.668540   -0.881778
      3          6           0        0.086500   -1.659202   -0.000000
      4          6           0       -0.270620   -0.668540    0.881778
      5          6           0        0.307881    1.758652    0.000000
      6          1           0        0.440312    2.293823    0.928815
      7          1           0        0.440312    2.293823   -0.928815
 ---------------------------------------------------------------------

 SCF Done:  E(UB3LYP) =  -191.466246880     A.U. after   17 cycles

 The electronic state is 3-A".
 Alpha  occ. eigenvalues --  -10.26086 -10.26081 -10.25533 -10.25267 -10.20727
 Alpha  occ. eigenvalues --   -0.98370  -0.79133  -0.64124  -0.61404  -0.50779
 Alpha  occ. eigenvalues --   -0.48698  -0.44887  -0.40061  -0.36904  -0.31936
 Alpha  occ. eigenvalues --   -0.28074  -0.23778
 Alpha virt. eigenvalues --   -0.07408  -0.06283  -0.00256   0.01977   0.02725
 Alpha virt. eigenvalues --    0.04075   0.05076   0.05320   0.05719   0.07654
 Alpha virt. eigenvalues --    0.09398   0.09688   0.10531   0.11416   0.12423

  Beta  occ. eigenvalues --  -10.25002 -10.24915 -10.24914 -10.24284 -10.20588
  Beta  occ. eigenvalues --   -0.96603  -0.78460  -0.62292  -0.57986  -0.49779
  Beta  occ. eigenvalues --   -0.47812  -0.41791  -0.38868  -0.31707  -0.28016
  Beta virt. eigenvalues --   -0.16582  -0.11317  -0.05391  -0.03985  -0.00180
  Beta virt. eigenvalues --    0.02819   0.02945   0.04550   0.05567   0.05852
  Beta virt. eigenvalues --    0.06236   0.07812   0.10027   0.10191   0.11020

 Mulliken charges and spin densities:
               1          2
     1  C    0.595047   0.054239
     2  C   -0.238103   0.591936
     3  C   -0.040357   0.660229
     4  C   -0.238103   0.591936
     5  C   -0.445044   0.098118
     6  H    0.183280   0.001770
     7  H    0.183280   0.001770
 Sum of Mulliken charges =  -0.00000   2.00000

 Dipole moment (field-independent basis, Debye):
    X=              0.6766    Y=              1.7203    Z=              0.0000  Tot=              1.8486
 Quadrupole moment (field-independent basis, Debye-Ang):
   XX=            -30.4985   YY=            -27.1813   ZZ=            -30.5572
   XY=              0.8672   XZ=             -0.0000   YZ=              0.0000

  Exact polarizability:  37.128   3.476  88.495   0.000   0.000  56.532
 Approx polarizability:  54.478   1.427 154.511   0.000   0.000 110.236

                      1                      2                      3
                     A'                     A"                     A'
 Frequencies --    274.1173               358.6713               587.7286
 Red. masses --      6.1380                 2.8839                 9.6470
 Frc consts  --      0.2717                 0.2186                 1.9633
 IR Inten    --      0.1753                 0.0408                14.4657

                      4                      5                      6
                     A'                     A"                     A"
 Frequencies --    630.9799               661.2637               740.1458
 Red. masses --      8.5956                 1.5067                 2.5591
 Frc consts  --      2.0163                 0.3882                 0.8260
 IR Inten    --      6.6056                 5.9101                26.0821

                      7                      8                      9
                     A'                     A'                     A"
 Frequencies --    910.5466               933.8197              1034.7401
 Red. masses --      1.4124                 5.0916                 1.8990
 Frc consts  --      0.6900                 2.6159                 1.1980
 IR Inten    --     41.3457                 3.4081                 0.1392

                     10                     11                     12
                     A"                     A'                     A'
 Frequencies --   1150.8232              1358.8572              1444.7778
 Red. masses --      5.0866                 8.6976                 1.1935
 Frc consts  --      3.9691                 9.4623                 1.4679
 IR Inten    --      1.2531                51.9553                 0.2022

                     13                     14                     15
                     A'                     A'                     A"
 Frequencies --   1739.8045              3155.1776              3246.0965
 Red. masses --      8.1678                 1.0576                 1.1178
 Frc consts  --     14.5665                 6.2032                 6.9394
 IR Inten    --     11.8507                 0.0829                 0.1332

 - Thermochemistry -
 -------------------
 Temperature   298.150 Kelvin.  Pressure   1.00000 Atm.
 Atom     1 has atomic number  6 and mass  12.00000

 Molecular mass:    62.01565 amu.
 Principal axes and moments of inertia in atomic units:
                           1         2         3
     Eigenvalues --    80.07646 347.09464 412.71523
           X            0.11991   0.00000   0.99278
           Y            0.99278   0.00000  -0.11991
           Z            0.00000   1.00000   0.00000
 This molecule is an asymmetric top.
 Rotational symmetry number  1.
 Rotational temperatures (Kelvin)      1.08164     0.24954     0.20986
 Rotational constants (GHZ):          22.53772     5.19957     4.37285
 Zero-point vibrational energy     109025.0 (Joules/Mol)
                                   26.05759 (Kcal/Mol)
 Warning -- explicit consideration of   3 degrees of freedom as
           vibrations may cause significant error
 Vibrational temperatures:    394.39   516.05   845.61   907.84   951.41
          (Kelvin)           1064.90  1310.07  1343.56  1488.76  1655.78
                             1955.09  2078.71  2503.19  4539.59  4670.40

 Zero-point correction=                           0.041525 (Hartree/Particle)
 Thermal correction to Energy=                    0.045869
 Thermal correction to Enthalpy=                  0.046814
 Thermal correction to Gibbs Free Energy=         0.014008
 Sum of electronic and zero-point Energies=           -191.424721
 Sum of electronic and thermal Energies=              -191.420378
 Sum of electronic and thermal Enthalpies=            -191.419433
 Sum of electronic and thermal Free Energies=         -191.452239

                     E (Thermal)             CV                S
                      KCal/Mol        Cal/Mol-Kelvin    Cal/Mol-Kelvin
 Total                   28.783             14.690             69.046
 Electronic               0.000              0.000              2.183
 Translational            0.889              2.981             38.294
 Rotational               0.889              2.981             23.954
 Vibrational             27.006              8.728              4.614
 Vibration     1          0.676              1.721              1.570
 Vibration     2          0.734              1.557              1.128
 Vibration     3          0.945              1.058              0.471

 Optimization completed.
    -- Stationary point found.
 Normal termination of Gaussian 09 at Thu Jan 31 04:32:07 2019.
