 Gaussian 09, Revision E.01,
 Gaussian 09:  EM64L-G09RevE.01 30-Nov-2015

 ---------------------------------------------
 #p b3lyp/6-311++G(3df,2p) freq symmetry=Loose
 ---------------------------------------------

 ---------
 b3lyp opt
 ---------
 Symbolic Z-matrix:
 Charge =  1 Multiplicity = 2

                         Standard orientation:
 ---------------------------------------------------------------------
 Center     Atomic      Atomic             Coordinates (Angstroms)
 Number     Number       Type             X           Y           Z
 ---------------------------------------------------------------------
      1          6           0        0.000000   -0.000000    0.794500
      2          6           0       -0.000000    0.764866   -0.339458
      3          6           0       -0.000000    0.000000   -1.602579
      4          6           0       -0.000000   -0.764866   -0.339458
      5          6           0        0.000000   -0.000000    2.216018
      6          1           0       -0.918457    0.000000   -2.187067
      7          1           0        0.918457   -0.000000   -2.187067
 ---------------------------------------------------------------------

 SCF Done:  E(UB3LYP) =  -191.114132327     A.U. after   13 cycles

 The electronic state is 2-B1.
 Alpha  occ. eigenvalues --  -10.54654 -10.54629 -10.53683 -10.52159 -10.50982
 Alpha  occ. eigenvalues --   -1.28211  -1.05057  -0.95303  -0.82554  -0.77172
 Alpha  occ. eigenvalues --   -0.76319  -0.68944  -0.64441  -0.58555  -0.55434
 Alpha  occ. eigenvalues --   -0.49654
 Alpha virt. eigenvalues --   -0.39181  -0.34508  -0.27171  -0.22840  -0.16647
 Alpha virt. eigenvalues --   -0.13346  -0.12882  -0.12843  -0.09246  -0.07284
 Alpha virt. eigenvalues --   -0.06836  -0.06286  -0.05336  -0.04949  -0.04127

  Beta  occ. eigenvalues --  -10.54436 -10.54412 -10.52527 -10.52227 -10.51016
  Beta  occ. eigenvalues --   -1.27739  -1.04100  -0.93316  -0.82142  -0.76599
  Beta  occ. eigenvalues --   -0.75408  -0.68876  -0.62639  -0.57439  -0.54132
  Beta virt. eigenvalues --   -0.38024  -0.37651  -0.32884  -0.26927  -0.19197
  Beta virt. eigenvalues --   -0.16539  -0.13098  -0.12813  -0.12704  -0.09125
  Beta virt. eigenvalues --   -0.06643  -0.06517  -0.06203  -0.05077  -0.04768

 Mulliken charges and spin densities:
               1          2
     1  C    0.334066  -0.007443
     2  C    0.802707   0.174295
     3  C   -0.883012  -0.041428
     4  C    0.802707   0.174295
     5  C   -0.570023   0.643491
     6  H    0.256778   0.028396
     7  H    0.256778   0.028396
 Sum of Mulliken charges =   1.00000   1.00000

 Dipole moment (field-independent basis, Debye):
    X=             -0.0000    Y=             -0.0000    Z=             -2.7136  Tot=              2.7136
 Quadrupole moment (field-independent basis, Debye-Ang):
   XX=            -24.4662   YY=            -26.0536   ZZ=            -16.0522
   XY=             -0.0000   XZ=              0.0000   YZ=              0.0000

  Exact polarizability:  30.897   0.000  38.823  -0.000  -0.000  67.690
 Approx polarizability:  45.174  -0.000  91.573   0.000  -0.000 105.806

                      1                      2                      3
                     B2                     B1                     B1
 Frequencies --    204.6233               245.6110               426.9090
 Red. masses --      8.2282                 4.0876                 6.3600
 Frc consts  --      0.2030                 0.1453                 0.6829
 IR Inten    --      1.6805                 0.0356                 5.0583

                      4                      5                      6
                     B2                     A1                     A2
 Frequencies --    571.3421               717.9569               897.3874
 Red. masses --      9.5331                 9.2088                 1.1185
 Frc consts  --      1.8335                 2.7967                 0.5307
 IR Inten    --     94.3897                21.9335                 0.0000

                      7                      8                      9
                     A1                     B1                     B2
 Frequencies --    959.6009              1027.3318              1104.9570
 Red. masses --     11.7695                 1.3738                 2.6032
 Frc consts  --      6.3854                 0.8543                 1.8726
 IR Inten    --      7.6650                 0.5430                10.4575

                     10                     11                     12
                     B2                     A1                     A1
 Frequencies --   1162.6726              1226.2493              1462.7925
 Red. masses --      1.8992                 6.1346                 1.1312
 Frc consts  --      1.5127                 5.4350                 1.4261
 IR Inten    --      5.5792                62.0237                 7.6616

                     13                     14                     15
                     A1                     A1                     B1
 Frequencies --   1670.5040              3073.8835              3155.3784
 Red. masses --     10.1326                 1.0537                 1.1186
 Frc consts  --     16.6597                 5.8662                 6.5621
 IR Inten    --      0.1622                41.3413                43.7640

 - Thermochemistry -
 -------------------
 Temperature   298.150 Kelvin.  Pressure   1.00000 Atm.
 Atom     1 has atomic number  6 and mass  12.00000

 Molecular mass:    62.01565 amu.
 Principal axes and moments of inertia in atomic units:
                           1         2         3
     Eigenvalues --    56.21145 396.83908 440.90656
           X            0.00000   0.00000   1.00000
           Y            0.00000   1.00000  -0.00000
           Z            1.00000   0.00000   0.00000
 This molecule is an asymmetric top.
 Rotational symmetry number  2.
 Rotational temperatures (Kelvin)      1.54086     0.21826     0.19644
 Rotational constants (GHZ):          32.10629     4.54779     4.09325
 Zero-point vibrational energy     107108.8 (Joules/Mol)
                                   25.59963 (Kcal/Mol)
 Warning -- explicit consideration of   4 degrees of freedom as
           vibrations may cause significant error
 Vibrational temperatures:    294.41   353.38   614.23   822.03  1032.98
          (Kelvin)           1291.14  1380.65  1478.10  1589.78  1672.82
                             1764.30  2104.63  2403.48  4422.63  4539.88

 Zero-point correction=                           0.040796 (Hartree/Particle)
 Thermal correction to Energy=                    0.045438
 Thermal correction to Enthalpy=                  0.046383
 Thermal correction to Gibbs Free Energy=         0.014024
 Sum of electronic and zero-point Energies=           -191.073337
 Sum of electronic and thermal Energies=              -191.068694
 Sum of electronic and thermal Enthalpies=            -191.067750
 Sum of electronic and thermal Free Energies=         -191.100109

                     E (Thermal)             CV                S
                      KCal/Mol        Cal/Mol-Kelvin    Cal/Mol-Kelvin
 Total                   28.513             14.962             68.105
 Electronic               0.000              0.000              1.377
 Translational            0.889              2.981             38.294
 Rotational               0.889              2.981             22.424
 Vibrational             26.736              9.000              6.010
 Vibration     1          0.640              1.833              2.091
 Vibration     2          0.660              1.770              1.762
 Vibration     3          0.789              1.412              0.869
 Vibration     4          0.927              1.093              0.502

 Optimization completed.
    -- Stationary point found.
 Normal termination of Gaussian 09 at Tue Jul 19 05:32:36 2016.
