 Gaussian 09, Revision E.01,
 Gaussian 09:  EM64L-G09RevE.01 30-Nov-2015

 ---------------------------------------------
 #p b3lyp/6-311++G(3df,2p) freq symmetry=Loose
 ---------------------------------------------

 ---------
 b3lyp opt
 ---------
 Symbolic Z-matrix:
 Charge =  0 Multiplicity = 1

                         Standard orientation:
 ---------------------------------------------------------------------
 Center     Atomic      Atomic             Coordinates (Angstroms)
 Number     Number       Type             X           Y           Z
 ---------------------------------------------------------------------
      1          6           0        0.278175   -0.824152   -0.715196
      2          6           0        0.278175   -0.824152    0.715196
      3          6           0       -0.334642    0.432941    0.947364
      4          6           0       -0.000000    1.340184   -0.000000
      5          6           0       -0.334642    0.432941   -0.947364
      6          1           0        0.338798   -1.673280   -1.380103
      7          1           0        0.338798   -1.673280    1.380103
 ---------------------------------------------------------------------

 SCF Done:  E(RB3LYP) =  -191.484536655     A.U. after   13 cycles

 The electronic state is 1-A'.
 Alpha  occ. eigenvalues --  -10.24611 -10.24611 -10.23787 -10.23424 -10.23385
 Alpha  occ. eigenvalues --   -0.95750  -0.75908  -0.70345  -0.54952  -0.54278
 Alpha  occ. eigenvalues --   -0.48215  -0.42841  -0.42225  -0.32631  -0.27281
 Alpha  occ. eigenvalues --   -0.25364
 Alpha virt. eigenvalues --   -0.13365  -0.09880  -0.03060   0.00164   0.01005
 Alpha virt. eigenvalues --    0.02520   0.03904   0.04456   0.06070   0.06859
 Alpha virt. eigenvalues --    0.08745   0.08842   0.08983   0.11136   0.11399

 Mulliken charges:
               1
     1  C   -0.157142
     2  C   -0.157142
     3  C   -0.065584
     4  C    0.093779
     5  C   -0.065584
     6  H    0.175836
     7  H    0.175836
 Sum of Mulliken charges =  -0.00000

 Dipole moment (field-independent basis, Debye):
    X=              0.9615    Y=             -2.2184    Z=             -0.0000  Tot=              2.4178
 Quadrupole moment (field-independent basis, Debye-Ang):
   XX=            -31.8632   YY=            -28.0618   ZZ=            -28.1648
   XY=             -0.7010   XZ=             -0.0000   YZ=              0.0000

  Exact polarizability:  39.968  -6.787  65.550   0.000   0.000  63.876
 Approx polarizability:  66.176 -16.004 132.937   0.000  -0.000 139.009

                      1                      2                      3
                     A'                     A"                     A'
 Frequencies --    305.0282               386.3670               670.0033
 Red. masses --      4.5944                 3.5413                10.6259
 Frc consts  --      0.2519                 0.3115                 2.8104
 IR Inten    --     51.8250                 8.4260                18.3498

                      4                      5                      6
                     A"                     A'                     A"
 Frequencies --    789.5387               854.9902               880.2995
 Red. masses --      6.5906                 1.3505                 1.5934
 Frc consts  --      2.4206                 0.5817                 0.7275
 IR Inten    --     54.0418                29.9987                14.3980

                      7                      8                      9
                     A"                     A'                     A"
 Frequencies --    929.1105              1013.1928              1179.8035
 Red. masses --      4.4923                 1.6533                 2.5508
 Frc consts  --      2.2848                 1.0000                 2.0919
 IR Inten    --    109.8827                29.3479                26.9821

                     10                     11                     12
                     A'                     A'                     A"
 Frequencies --   1184.0494              1249.2871              1322.5935
 Red. masses --      6.9036                 4.1598                 2.0232
 Frc consts  --      5.7025                 3.8252                 2.0852
 IR Inten    --      6.8922               118.3055                11.5317

                     13                     14                     15
                     A'                     A"                     A'
 Frequencies --   1356.7668              3197.3719              3212.9626
 Red. masses --      3.6445                 1.0888                 1.0996
 Frc consts  --      3.9527                 6.5583                 6.6877
 IR Inten    --     13.1769                 1.0197                 1.9599

 - Thermochemistry -
 -------------------
 Temperature   298.150 Kelvin.  Pressure   1.00000 Atm.
 Atom     1 has atomic number  6 and mass  12.00000

 Molecular mass:    62.01565 amu.
 Principal axes and moments of inertia in atomic units:
                           1         2         3
     Eigenvalues --   143.47932 187.79407 313.25366
           X           -0.21735   0.00000   0.97609
           Y            0.97609   0.00000   0.21735
           Z           -0.00000   1.00000  -0.00000
 This molecule is an asymmetric top.
 Rotational symmetry number  1.
 Rotational temperatures (Kelvin)      0.60367     0.46122     0.27650
 Rotational constants (GHZ):          12.57841     9.61021     5.76128
 Zero-point vibrational energy     110842.2 (Joules/Mol)
                                   26.49192 (Kcal/Mol)
 Warning -- explicit consideration of   2 degrees of freedom as
           vibrations may cause significant error
 Vibrational temperatures:    438.87   555.90   963.98  1135.97  1230.14
          (Kelvin)           1266.55  1336.78  1457.76  1697.47  1703.58
                             1797.44  1902.91  1952.08  4600.30  4622.73

 Zero-point correction=                           0.042218 (Hartree/Particle)
 Thermal correction to Energy=                    0.046268
 Thermal correction to Enthalpy=                  0.047212
 Thermal correction to Gibbs Free Energy=         0.016040
 Sum of electronic and zero-point Energies=           -191.442319
 Sum of electronic and thermal Energies=              -191.438269
 Sum of electronic and thermal Enthalpies=            -191.437324
 Sum of electronic and thermal Free Energies=         -191.468496

                     E (Thermal)             CV                S
                      KCal/Mol        Cal/Mol-Kelvin    Cal/Mol-Kelvin
 Total                   29.034             13.466             65.606
 Electronic               0.000              0.000              0.000
 Translational            0.889              2.981             38.294
 Rotational               0.889              2.981             23.649
 Vibrational             27.256              7.505              3.663
 Vibration     1          0.696              1.664              1.389
 Vibration     2          0.755              1.499              1.014

 Optimization completed.
    -- Stationary point found.
 Normal termination of Gaussian 09 at Tue Jul 19 05:16:08 2016.
