 Gaussian 09, Revision E.01,
 Gaussian 09:  EM64L-G09RevE.01 30-Nov-2015

 ---------------------------------------------
 #p b3lyp/6-311++G(3df,2p) freq symmetry=Loose
 ---------------------------------------------

 ---------
 b3lyp opt
 ---------
 Symbolic Z-matrix:
 Charge =  0 Multiplicity = 1

                         Standard orientation:
 ---------------------------------------------------------------------
 Center     Atomic      Atomic             Coordinates (Angstroms)
 Number     Number       Type             X           Y           Z
 ---------------------------------------------------------------------
      1          6           0        1.503272   -0.296554    0.023713
      2          6           0        0.561753    0.795093    0.023265
      3          6           0       -0.678337    1.032949   -0.037205
      4          6           0       -1.141166   -0.467347    0.026878
      5          6           0        0.311290   -0.813368   -0.066690
      6          1           0       -1.577887   -0.725945    0.986562
      7          1           0       -1.762984   -0.778696   -0.806332
 ---------------------------------------------------------------------

 SCF Done:  E(RB3LYP) =  -191.455325361     A.U. after   15 cycles

 The electronic state is 1-A.
 Alpha  occ. eigenvalues --  -10.28073 -10.27272 -10.25702 -10.22884 -10.20817
 Alpha  occ. eigenvalues --   -0.97880  -0.80148  -0.71687  -0.55782  -0.51405
 Alpha  occ. eigenvalues --   -0.48470  -0.46550  -0.38772  -0.36680  -0.26845
 Alpha  occ. eigenvalues --   -0.25520
 Alpha virt. eigenvalues --   -0.13193  -0.04997  -0.03777  -0.00725   0.01562
 Alpha virt. eigenvalues --    0.03890   0.04163   0.04760   0.05809   0.06629
 Alpha virt. eigenvalues --    0.07193   0.08007   0.09226   0.10785   0.11873

 Mulliken charges:
               1
     1  C   -0.258973
     2  C    0.321670
     3  C   -0.247798
     4  C   -0.374205
     5  C    0.169908
     6  H    0.202381
     7  H    0.187017
 Sum of Mulliken charges =  -0.00000

 Dipole moment (field-independent basis, Debye):
    X=             -2.6307    Y=             -1.5354    Z=              0.1940  Tot=              3.0522
 Quadrupole moment (field-independent basis, Debye-Ang):
   XX=            -31.7652   YY=            -29.8829   ZZ=            -29.1785
   XY=              4.7943   XZ=             -0.3961   YZ=              0.1188

  Exact polarizability:  71.037  -9.914  55.897   0.495   0.344  36.738
 Approx polarizability: 163.783 -41.183 117.330   2.684   1.456  54.014

                      1                      2                      3
                      A                      A                      A
 Frequencies --     71.1418               392.0209               451.7964
 Red. masses --      3.1292                10.1568                10.1718
 Frc consts  --      0.0093                 0.9197                 1.2233
 IR Inten    --     11.9998                92.9637                70.4021

                      4                      5                      6
                      A                      A                      A
 Frequencies --    593.4469               802.3518               859.5048
 Red. masses --      9.8231                 6.5631                 1.6123
 Frc consts  --      2.0383                 2.4894                 0.7018
 IR Inten    --     59.2074                 1.9488                 0.7628

                      7                      8                      9
                      A                      A                      A
 Frequencies --    908.4243              1007.0056              1072.6207
 Red. masses --      8.8244                 6.7699                 1.1072
 Frc consts  --      4.2906                 4.0448                 0.7505
 IR Inten    --     13.1960                32.1447                 3.6375

                     10                     11                     12
                      A                      A                      A
 Frequencies --   1142.6292              1429.6213              1612.8253
 Red. masses --      1.1687                 1.1048                10.5100
 Frc consts  --      0.8990                 1.3303                16.1075
 IR Inten    --     13.2490                 3.0600                29.8796

                     13                     14                     15
                      A                      A                      A
 Frequencies --   1796.1829              3107.0888              3174.9553
 Red. masses --     11.4146                 1.0551                 1.1101
 Frc consts  --     21.6976                 6.0012                 6.5931
 IR Inten    --    164.9735                 0.5835                 1.7951

 - Thermochemistry -
 -------------------
 Temperature   298.150 Kelvin.  Pressure   1.00000 Atm.
 Atom     1 has atomic number  6 and mass  12.00000

 Molecular mass:    62.01565 amu.
 Principal axes and moments of inertia in atomic units:
                           1         2         3
     Eigenvalues --   123.49128 216.64013 327.79778
           X            0.99505   0.09932  -0.00266
           Y           -0.09933   0.99505  -0.00315
           Z            0.00234   0.00340   0.99999
 This molecule is an asymmetric top.
 Rotational symmetry number  1.
 Rotational temperatures (Kelvin)      0.70138     0.39981     0.26423
 Rotational constants (GHZ):          14.61432     8.33060     5.50565
 Zero-point vibrational energy     110185.7 (Joules/Mol)
                                   26.33502 (Kcal/Mol)
 Warning -- explicit consideration of   4 degrees of freedom as
           vibrations may cause significant error
 Vibrational temperatures:    102.36   564.03   650.03   853.84  1154.40
          (Kelvin)           1236.63  1307.02  1448.85  1543.26  1643.99
                             2056.90  2320.49  2584.30  4470.40  4568.05

 Zero-point correction=                           0.041968 (Hartree/Particle)
 Thermal correction to Energy=                    0.046623
 Thermal correction to Enthalpy=                  0.047567
 Thermal correction to Gibbs Free Energy=         0.014740
 Sum of electronic and zero-point Energies=           -191.413358
 Sum of electronic and thermal Energies=              -191.408702
 Sum of electronic and thermal Enthalpies=            -191.407758
 Sum of electronic and thermal Free Energies=         -191.440585

                     E (Thermal)             CV                S
                      KCal/Mol        Cal/Mol-Kelvin    Cal/Mol-Kelvin
 Total                   29.257             14.604             69.091
 Electronic               0.000              0.000              0.000
 Translational            0.889              2.981             38.294
 Rotational               0.889              2.981             23.687
 Vibrational             27.479              8.642              7.109
 Vibration     1          0.598              1.968              4.122
 Vibration     2          0.759              1.487              0.992
 Vibration     3          0.810              1.357              0.790
 Vibration     4          0.951              1.046              0.461

 Optimization completed.
    -- Stationary point found.
 Normal termination of Gaussian 09 at Sun Jun 19 01:30:19 2016.
