 Gaussian 09, Revision E.01,
 Gaussian 09:  EM64L-G09RevE.01 30-Nov-2015

 ------------------------------------------------------
 #p b3lyp/6-311++G(3df,2p) freq IOp(2/17=3) IOp(2/18=3)
 ------------------------------------------------------

 ---------
 b3lyp opt
 ---------
 Symbolic Z-matrix:
 Charge =  1 Multiplicity = 4

                         Standard orientation:
 ---------------------------------------------------------------------
 Center     Atomic      Atomic             Coordinates (Angstroms)
 Number     Number       Type             X           Y           Z
 ---------------------------------------------------------------------
      1          6           0       -0.334901    0.600369    0.000000
      2          6           0        1.028350   -0.449175    0.000000
      3          6           0       -0.087124   -1.419575    0.000000
      4          6           0       -1.140168   -0.513352    0.000000
      5          6           0       -0.000000    1.899228    0.000000
      6          1           0        1.601467   -0.352486    0.920416
      7          1           0        1.601467   -0.352486   -0.920416
 ---------------------------------------------------------------------

 SCF Done:  E(UB3LYP) =  -191.054499658     A.U. after   18 cycles

 The electronic state is 4-A".
 Alpha  occ. eigenvalues --  -10.54459 -10.53305 -10.52898 -10.50259 -10.49791
 Alpha  occ. eigenvalues --   -1.19983  -1.03558  -0.96217  -0.84100  -0.74288
 Alpha  occ. eigenvalues --   -0.74051  -0.70492  -0.61714  -0.58191  -0.55514
 Alpha  occ. eigenvalues --   -0.54139  -0.53987
 Alpha virt. eigenvalues --   -0.36700  -0.33702  -0.20843  -0.17972  -0.16608
 Alpha virt. eigenvalues --   -0.12245  -0.11655  -0.09416  -0.09180  -0.07422
 Alpha virt. eigenvalues --   -0.07366  -0.06377  -0.05832  -0.04467  -0.02884

  Beta  occ. eigenvalues --  -10.52431 -10.52156 -10.50960 -10.50083 -10.49428
  Beta  occ. eigenvalues --   -1.16964  -0.99866  -0.94357  -0.79715  -0.72564
  Beta  occ. eigenvalues --   -0.70689  -0.67118  -0.58474  -0.55309
  Beta virt. eigenvalues --   -0.42832  -0.40548  -0.36262  -0.33734  -0.27248
  Beta virt. eigenvalues --   -0.17279  -0.16920  -0.16305  -0.11657  -0.10813
  Beta virt. eigenvalues --   -0.09054  -0.08254  -0.07069  -0.06777  -0.05858

 Mulliken charges and spin densities:
               1          2
     1  C    0.711349   0.251439
     2  C   -0.602296   0.009260
     3  C    0.360827   1.231575
     4  C    0.221911   0.932160
     5  C   -0.199454   0.547646
     6  H    0.253832   0.013960
     7  H    0.253832   0.013960
 Sum of Mulliken charges =   1.00000   3.00000

 Dipole moment (field-independent basis, Debye):
    X=              1.0276    Y=             -1.3348    Z=              0.0000  Tot=              1.6845
 Quadrupole moment (field-independent basis, Debye-Ang):
   XX=            -19.9473   YY=            -23.2977   ZZ=            -24.7131
   XY=             -1.6539   XZ=              0.0000   YZ=             -0.0000

  Exact polarizability:  45.944   1.583  71.454  -0.000  -0.000  32.843
 Approx polarizability:  76.775   0.971 160.253   0.000  -0.000  47.819

                      1                      2                      3
                     A'                     A"                     A'
 Frequencies --    130.5395               143.8497               404.9661
 Red. masses --      8.5367                 6.4489                 9.6584
 Frc consts  --      0.0857                 0.0786                 0.9332
 IR Inten    --      4.8571                 4.9943                53.4934

                      4                      5                      6
                     A"                     A'                     A"
 Frequencies --    467.6725               636.6516               911.5140
 Red. masses --      3.8523                 8.0890                 1.4144
 Frc consts  --      0.4964                 1.9317                 0.6924
 IR Inten    --      0.3250                 0.8087                 2.1088

                      7                      8                      9
                     A"                     A'                     A'
 Frequencies --   1000.9937              1011.6979              1036.9821
 Red. masses --      1.1179                 3.0239                 7.9323
 Frc consts  --      0.6599                 1.8236                 5.0257
 IR Inten    --      0.2257                 8.7776                34.6611

                     10                     11                     12
                     A'                     A'                     A'
 Frequencies --   1176.5279              1361.2055              1436.1300
 Red. masses --      1.5861                 5.8149                 1.2263
 Frc consts  --      1.2936                 6.3480                 1.4902
 IR Inten    --     54.2557                27.9125                19.3044

                     13                     14                     15
                     A'                     A'                     A"
 Frequencies --   1665.5892              3072.9807              3166.9982
 Red. masses --     11.9268                 1.0510                 1.1167
 Frc consts  --     19.4945                 5.8476                 6.5992
 IR Inten    --    216.6407                30.8567                35.1213

 - Thermochemistry -
 -------------------
 Temperature   298.150 Kelvin.  Pressure   1.00000 Atm.
 Atom     1 has atomic number  6 and mass  12.00000

 Molecular mass:    62.01565 amu.
 Principal axes and moments of inertia in atomic units:
                           1         2         3
     Eigenvalues --   130.10833 283.30370 401.21621
           X           -0.01282   0.99992   0.00000
           Y            0.99992   0.01282   0.00000
           Z           -0.00000   0.00000   1.00000
 This molecule is an asymmetric top.
 Rotational symmetry number  1.
 Rotational temperatures (Kelvin)      0.66571     0.30573     0.21588
 Rotational constants (GHZ):          13.87107     6.37034     4.49818
 Zero-point vibrational energy     105416.7 (Joules/Mol)
                                   25.19520 (Kcal/Mol)
 Warning -- explicit consideration of   4 degrees of freedom as
           vibrations may cause significant error
 Vibrational temperatures:    187.82   206.97   582.66   672.88   916.00
          (Kelvin)           1311.46  1440.20  1455.61  1491.98  1692.76
                             1958.47  2066.27  2396.41  4421.33  4556.60

 Zero-point correction=                           0.040151 (Hartree/Particle)
 Thermal correction to Energy=                    0.045202
 Thermal correction to Enthalpy=                  0.046146
 Thermal correction to Gibbs Free Energy=         0.011219
 Sum of electronic and zero-point Energies=           -191.014349
 Sum of electronic and thermal Energies=              -191.009298
 Sum of electronic and thermal Enthalpies=            -191.008354
 Sum of electronic and thermal Free Energies=         -191.043280

                     E (Thermal)             CV                S
                      KCal/Mol        Cal/Mol-Kelvin    Cal/Mol-Kelvin
 Total                   28.364             15.570             73.509
 Electronic               0.000              0.000              2.755
 Translational            0.889              2.981             38.294
 Rotational               0.889              2.981             24.207
 Vibrational             26.587              9.609              8.254
 Vibration     1          0.612              1.923              2.938
 Vibration     2          0.616              1.909              2.752
 Vibration     3          0.770              1.459              0.945
 Vibration     4          0.825              1.322              0.744

 Optimization completed.
    -- Stationary point found.
 Normal termination of Gaussian 09 at Thu Jan 31 04:55:44 2019.
