 Gaussian 09, Revision E.01,
 Gaussian 09:  EM64L-G09RevE.01 30-Nov-2015

 ---------------------------------------------
 #p b3lyp/6-311++G(3df,2p) freq symmetry=Loose
 ---------------------------------------------

 ---------
 b3lyp opt
 ---------
 Symbolic Z-matrix:
 Charge =  0 Multiplicity = 1

                         Standard orientation:
 ---------------------------------------------------------------------
 Center     Atomic      Atomic             Coordinates (Angstroms)
 Number     Number       Type             X           Y           Z
 ---------------------------------------------------------------------
      1          6           0        0.546899    0.000000    0.000046
      2          6           0       -0.671446    0.752613    0.000002
      3          6           0       -1.871372    0.000000   -0.000156
      4          6           0       -0.671446   -0.752613   -0.000114
      5          6           0        1.863705   -0.000000    0.000156
      6          1           0        2.410978   -0.930333    0.000130
      7          1           0        2.410978    0.930333    0.000273
 ---------------------------------------------------------------------

 SCF Done:  E(RB3LYP) =  -191.526619414     A.U. after   11 cycles

 The electronic state is 1-A.
 Alpha  occ. eigenvalues --  -10.27976 -10.27946 -10.27495 -10.23772 -10.22431
 Alpha  occ. eigenvalues --   -1.02162  -0.81649  -0.69758  -0.57071  -0.53023
 Alpha  occ. eigenvalues --   -0.48451  -0.45966  -0.39798  -0.35135  -0.30288
 Alpha  occ. eigenvalues --   -0.27039
 Alpha virt. eigenvalues --   -0.09087  -0.09074  -0.04319  -0.00985   0.02535
 Alpha virt. eigenvalues --    0.03658   0.03820   0.05221   0.05853   0.06151
 Alpha virt. eigenvalues --    0.06911   0.09650   0.10465   0.10829   0.10936

 Mulliken charges:
               1
     1  C    0.632131
     2  C    0.222810
     3  C   -0.677441
     4  C    0.222810
     5  C   -0.802955
     6  H    0.201323
     7  H    0.201323
 Sum of Mulliken charges =  -0.00000

 Dipole moment (field-independent basis, Debye):
    X=              4.1263    Y=             -0.0000    Z=              0.0003  Tot=              4.1263
 Quadrupole moment (field-independent basis, Debye-Ang):
   XX=            -32.9147   YY=            -29.7915   ZZ=            -29.4250
   XY=              0.0000   XZ=             -0.0003   YZ=             -0.0000

  Exact polarizability:  85.442  -0.009  48.145   0.006  -0.006  35.062
 Approx polarizability: 148.719  -0.000  97.886   0.008   0.003  54.101

                      1                      2                      3
                      A                      A                      A
 Frequencies --    261.6479               340.7894               596.6958
 Red. masses --      6.0773                 3.1680                 5.3801
 Frc consts  --      0.2451                 0.2168                 1.1286
 IR Inten    --      2.1727                 0.8592                52.9131

                      4                      5                      6
                      A                      A                      A
 Frequencies --    607.4330               716.3906               800.5346
 Red. masses --      9.6966                 1.1250                 6.3717
 Frc consts  --      2.1080                 0.3402                 2.4058
 IR Inten    --      4.2894                 0.0000                 0.1126

                      7                      8                      9
                      A                      A                      A
 Frequencies --    906.7899               916.5381              1061.3124
 Red. masses --      1.3191                11.3488                 1.6196
 Frc consts  --      0.6391                 5.6169                 1.0749
 IR Inten    --     47.9302                 7.1909                 1.9491

                     10                     11                     12
                      A                      A                      A
 Frequencies --   1087.2838              1419.8536              1457.6901
 Red. masses --      7.9342                 2.6507                 1.7410
 Frc consts  --      5.5263                 3.1485                 2.1796
 IR Inten    --     11.1421                69.3678                15.6285

                     13                     14                     15
                      A                      A                      A
 Frequencies --   1817.5420              3165.3615              3258.8276
 Red. masses --      9.1912                 1.0584                 1.1182
 Frc consts  --     17.8893                 6.2480                 6.9969
 IR Inten    --     48.7403                 3.1300                 0.5608

 - Thermochemistry -
 -------------------
 Temperature   298.150 Kelvin.  Pressure   1.00000 Atm.
 Atom     1 has atomic number  6 and mass  12.00000

 Molecular mass:    62.01565 amu.
 Principal axes and moments of inertia in atomic units:
                           1         2         3
     Eigenvalues --    54.77597 390.89591 445.67188
           X            1.00000  -0.00000  -0.00008
           Y           -0.00000   1.00000  -0.00008
           Z            0.00008   0.00008   1.00000
 This molecule is an asymmetric top.
 Rotational symmetry number  1.
 Rotational temperatures (Kelvin)      1.58124     0.22158     0.19434
 Rotational constants (GHZ):          32.94768     4.61694     4.04948
 Zero-point vibrational energy     110144.3 (Joules/Mol)
                                   26.32512 (Kcal/Mol)
 Warning -- explicit consideration of   4 degrees of freedom as
           vibrations may cause significant error
 Vibrational temperatures:    376.45   490.32   858.51   873.96  1030.72
          (Kelvin)           1151.79  1304.67  1318.69  1526.99  1564.36
                             2042.85  2097.29  2615.03  4554.24  4688.72

 Zero-point correction=                           0.041952 (Hartree/Particle)
 Thermal correction to Energy=                    0.046301
 Thermal correction to Enthalpy=                  0.047245
 Thermal correction to Gibbs Free Energy=         0.015530
 Sum of electronic and zero-point Energies=           -191.484668
 Sum of electronic and thermal Energies=              -191.480318
 Sum of electronic and thermal Enthalpies=            -191.479374
 Sum of electronic and thermal Free Energies=         -191.511089

                     E (Thermal)             CV                S
                      KCal/Mol        Cal/Mol-Kelvin    Cal/Mol-Kelvin
 Total                   29.054             14.586             66.750
 Electronic               0.000              0.000              0.000
 Translational            0.889              2.981             38.294
 Rotational               0.889              2.981             23.771
 Vibrational             27.277              8.624              4.685
 Vibration     1          0.669              1.743              1.651
 Vibration     2          0.720              1.594              1.208
 Vibration     3          0.955              1.039              0.455
 Vibration     4          0.966              1.016              0.437

 Optimization completed.
    -- Stationary point found.
 Normal termination of Gaussian 09 at Tue Jul 19 04:51:57 2016.
