 Gaussian 09, Revision E.01,
 Gaussian 09:  EM64L-G09RevE.01 30-Nov-2015

 ---------------------------------------------
 #p b3lyp/6-311++G(3df,2p) freq symmetry=Loose
 ---------------------------------------------

 ---------
 b3lyp opt
 ---------
 Symbolic Z-matrix:
 Charge =  0 Multiplicity = 2

                         Standard orientation:
 ---------------------------------------------------------------------
 Center     Atomic      Atomic             Coordinates (Angstroms)
 Number     Number       Type             X           Y           Z
 ---------------------------------------------------------------------
      1          6           0        0.000000    0.000000    0.000000
      2          1           0        0.000000    1.078592    0.000000
      3          1           0       -0.934088   -0.539296    0.000000
      4          1           0        0.934088   -0.539296    0.000000
 ---------------------------------------------------------------------

 SCF Done:  E(UB3LYP) =  -39.8578006036     A.U. after    9 cycles

 The electronic state is 2-A2".
 Alpha  occ. eigenvalues --  -10.18325  -0.69120  -0.42657  -0.42657  -0.23769
 Alpha virt. eigenvalues --   -0.00315   0.03682   0.03682   0.07097   0.09401
 Alpha virt. eigenvalues --    0.09401   0.12382   0.14904   0.18846   0.18846
 Alpha virt. eigenvalues --    0.30080   0.30080   0.33899   0.33899   0.39125

  Beta  occ. eigenvalues --  -10.16913  -0.65194  -0.41722  -0.41722
  Beta virt. eigenvalues --   -0.08057  -0.00085   0.03640   0.03640   0.09264
  Beta virt. eigenvalues --    0.09338   0.09338   0.13040   0.16291   0.19152
  Beta virt. eigenvalues --    0.19152   0.31816   0.31816   0.33936   0.33936

 Mulliken charges and spin densities:
               1          2
     1  C   -0.451317   1.084971
     2  H    0.150439  -0.028324
     3  H    0.150439  -0.028324
     4  H    0.150439  -0.028324
 Sum of Mulliken charges =   0.00000   1.00000

 Dipole moment (field-independent basis, Debye):
    X=             -0.0000    Y=              0.0000    Z=              0.0000  Tot=              0.0000
 Quadrupole moment (field-independent basis, Debye-Ang):
   XX=             -7.3174   YY=             -7.3174   ZZ=             -9.2164
   XY=             -0.0000   XZ=              0.0000   YZ=              0.0000

  Exact polarizability:  15.562  -0.000  15.563   0.000   0.000  16.004
 Approx polarizability:  18.773  -0.000  18.773   0.000   0.000  18.087

                      1                      2                      3
                     A2"                    E'                     E'
 Frequencies --    544.8254              1408.1933              1408.1942
 Red. masses --      1.2356                 1.1022                 1.1022
 Frc consts  --      0.2161                 1.2877                 1.2877
 IR Inten    --     76.6061                 2.5517                 2.5509

                      4                      5                      6
                     A1'                    E'                     E'
 Frequencies --   3101.5348              3277.5862              3277.5873
 Red. masses --      1.0078                 1.1183                 1.1183
 Frc consts  --      5.7120                 7.0779                 7.0779
 IR Inten    --      0.0000                 3.7593                 3.7585

 - Thermochemistry -
 -------------------
 Temperature   298.150 Kelvin.  Pressure   1.00000 Atm.
 Atom     1 has atomic number  6 and mass  12.00000

 Molecular mass:    15.02348 amu.
 Principal axes and moments of inertia in atomic units:
                           1         2         3
     Eigenvalues --     6.28042   6.28042  12.56084
           X           -0.06206   0.99807   0.00000
           Y            0.99807   0.06206   0.00000
           Z           -0.00000  -0.00000   1.00000
 This molecule is an oblate symmetric top.
 Rotational symmetry number  6.
 Rotational temperatures (Kelvin)     13.79109    13.79109     6.89555
 Rotational constants (GHZ):         287.36006   287.36006   143.68003
 Zero-point vibrational energy      77864.5 (Joules/Mol)
                                   18.61005 (Kcal/Mol)
 Warning -- explicit consideration of   1 degrees of freedom as
           vibrations may cause significant error
 Vibrational temperatures:    783.88  2026.07  2026.07  4462.41  4715.71
          (Kelvin)           4715.71

 Zero-point correction=                           0.029657 (Hartree/Particle)
 Thermal correction to Energy=                    0.032697
 Thermal correction to Enthalpy=                  0.033641
 Thermal correction to Gibbs Free Energy=         0.011575
 Sum of electronic and zero-point Energies=            -39.828144
 Sum of electronic and thermal Energies=               -39.825104
 Sum of electronic and thermal Enthalpies=             -39.824159
 Sum of electronic and thermal Free Energies=          -39.846226

                     E (Thermal)             CV                S
                      KCal/Mol        Cal/Mol-Kelvin    Cal/Mol-Kelvin
 Total                   20.518              7.319             46.443
 Electronic               0.000              0.000              1.377
 Translational            0.889              2.981             34.068
 Rotational               0.889              2.981             10.408
 Vibrational             18.740              1.357              0.590
 Vibration     1          0.900              1.151              0.555

 Optimization completed.
    -- Stationary point found.
 Normal termination of Gaussian 09 at Sun Jun 19 15:01:30 2016.
