 Gaussian 09, Revision E.01,
 Gaussian 09:  EM64L-G09RevE.01 30-Nov-2015

 ------------------------------
 #p b3lyp/6-311++G(3df,2p) freq
 ------------------------------

 ---------
 b3lyp opt
 ---------
 Symbolic Z-matrix:
 Charge =  2 Multiplicity = 4

                         Standard orientation:
 ---------------------------------------------------------------------
 Center     Atomic      Atomic             Coordinates (Angstroms)
 Number     Number       Type             X           Y           Z
 ---------------------------------------------------------------------
      1          6           0       -0.000000   -0.000000    0.226988
      2          1           0        0.000000    1.213201   -0.453976
      3          1           0        1.050663   -0.606601   -0.453976
      4          1           0       -1.050663   -0.606601   -0.453976
 ---------------------------------------------------------------------

 SCF Done:  E(UB3LYP) =  -38.4979724684     A.U. after    9 cycles

 The electronic state is 4-A1.
 Alpha  occ. eigenvalues --  -11.03730  -1.39287  -1.09560  -1.09560  -0.99820
 Alpha virt. eigenvalues --   -0.61086  -0.61086  -0.59466  -0.33936  -0.33045
 Alpha virt. eigenvalues --   -0.33045  -0.29501  -0.26782  -0.26782  -0.23101
 Alpha virt. eigenvalues --   -0.20617  -0.20617  -0.14115  -0.08105  -0.08105

  Beta  occ. eigenvalues --  -11.00211  -1.26118
  Beta virt. eigenvalues --   -0.90032  -0.90032  -0.76389  -0.52666  -0.50222
  Beta virt. eigenvalues --   -0.50222  -0.30881  -0.30881  -0.30557  -0.26958
  Beta virt. eigenvalues --   -0.23807  -0.23807  -0.21541  -0.19356  -0.19356

 Mulliken charges and spin densities:
               1          2
     1  C    0.477277   1.999945
     2  H    0.507574   0.333352
     3  H    0.507574   0.333352
     4  H    0.507574   0.333352
 Sum of Mulliken charges =   2.00000   3.00000

 Dipole moment (field-independent basis, Debye):
    X=             -0.0000    Y=              0.0000    Z=             -2.3946  Tot=              2.3946
 Quadrupole moment (field-independent basis, Debye-Ang):
   XX=              1.0655   YY=              1.0655   ZZ=             -3.4853
   XY=             -0.0000   XZ=              0.0000   YZ=             -0.0000

  Exact polarizability:  13.188  -0.000  13.188  -0.000  -0.000   8.862
 Approx polarizability:  17.140  -0.000  17.140   0.000  -0.000  11.333

                      1                      2                      3
                      E                      E                     A1
 Frequencies --    633.1899               633.1900               755.7429
 Red. masses --      1.0116                 1.0116                 1.1415
 Frc consts  --      0.2390                 0.2390                 0.3841
 IR Inten    --    326.5363               326.5378               161.1190

                      4                      5                      6
                      E                      E                     A1
 Frequencies --   1076.7006              1076.7009              1547.4914
 Red. masses --      1.1439                 1.1439                 1.0805
 Frc consts  --      0.7813                 0.7813                 1.5245
 IR Inten    --    618.6782               618.6760               212.7377

 - Thermochemistry -
 -------------------
 Temperature   298.150 Kelvin.  Pressure   1.00000 Atm.
 Atom     1 has atomic number  6 and mass  12.00000

 Molecular mass:    15.02348 amu.
 Principal axes and moments of inertia in atomic units:
                           1         2         3
     Eigenvalues --    11.94495  11.94495  15.89168
           X           -0.09841   0.99515  -0.00000
           Y            0.99515   0.09841   0.00000
           Z           -0.00000   0.00000   1.00000
 This molecule is an oblate symmetric top.
 Rotational symmetry number  3.
 Rotational temperatures (Kelvin)      7.25108     7.25108     5.45026
 Rotational constants (GHZ):         151.08818   151.08818   113.56514
 Zero-point vibrational energy      34231.2 (Joules/Mol)
                                    8.18146 (Kcal/Mol)
 Vibrational temperatures:    911.02   911.02  1087.34  1549.13  1549.13
          (Kelvin)           2226.49

 Zero-point correction=                           0.013038 (Hartree/Particle)
 Thermal correction to Energy=                    0.016307
 Thermal correction to Enthalpy=                  0.017251
 Thermal correction to Gibbs Free Energy=        -0.007126
 Sum of electronic and zero-point Energies=            -38.484934
 Sum of electronic and thermal Energies=               -38.481666
 Sum of electronic and thermal Enthalpies=             -38.480722
 Sum of electronic and thermal Free Energies=          -38.505098

                     E (Thermal)             CV                S
                      KCal/Mol        Cal/Mol-Kelvin    Cal/Mol-Kelvin
 Total                   10.233              9.277             51.305
 Electronic               0.000              0.000              2.755
 Translational            0.889              2.981             34.068
 Rotational               0.889              2.981             13.297
 Vibrational              8.455              3.315              1.185

 Optimization completed.
    -- Stationary point found.
 Normal termination of Gaussian 09 at Thu Jul  7 22:47:32 2016.
