 Gaussian 09, Revision E.01,
 Gaussian 09:  EM64L-G09RevE.01 30-Nov-2015

 ---------------------------------------------
 #p b3lyp/6-311++G(3df,2p) freq symmetry=Loose
 ---------------------------------------------

 ---------
 b3lyp opt
 ---------
 Symbolic Z-matrix:
 Charge =  2 Multiplicity = 4

                         Standard orientation:
 ---------------------------------------------------------------------
 Center     Atomic      Atomic             Coordinates (Angstroms)
 Number     Number       Type             X           Y           Z
 ---------------------------------------------------------------------
      1          6           0        0.025474    0.594490    0.000000
      2          1           0        1.115930    1.376274    0.000000
      3          1           0       -0.597125    1.583962    0.000000
      4          6           0        0.025474   -0.828817   -0.000000
      5          1           0       -0.824492   -1.554271   -0.000000
 ---------------------------------------------------------------------

 SCF Done:  E(UB3LYP) =  -76.7374621666     A.U. after   12 cycles

 The electronic state is 4-A".
 Alpha  occ. eigenvalues --  -10.95009 -10.90983  -1.43226  -1.23034  -1.08753
 Alpha  occ. eigenvalues --   -1.04797  -0.95155  -0.87931
 Alpha virt. eigenvalues --   -0.67161  -0.54354  -0.46969  -0.38661  -0.33074
 Alpha virt. eigenvalues --   -0.30451  -0.29303  -0.28366  -0.28294  -0.24113
 Alpha virt. eigenvalues --   -0.23937  -0.22151  -0.19525  -0.16909  -0.15634

  Beta  occ. eigenvalues --  -10.92985 -10.88631  -1.34848  -1.16465  -1.05247
  Beta virt. eigenvalues --   -0.86684  -0.78755  -0.67170  -0.58117  -0.46910
  Beta virt. eigenvalues --   -0.41305  -0.37107  -0.30951  -0.29078  -0.27118
  Beta virt. eigenvalues --   -0.26876  -0.26214  -0.22386  -0.21832  -0.20868

 Mulliken charges and spin densities:
               1          2
     1  C    0.282029   1.204493
     2  H    0.445983   0.352956
     3  H    0.385861   0.126085
     4  C    0.538779   1.290703
     5  H    0.347348   0.025762
 Sum of Mulliken charges =   2.00000   3.00000

 Dipole moment (field-independent basis, Debye):
    X=              0.3608    Y=              2.5418    Z=              0.0000  Tot=              2.5672
 Quadrupole moment (field-independent basis, Debye-Ang):
   XX=             -4.6250   YY=              5.6971   ZZ=             -9.2532
   XY=              3.8725   XZ=              0.0000   YZ=              0.0000

  Exact polarizability:  15.877   2.864  27.167   0.000   0.000  11.039
 Approx polarizability:  20.831   3.333  38.872   0.000   0.000  14.697

                      1                      2                      3
                     A'                     A"                     A'
 Frequencies --    395.9248               594.1831               671.8679
 Red. masses --      1.3285                 1.3010                 1.0703
 Frc consts  --      0.1227                 0.2706                 0.2847
 IR Inten    --    327.7176               165.0474                 2.6914

                      4                      5                      6
                     A"                     A'                     A'
 Frequencies --    873.0899               935.4944              1233.7854
 Red. masses --      1.1994                 1.2000                 2.2108
 Frc consts  --      0.5387                 0.6187                 1.9828
 IR Inten    --      6.2319               118.6318               150.3866

                      7                      8                      9
                     A'                     A'                     A'
 Frequencies --   1326.7320              2407.1794              2868.0760
 Red. masses --      1.5382                 1.1047                 1.0958
 Frc consts  --      1.5952                 3.7716                 5.3108
 IR Inten    --    250.2759               536.1259               387.1565

 - Thermochemistry -
 -------------------
 Temperature   298.150 Kelvin.  Pressure   1.00000 Atm.
 Atom     1 has atomic number  6 and mass  12.00000

 Molecular mass:    27.02348 amu.
 Principal axes and moments of inertia in atomic units:
                           1         2         3
     Eigenvalues --     7.55840  69.56272  77.12113
           X            0.10600   0.99437   0.00000
           Y            0.99437  -0.10600   0.00000
           Z           -0.00000  -0.00000   1.00000
 This molecule is an asymmetric top.
 Rotational symmetry number  1.
 Rotational temperatures (Kelvin)     11.45928     1.24512     1.12309
 Rotational constants (GHZ):         238.77285    25.94408    23.40139
 Zero-point vibrational energy      67626.9 (Joules/Mol)
                                   16.16321 (Kcal/Mol)
 Warning -- explicit consideration of   2 degrees of freedom as
           vibrations may cause significant error
 Vibrational temperatures:    569.65   854.90   966.67  1256.18  1345.97
          (Kelvin)           1775.14  1908.87  3463.39  4126.52

 Zero-point correction=                           0.025758 (Hartree/Particle)
 Thermal correction to Energy=                    0.029323
 Thermal correction to Enthalpy=                  0.030267
 Thermal correction to Gibbs Free Energy=         0.002218
 Sum of electronic and zero-point Energies=            -76.711704
 Sum of electronic and thermal Energies=               -76.708139
 Sum of electronic and thermal Enthalpies=             -76.707195
 Sum of electronic and thermal Free Energies=          -76.735244

                     E (Thermal)             CV                S
                      KCal/Mol        Cal/Mol-Kelvin    Cal/Mol-Kelvin
 Total                   18.400             10.682             59.034
 Electronic               0.000              0.000              2.755
 Translational            0.889              2.981             35.818
 Rotational               0.889              2.981             18.345
 Vibrational             16.623              4.720              2.116
 Vibration     1          0.763              1.479              0.978
 Vibration     2          0.952              1.044              0.460

 Optimization completed.
    -- Stationary point found.
 Normal termination of Gaussian 09 at Sun Jun 19 05:32:48 2016.
