 Gaussian 09, Revision E.01,
 Gaussian 09:  EM64L-G09RevE.01 30-Nov-2015

 ---------------------------------------------
 #p b3lyp/6-311++G(3df,2p) freq symmetry=Loose
 ---------------------------------------------

 ---------
 b3lyp opt
 ---------
 Symbolic Z-matrix:
 Charge =  2 Multiplicity = 2

                         Standard orientation:
 ---------------------------------------------------------------------
 Center     Atomic      Atomic             Coordinates (Angstroms)
 Number     Number       Type             X           Y           Z
 ---------------------------------------------------------------------
      1          6           0       -0.000156   -0.458126    0.000000
      2          6           0       -0.000156    0.862295   -0.000000
      3          1           0       -1.118119   -0.811296   -0.000000
      4          1           0        0.559995   -0.806858    0.968736
      5          1           0        0.559995   -0.806858   -0.968736
 ---------------------------------------------------------------------

 SCF Done:  E(UB3LYP) =  -76.7985548669     A.U. after   12 cycles

 The electronic state is 2-A'.
 Alpha  occ. eigenvalues --  -11.07709 -10.84840  -1.48522  -1.17459  -1.06433
 Alpha  occ. eigenvalues --   -1.06414  -1.04955
 Alpha virt. eigenvalues --   -0.77292  -0.77279  -0.44100  -0.40114  -0.40100
 Alpha virt. eigenvalues --   -0.33354  -0.31649  -0.31646  -0.28765  -0.24840
 Alpha virt. eigenvalues --   -0.23491  -0.23487  -0.18465  -0.18011  -0.18001

  Beta  occ. eigenvalues --  -11.05502 -10.84562  -1.45953  -1.13713  -1.06115
  Beta  occ. eigenvalues --   -1.06095
  Beta virt. eigenvalues --   -0.84363  -0.73928  -0.73915  -0.43763  -0.39979
  Beta virt. eigenvalues --   -0.39964  -0.33070  -0.31599  -0.31595  -0.27123
  Beta virt. eigenvalues --   -0.23161  -0.23095  -0.23089  -0.17839  -0.17833

 Mulliken charges and spin densities:
               1          2
     1  C    0.080336   0.048597
     2  C    0.732492   0.997715
     3  H    0.395640  -0.015407
     4  H    0.395766  -0.015453
     5  H    0.395766  -0.015453
 Sum of Mulliken charges =   2.00000   1.00000

 Dipole moment (field-independent basis, Debye):
    X=              0.0015    Y=             -0.0538    Z=              0.0000  Tot=              0.0538
 Quadrupole moment (field-independent basis, Debye-Ang):
   XX=             -5.6102   YY=             -1.0949   ZZ=             -5.6116
   XY=              0.0071   XZ=             -0.0000   YZ=             -0.0000

  Exact polarizability:  14.569   0.002  21.463  -0.000   0.000  14.569
 Approx polarizability:  21.425  -0.008  48.865  -0.000  -0.000  21.429

                      1                      2                      3
                     A"                     A'                     A'
 Frequencies --    261.0669               263.8060               919.1525
 Red. masses --      1.3250                 1.3252                 1.0646
 Frc consts  --      0.0532                 0.0543                 0.5299
 IR Inten    --     70.7304                70.7525                85.5195

                      4                      5                      6
                     A"                     A'                     A'
 Frequencies --    920.0954               957.8803              1400.0453
 Red. masses --      1.0647                 1.1125                10.7622
 Frc consts  --      0.5311                 0.6014                12.4289
 IR Inten    --     85.7031               124.1920                76.6000

                      7                      8                      9
                     A'                     A"                     A'
 Frequencies --   2356.3175              2358.6875              2420.3936
 Red. masses --      1.0862                 1.0863                 1.0264
 Frc consts  --      3.5534                 3.5607                 3.5426
 IR Inten    --    674.3215               673.4605               582.2958

 - Thermochemistry -
 -------------------
 Temperature   298.150 Kelvin.  Pressure   1.00000 Atm.
 Atom     1 has atomic number  6 and mass  12.00000

 Molecular mass:    27.02348 amu.
 Principal axes and moments of inertia in atomic units:
                           1         2         3
     Eigenvalues --    13.51168  53.90211  53.90384
           X            0.00026   1.00000   0.00000
           Y            1.00000  -0.00026   0.00000
           Z            0.00000  -0.00000   1.00000
 This molecule is an asymmetric top.
 Rotational symmetry number  1.
 Rotational temperatures (Kelvin)      6.41029     1.60687     1.60682
 Rotational constants (GHZ):         133.56900    33.48183    33.48075
 Zero-point vibrational energy      70923.3 (Joules/Mol)
                                   16.95107 (Kcal/Mol)
 Warning -- explicit consideration of   2 degrees of freedom as
           vibrations may cause significant error
 Vibrational temperatures:    375.62   379.56  1322.45  1323.81  1378.17
          (Kelvin)           2014.35  3390.21  3393.62  3482.40

 Zero-point correction=                           0.027013 (Hartree/Particle)
 Thermal correction to Energy=                    0.030936
 Thermal correction to Enthalpy=                  0.031880
 Thermal correction to Gibbs Free Energy=         0.003758
 Sum of electronic and zero-point Energies=            -76.771542
 Sum of electronic and thermal Energies=               -76.767619
 Sum of electronic and thermal Enthalpies=             -76.766675
 Sum of electronic and thermal Free Energies=          -76.794797

                     E (Thermal)             CV                S
                      KCal/Mol        Cal/Mol-Kelvin    Cal/Mol-Kelvin
 Total                   19.412             10.932             59.187
 Electronic               0.000              0.000              1.377
 Translational            0.889              2.981             35.818
 Rotational               0.889              2.981             18.313
 Vibrational             17.635              4.970              3.679
 Vibration     1          0.669              1.744              1.655
 Vibration     2          0.670              1.739              1.636

 Normal termination of Gaussian 09 at Sun Jun 19 05:32:50 2016.
