 Gaussian 09, Revision E.01,
 Gaussian 09:  EM64L-G09RevE.01 30-Nov-2015

 ---------------------------------------------
 #p b3lyp/6-311++G(3df,2p) freq symmetry=Loose
 ---------------------------------------------

 ---------
 b3lyp opt
 ---------
 Symbolic Z-matrix:
 Charge =  1 Multiplicity = 1

                         Standard orientation:
 ---------------------------------------------------------------------
 Center     Atomic      Atomic             Coordinates (Angstroms)
 Number     Number       Type             X           Y           Z
 ---------------------------------------------------------------------
      1          6           0        0.000231   -0.470838    0.000000
      2          6           0        0.000231    0.882770   -0.000000
      3          1           0       -1.059161   -0.821388    0.000000
      4          1           0        0.528195   -0.825102    0.917276
      5          1           0        0.528195   -0.825102   -0.917276
 ---------------------------------------------------------------------

 SCF Done:  E(RB3LYP) =  -77.5375274603     A.U. after    9 cycles

 The electronic state is 1-A'.
 Alpha  occ. eigenvalues --  -10.63676 -10.49038  -1.13204  -0.84912  -0.75635
 Alpha  occ. eigenvalues --   -0.75631  -0.62236
 Alpha virt. eigenvalues --   -0.41866  -0.41852  -0.19702  -0.14844  -0.14838
 Alpha virt. eigenvalues --   -0.13318  -0.10882  -0.10861  -0.08276  -0.05420
 Alpha virt. eigenvalues --   -0.05418  -0.03313  -0.01788  -0.01787  -0.00993

 Mulliken charges:
               1
     1  C    0.025865
     2  C    0.132103
     3  H    0.280826
     4  H    0.280603
     5  H    0.280603
 Sum of Mulliken charges =   1.00000

 Dipole moment (field-independent basis, Debye):
    X=             -0.0009    Y=             -1.6646    Z=             -0.0000  Tot=              1.6646
 Quadrupole moment (field-independent basis, Debye-Ang):
   XX=             -8.7738   YY=             -9.6634   ZZ=             -8.7682
   XY=             -0.0003   XZ=             -0.0000   YZ=              0.0000

  Exact polarizability:  17.517   0.001  22.409   0.000   0.000  17.521
 Approx polarizability:  25.930   0.012  36.745   0.000   0.000  25.933

                      1                      2                      3
                     A'                     A"                     A'
 Frequencies --    311.1187               314.5656              1082.9359
 Red. masses --      1.3110                 1.3115                 1.2256
 Frc consts  --      0.0748                 0.0765                 0.8469
 IR Inten    --      1.3488                 1.3308                15.9858

                      4                      5                      6
                     A"                     A'                     A'
 Frequencies --   1198.8850              1199.2330              1490.4394
 Red. masses --      1.0523                 1.0525                 5.4143
 Frc consts  --      0.8911                 0.8919                 7.0863
 IR Inten    --     57.3129                57.4953               309.7229

                      7                      8                      9
                     A'                     A"                     A'
 Frequencies --   2837.1788              2885.9206              2887.0726
 Red. masses --      1.0358                 1.0928                 1.0927
 Frc consts  --      4.9122                 5.3626                 5.3661
 IR Inten    --    262.5538               158.6573               158.5476

 - Thermochemistry -
 -------------------
 Temperature   298.150 Kelvin.  Pressure   1.00000 Atm.
 Atom     1 has atomic number  6 and mass  12.00000

 Molecular mass:    27.02348 amu.
 Principal axes and moments of inertia in atomic units:
                           1         2         3
     Eigenvalues --    12.10200  55.47389  55.48464
           X           -0.00006   0.00000   1.00000
           Y            1.00000   0.00000   0.00006
           Z           -0.00000   1.00000   0.00000
 This molecule is an asymmetric top.
 Rotational symmetry number  1.
 Rotational temperatures (Kelvin)      7.15698     1.56134     1.56104
 Rotational constants (GHZ):         149.12749    32.53316    32.52686
 Zero-point vibrational energy      84978.8 (Joules/Mol)
                                   20.31043 (Kcal/Mol)
 Warning -- explicit consideration of   2 degrees of freedom as
           vibrations may cause significant error
 Vibrational temperatures:    447.63   452.59  1558.10  1724.93  1725.43
          (Kelvin)           2144.41  4082.06  4152.19  4153.85

 Zero-point correction=                           0.032367 (Hartree/Particle)
 Thermal correction to Energy=                    0.036073
 Thermal correction to Enthalpy=                  0.037018
 Thermal correction to Gibbs Free Energy=         0.009966
 Sum of electronic and zero-point Energies=            -77.505161
 Sum of electronic and thermal Energies=               -77.501454
 Sum of electronic and thermal Enthalpies=             -77.500510
 Sum of electronic and thermal Free Energies=          -77.527562

                     E (Thermal)             CV                S
                      KCal/Mol        Cal/Mol-Kelvin    Cal/Mol-Kelvin
 Total                   22.636             10.044             56.936
 Electronic               0.000              0.000              0.000
 Translational            0.889              2.981             35.818
 Rotational               0.889              2.981             18.261
 Vibrational             20.859              4.083              2.857
 Vibration     1          0.700              1.653              1.356
 Vibration     2          0.702              1.646              1.338

 Normal termination of Gaussian 09 at Sun Jun 19 05:32:39 2016.
