 Gaussian 09, Revision E.01,
 Gaussian 09:  EM64L-G09RevE.01 30-Nov-2015

 ---------------------------------------------
 #p b3lyp/6-311++G(3df,2p) freq symmetry=Loose
 ---------------------------------------------

 ---------
 b3lyp opt
 ---------
 Symbolic Z-matrix:
 Charge =  2 Multiplicity = 4

                         Standard orientation:
 ---------------------------------------------------------------------
 Center     Atomic      Atomic             Coordinates (Angstroms)
 Number     Number       Type             X           Y           Z
 ---------------------------------------------------------------------
      1          6           0       -0.097486   -0.433918    0.000000
      2          6           0       -0.097486    0.967407    0.000000
      3          1           0       -0.946115   -1.150790    0.000000
      4          1           0        1.057972   -1.025073    0.455834
      5          1           0        1.057972   -1.025073   -0.455834
 ---------------------------------------------------------------------

 SCF Done:  E(UB3LYP) =  -76.6995553998     A.U. after   12 cycles

 The electronic state is 4-A".
 Alpha  occ. eigenvalues --  -10.96648 -10.94390  -1.45703  -1.24386  -1.11219
 Alpha  occ. eigenvalues --   -1.01563  -0.98038  -0.87989
 Alpha virt. eigenvalues --   -0.70658  -0.59285  -0.46603  -0.38552  -0.37448
 Alpha virt. eigenvalues --   -0.33707  -0.29194  -0.28898  -0.26798  -0.24977
 Alpha virt. eigenvalues --   -0.22469  -0.22343  -0.19049  -0.19006  -0.15620

  Beta  occ. eigenvalues --  -10.93029 -10.92396  -1.38723  -1.18849  -1.08259
  Beta virt. eigenvalues --   -0.81956  -0.76168  -0.68091  -0.60758  -0.54153
  Beta virt. eigenvalues --   -0.42747  -0.36618  -0.35947  -0.32586  -0.28282
  Beta virt. eigenvalues --   -0.26364  -0.23614  -0.21944  -0.21074  -0.20986

 Mulliken charges and spin densities:
               1          2
     1  C    0.253092   0.689830
     2  C    0.792727   2.139471
     3  H    0.329601   0.022969
     4  H    0.312290   0.073865
     5  H    0.312290   0.073865
 Sum of Mulliken charges =   2.00000   3.00000

 Dipole moment (field-independent basis, Debye):
    X=              1.7438    Y=             -2.0220    Z=             -0.0000  Tot=              2.6701
 Quadrupole moment (field-independent basis, Debye-Ang):
   XX=             -4.1858   YY=              0.8843   ZZ=             -7.8866
   XY=             -2.7425   XZ=             -0.0000   YZ=              0.0000

  Exact polarizability:  15.574  -2.860  22.453   0.000  -0.000  11.817
 Approx polarizability:  20.740  -5.519  35.729   0.000   0.000  16.524

                      1                      2                      3
                     A"                     A'                     A"
 Frequencies --     49.7323               756.0734               773.6920
 Red. masses --      1.0206                 1.7762                 1.4453
 Frc consts  --      0.0015                 0.5982                 0.5097
 IR Inten    --      3.7310                 4.8055               119.0115

                      4                      5                      6
                     A'                     A"                     A'
 Frequencies --    868.9086              1026.7038              1207.2592
 Red. masses --      1.3063                 1.0113                 1.6622
 Frc consts  --      0.5811                 0.6281                 1.4273
 IR Inten    --     51.9651               141.4202                 9.3317

                      7                      8                      9
                     A'                     A'                     A'
 Frequencies --   1408.2899              2694.7067              2935.7111
 Red. masses --      1.4863                 1.0163                 1.0978
 Frc consts  --      1.7367                 4.3479                 5.5746
 IR Inten    --      5.6712               311.4955               296.0740

 - Thermochemistry -
 -------------------
 Temperature   298.150 Kelvin.  Pressure   1.00000 Atm.
 Atom     1 has atomic number  6 and mass  12.00000

 Molecular mass:    27.02348 amu.
 Principal axes and moments of inertia in atomic units:
                           1         2         3
     Eigenvalues --    12.74916  61.32725  71.08514
           X           -0.11668   0.99317   0.00000
           Y            0.99317   0.11668   0.00000
           Z           -0.00000   0.00000   1.00000
 This molecule is an asymmetric top.
 Rotational symmetry number  1.
 Rotational temperatures (Kelvin)      6.79369     1.41232     1.21845
 Rotational constants (GHZ):         141.55769    29.42805    25.38845
 Zero-point vibrational energy      70107.6 (Joules/Mol)
                                   16.75612 (Kcal/Mol)
 Warning -- explicit consideration of   1 degrees of freedom as
           vibrations may cause significant error
 Vibrational temperatures:     71.55  1087.82  1113.17  1250.16  1477.20
          (Kelvin)           1736.97  2026.21  3877.08  4223.83

 Zero-point correction=                           0.026703 (Hartree/Particle)
 Thermal correction to Energy=                    0.030666
 Thermal correction to Enthalpy=                  0.031611
 Thermal correction to Gibbs Free Energy=         0.001756
 Sum of electronic and zero-point Energies=            -76.672853
 Sum of electronic and thermal Energies=               -76.668889
 Sum of electronic and thermal Enthalpies=             -76.667945
 Sum of electronic and thermal Free Energies=          -76.697800

                     E (Thermal)             CV                S
                      KCal/Mol        Cal/Mol-Kelvin    Cal/Mol-Kelvin
 Total                   19.243             10.557             62.835
 Electronic               0.000              0.000              2.755
 Translational            0.889              2.981             35.818
 Rotational               0.889              2.981             18.659
 Vibrational             17.466              4.595              5.604
 Vibration     1          0.595              1.978              4.828

 Optimization completed.
    -- Stationary point found.
 Normal termination of Gaussian 09 at Sun Jun 19 05:32:48 2016.
