 Gaussian 09, Revision E.01,
 Gaussian 09:  EM64L-G09RevE.01 30-Nov-2015

 ---------------------------------------------
 #p b3lyp/6-311++G(3df,2p) freq symmetry=Loose
 ---------------------------------------------

 ---------
 b3lyp opt
 ---------
 Symbolic Z-matrix:
 Charge =  3 Multiplicity = 1

                         Standard orientation:
 ---------------------------------------------------------------------
 Center     Atomic      Atomic             Coordinates (Angstroms)
 Number     Number       Type             X           Y           Z
 ---------------------------------------------------------------------
      1          6           0       -0.000174   -0.555702    0.000000
      2          6           0       -0.000174    0.864802   -0.000000
      3          1           0       -1.362385   -0.619014    0.000000
      4          1           0        0.682234   -0.617792    1.182052
      5          1           0        0.682234   -0.617792   -1.182052
 ---------------------------------------------------------------------

 SCF Done:  E(RB3LYP) =  -75.6518283476     A.U. after   12 cycles

 The electronic state is 1-A'.
 Alpha  occ. eigenvalues --  -11.46168 -11.27068  -1.77904  -1.42073  -1.35546
 Alpha  occ. eigenvalues --   -1.35526
 Alpha virt. eigenvalues --   -1.21814  -1.06754  -1.06746  -0.83447  -0.75888
 Alpha virt. eigenvalues --   -0.75812  -0.62755  -0.54242  -0.54227  -0.51317
 Alpha virt. eigenvalues --   -0.46788  -0.43892  -0.43879  -0.38614  -0.37505

 Mulliken charges:
               1
     1  C    0.224208
     2  C    1.128979
     3  H    0.548099
     4  H    0.549357
     5  H    0.549357
 Sum of Mulliken charges =   3.00000

 Dipole moment (field-independent basis, Debye):
    X=              0.0139    Y=             -0.6300    Z=             -0.0000  Tot=              0.6302
 Quadrupole moment (field-independent basis, Debye-Ang):
   XX=             -0.7444   YY=              2.9658   ZZ=             -0.7128
   XY=             -0.0034   XZ=             -0.0000   YZ=              0.0000

  Exact polarizability:  18.826  -0.014  24.555  -0.000   0.000  18.868
 Approx polarizability:  28.646  -0.063  93.905  -0.000   0.000  28.716

                      1                      2                      3
                     A'                     A"                     A"
 Frequencies --    452.8705               454.4334               675.5350
 Red. masses --      1.2402                 1.2426                 1.0285
 Frc consts  --      0.1499                 0.1512                 0.2765
 IR Inten    --    147.0878               149.0835               123.4361

                      4                      5                      6
                     A'                     A'                     A'
 Frequencies --    677.0997               762.8386               832.8351
 Red. masses --      1.0318                 1.1222                 4.4025
 Frc consts  --      0.2787                 0.3848                 1.7991
 IR Inten    --     96.6351               104.3008               163.1404

                      7                      8                      9
                     A"                     A'                     A'
 Frequencies --    901.1370               912.5690              1377.4049
 Red. masses --      1.1564                 1.1556                 1.1775
 Frc consts  --      0.5533                 0.5670                 1.3163
 IR Inten    --   2063.4932              2081.4041               345.1148

 - Thermochemistry -
 -------------------
 Temperature   298.150 Kelvin.  Pressure   1.00000 Atm.
 Atom     1 has atomic number  6 and mass  12.00000

 Molecular mass:    27.02348 amu.
 Principal axes and moments of inertia in atomic units:
                           1         2         3
     Eigenvalues --    20.08777  58.99122  59.01826
           X           -0.00001   0.00000   1.00000
           Y            1.00000   0.00000   0.00001
           Z           -0.00000   1.00000   0.00000
 This molecule is an asymmetric top.
 Rotational symmetry number  1.
 Rotational temperatures (Kelvin)      4.31177     1.46825     1.46758
 Rotational constants (GHZ):          89.84278    30.59339    30.57937
 Zero-point vibrational energy      42148.8 (Joules/Mol)
                                   10.07380 (Kcal/Mol)
 Warning -- explicit consideration of   2 degrees of freedom as
           vibrations may cause significant error
 Vibrational temperatures:    651.58   653.83   971.94   974.19  1097.55
          (Kelvin)           1198.26  1296.53  1312.98  1981.78

 Zero-point correction=                           0.016054 (Hartree/Particle)
 Thermal correction to Energy=                    0.019925
 Thermal correction to Enthalpy=                  0.020870
 Thermal correction to Gibbs Free Energy=        -0.006526
 Sum of electronic and zero-point Energies=            -75.635775
 Sum of electronic and thermal Energies=               -75.631903
 Sum of electronic and thermal Enthalpies=             -75.630959
 Sum of electronic and thermal Free Energies=          -75.658354

                     E (Thermal)             CV                S
                      KCal/Mol        Cal/Mol-Kelvin    Cal/Mol-Kelvin
 Total                   12.503             12.826             57.659
 Electronic               0.000              0.000              0.000
 Translational            0.889              2.981             35.818
 Rotational               0.889              2.981             18.887
 Vibrational             10.726              6.864              2.954
 Vibration     1          0.811              1.355              0.787
 Vibration     2          0.813              1.351              0.782

 Normal termination of Gaussian 09 at Sun Jun 19 05:32:39 2016.
