 Gaussian 09, Revision E.01,
 Gaussian 09:  EM64L-G09RevE.01 30-Nov-2015

 ---------------------------------------------
 #p b3lyp/6-311++G(3df,2p) freq symmetry=Loose
 ---------------------------------------------

 ---------
 b3lyp opt
 ---------
 Symbolic Z-matrix:
 Charge =  0 Multiplicity = 4

                         Standard orientation:
 ---------------------------------------------------------------------
 Center     Atomic      Atomic             Coordinates (Angstroms)
 Number     Number       Type             X           Y           Z
 ---------------------------------------------------------------------
      1          6           0        0.000000    0.419984    0.000000
      2          1           0       -0.000613    1.516411   -0.000000
      3          6           0       -1.236659   -0.147678   -0.000000
      4          1           0       -1.669750   -1.134126   -0.000000
      5          6           0        1.236795   -0.147051    0.000000
      6          1           0        1.669545   -1.133816    0.000000
 ---------------------------------------------------------------------

 SCF Done:  E(UB3LYP) =  -115.931080149     A.U. after   12 cycles

 The electronic state is 4-A".
 Alpha  occ. eigenvalues --  -10.21519 -10.21514 -10.19978  -0.81893  -0.68855
 Alpha  occ. eigenvalues --   -0.57680  -0.48726  -0.44980  -0.35060  -0.28669
 Alpha  occ. eigenvalues --   -0.24613  -0.22398
 Alpha virt. eigenvalues --   -0.00045   0.01228   0.01278   0.01916   0.06439
 Alpha virt. eigenvalues --    0.06667   0.07762   0.09565   0.09587   0.12292
 Alpha virt. eigenvalues --    0.12547   0.12683   0.12822   0.12978   0.14352

  Beta  occ. eigenvalues --  -10.20352 -10.19025 -10.19020  -0.78938  -0.62303
  Beta  occ. eigenvalues --   -0.54909  -0.46667  -0.42237  -0.31316
  Beta virt. eigenvalues --   -0.11141  -0.08267  -0.06874   0.00163   0.01460
  Beta virt. eigenvalues --    0.02407   0.02792   0.07371   0.07976   0.09516
  Beta virt. eigenvalues --    0.10025   0.10742   0.12554   0.12864   0.13360

 Mulliken charges and spin densities:
               1          2
     1  C    0.202250  -0.415818
     2  H    0.139922   0.082074
     3  C   -0.369917   1.650159
     4  H    0.198982   0.016916
     5  C   -0.370004   1.649705
     6  H    0.198767   0.016964
 Sum of Mulliken charges =  -0.00000   3.00000

 Dipole moment (field-independent basis, Debye):
    X=             -0.0005    Y=             -0.7388    Z=             -0.0000  Tot=              0.7388
 Quadrupole moment (field-independent basis, Debye-Ang):
   XX=            -19.6510   YY=            -15.9465   ZZ=            -20.8495
   XY=             -0.0005   XZ=             -0.0000   YZ=             -0.0000

  Exact polarizability:  53.884   0.003  34.057  -0.000   0.000  27.602
 Approx polarizability:  75.877   0.005  45.483   0.000   0.000  36.315

                      1                      2                      3
                     A'                     A"                     A"
 Frequencies --    410.6953               573.6866               605.3550
 Red. masses --      1.9016                 1.1475                 1.7630
 Frc consts  --      0.1890                 0.2225                 0.3806
 IR Inten    --      0.8305                 0.0223                43.8856

                      4                      5                      6
                     A'                     A"                     A'
 Frequencies --    788.0856               829.2245               924.7285
 Red. masses --      1.1665                 1.3316                 1.8096
 Frc consts  --      0.4268                 0.5395                 0.9117
 IR Inten    --     35.0840                43.6332                 0.2285

                      7                      8                      9
                     A'                     A'                     A'
 Frequencies --   1204.5534              1206.1481              1369.5901
 Red. masses --      1.2749                 6.3492                 4.2379
 Frc consts  --      1.0899                 5.4421                 4.6836
 IR Inten    --      1.3055                 0.5070                 0.2608

                     10                     11                     12
                     A'                     A'                     A'
 Frequencies --   3004.0933              3235.6821              3241.5594
 Red. masses --      1.0777                 1.0924                 1.0951
 Frc consts  --      5.7302                 6.7383                 6.7798
 IR Inten    --      0.3371                 0.0288                 0.8393

 - Thermochemistry -
 -------------------
 Temperature   298.150 Kelvin.  Pressure   1.00000 Atm.
 Atom     1 has atomic number  6 and mass  12.00000

 Molecular mass:    39.02348 amu.
 Principal axes and moments of inertia in atomic units:
                           1         2         3
     Eigenvalues --    26.90077 151.15219 178.05296
           X            1.00000  -0.00026   0.00000
           Y            0.00026   1.00000   0.00000
           Z           -0.00000   0.00000   1.00000
 This molecule is an asymmetric top.
 Rotational symmetry number  1.
 Rotational temperatures (Kelvin)      3.21975     0.57302     0.48645
 Rotational constants (GHZ):          67.08883    11.93989    10.13598
 Zero-point vibrational energy     104035.6 (Joules/Mol)
                                   24.86512 (Kcal/Mol)
 Warning -- explicit consideration of   3 degrees of freedom as
           vibrations may cause significant error
 Vibrational temperatures:    590.90   825.41   870.97  1133.88  1193.07
          (Kelvin)           1330.48  1733.08  1735.38  1970.53  4322.21
                             4655.42  4663.88

 Zero-point correction=                           0.039625 (Hartree/Particle)
 Thermal correction to Energy=                    0.043332
 Thermal correction to Enthalpy=                  0.044276
 Thermal correction to Gibbs Free Energy=         0.014167
 Sum of electronic and zero-point Energies=           -115.891455
 Sum of electronic and thermal Energies=              -115.887749
 Sum of electronic and thermal Enthalpies=            -115.886804
 Sum of electronic and thermal Free Energies=         -115.916913

                     E (Thermal)             CV                S
                      KCal/Mol        Cal/Mol-Kelvin    Cal/Mol-Kelvin
 Total                   27.191             11.779             63.369
 Electronic               0.000              0.000              2.755
 Translational            0.889              2.981             36.913
 Rotational               0.889              2.981             21.209
 Vibrational             25.413              5.818              2.492
 Vibration     1          0.775              1.447              0.924
 Vibration     2          0.930              1.088              0.497
 Vibration     3          0.964              1.020              0.441

 Normal termination of Gaussian 09 at Sun Jun 19 05:35:01 2016.
