 Gaussian 09, Revision E.01,
 Gaussian 09:  EM64L-G09RevE.01 30-Nov-2015

 ---------------------------------------------
 #p b3lyp/6-311++G(3df,2p) freq symmetry=Loose
 ---------------------------------------------

 ---------
 b3lyp opt
 ---------
 Symbolic Z-matrix:
 Charge =  3 Multiplicity = 1

                         Standard orientation:
 ---------------------------------------------------------------------
 Center     Atomic      Atomic             Coordinates (Angstroms)
 Number     Number       Type             X           Y           Z
 ---------------------------------------------------------------------
      1          6           0        0.000000   -0.000000   -1.228204
      2          1           0        0.000000    0.902044   -2.080456
      3          1           0       -0.000000   -0.902044   -2.080456
      4          6           0       -0.000000    0.000000    0.069315
      5          6           0       -0.000000    0.000000    1.421036
      6          1           0       -0.000000    0.000000    2.588031
 ---------------------------------------------------------------------

 SCF Done:  E(RB3LYP) =  -114.088070082     A.U. after   12 cycles

 The electronic state is 1-A1.
 Alpha  occ. eigenvalues --  -11.23624 -11.13011 -11.12858  -1.67429  -1.57260
 Alpha  occ. eigenvalues --   -1.36209  -1.33096  -1.22419  -1.18065
 Alpha virt. eigenvalues --   -1.05685  -0.97953  -0.84497  -0.75862  -0.68555
 Alpha virt. eigenvalues --   -0.61556  -0.57414  -0.55441  -0.49669  -0.45692
 Alpha virt. eigenvalues --   -0.45226  -0.45155  -0.43864  -0.42288  -0.40097

 Mulliken charges:
               1
     1  C   -0.218896
     2  H    0.468476
     3  H    0.468476
     4  C    0.861714
     5  C    0.855144
     6  H    0.565086
 Sum of Mulliken charges =   3.00000

 Dipole moment (field-independent basis, Debye):
    X=             -0.0000    Y=              0.0000    Z=             -0.6465  Tot=              0.6465
 Quadrupole moment (field-independent basis, Debye-Ang):
   XX=            -12.8825   YY=             -7.8907   ZZ=             33.1260
   XY=              0.0000   XZ=              0.0000   YZ=             -0.0000

  Exact polarizability:  12.967  -0.000  16.152   0.000  -0.000  52.405
 Approx polarizability:  17.446   0.000  23.796   0.000   0.000 146.132

                      1                      2                      3
                     B2                     B1                     B2
 Frequencies --    272.2574               272.6765               473.4185
 Red. masses --      1.6320                 2.8919                 1.9380
 Frc consts  --      0.0713                 0.1267                 0.2559
 IR Inten    --    138.0160               111.9482                60.0682

                      4                      5                      6
                     A1                     B1                     B1
 Frequencies --    675.0904               760.2482               788.3561
 Red. masses --      1.1804                 1.3549                 1.4967
 Frc consts  --      0.3170                 0.4614                 0.5481
 IR Inten    --    948.4979                39.3054                77.3636

                      7                      8                      9
                     B2                     A1                     B2
 Frequencies --    884.5217              1055.9771              1613.6074
 Red. masses --      1.5332                 3.6858                 1.0582
 Frc consts  --      0.7068                 2.4215                 1.6234
 IR Inten    --     14.5791                50.1714              1019.7612

                     10                     11                     12
                     A1                     A1                     A1
 Frequencies --   1728.8091              2008.8721              2508.4759
 Red. masses --      2.0257                 1.5565                 1.2219
 Frc consts  --      3.5671                 3.7010                 4.5302
 IR Inten    --   2525.7003               446.3991               582.1108

 - Thermochemistry -
 -------------------
 Temperature   298.150 Kelvin.  Pressure   1.00000 Atm.
 Atom     1 has atomic number  6 and mass  12.00000

 Molecular mass:    39.02348 amu.
 Principal axes and moments of inertia in atomic units:
                           1         2         3
     Eigenvalues --     5.85690 206.42135 212.27825
           X            0.00000   0.00000   1.00000
           Y           -0.00000   1.00000  -0.00000
           Z            1.00000   0.00000  -0.00000
 This molecule is an asymmetric top.
 Rotational symmetry number  2.
 Rotational temperatures (Kelvin)     14.78833     0.41960     0.40802
 Rotational constants (GHZ):         308.13919     8.74300     8.50177
 Zero-point vibrational energy      78010.3 (Joules/Mol)
                                   18.64492 (Kcal/Mol)
 Warning -- explicit consideration of   3 degrees of freedom as
           vibrations may cause significant error
 Vibrational temperatures:    391.72   392.32   681.14   971.30  1093.83
          (Kelvin)           1134.27  1272.63  1519.31  2321.62  2487.37
                             2890.32  3609.13

 Zero-point correction=                           0.029713 (Hartree/Particle)
 Thermal correction to Energy=                    0.034089
 Thermal correction to Enthalpy=                  0.035033
 Thermal correction to Gibbs Free Energy=         0.006223
 Sum of electronic and zero-point Energies=           -114.058358
 Sum of electronic and thermal Energies=              -114.053981
 Sum of electronic and thermal Enthalpies=            -114.053037
 Sum of electronic and thermal Free Energies=         -114.081847

                     E (Thermal)             CV                S
                      KCal/Mol        Cal/Mol-Kelvin    Cal/Mol-Kelvin
 Total                   21.391             13.923             60.636
 Electronic               0.000              0.000              0.000
 Translational            0.889              2.981             36.913
 Rotational               0.889              2.981             18.801
 Vibrational             19.614              7.961              4.921
 Vibration     1          0.675              1.724              1.582
 Vibration     2          0.676              1.724              1.579
 Vibration     3          0.830              1.309              0.728

 Optimization completed.
    -- Stationary point found.
 Normal termination of Gaussian 09 at Tue Jul 19 12:20:43 2016.
