 Gaussian 09, Revision E.01,
 Gaussian 09:  EM64L-G09RevE.01 30-Nov-2015

 ---------------------------------------------
 #p b3lyp/6-311++G(3df,2p) freq symmetry=Loose
 ---------------------------------------------

 ---------
 b3lyp opt
 ---------
 Symbolic Z-matrix:
 Charge =  3 Multiplicity = 3

                         Standard orientation:
 ---------------------------------------------------------------------
 Center     Atomic      Atomic             Coordinates (Angstroms)
 Number     Number       Type             X           Y           Z
 ---------------------------------------------------------------------
      1          6           0       -0.223286    0.309090   -0.000603
      2          1           0       -0.387734    1.499951   -0.002035
      3          6           0       -1.465358   -0.331481    0.000592
      4          1           0        1.749520   -0.274082    0.993861
      5          6           0        1.170209   -0.135276    0.000217
      6          1           0        1.748826   -0.279866   -0.993065
 ---------------------------------------------------------------------

 SCF Done:  E(UB3LYP) =  -114.008858878     A.U. after   14 cycles

 The electronic state is 3-A.
 Alpha  occ. eigenvalues --  -11.30202 -11.16952 -11.14797  -1.71308  -1.56010
 Alpha  occ. eigenvalues --   -1.36511  -1.29301  -1.27217  -1.26974  -1.18803
 Alpha virt. eigenvalues --   -1.00737  -0.95027  -0.91489  -0.63539  -0.61014
 Alpha virt. eigenvalues --   -0.57157  -0.54401  -0.51006  -0.49437  -0.46696
 Alpha virt. eigenvalues --   -0.46351  -0.46259  -0.45726  -0.40613  -0.38230

  Beta  occ. eigenvalues --  -11.26639 -11.16243 -11.14729  -1.67319  -1.53230
  Beta  occ. eigenvalues --   -1.33947  -1.28567  -1.24386
  Beta virt. eigenvalues --   -1.03701  -1.03539  -0.95505  -0.94186  -0.82011
  Beta virt. eigenvalues --   -0.62364  -0.60066  -0.55450  -0.53671  -0.50095
  Beta virt. eigenvalues --   -0.47891  -0.45971  -0.45492  -0.45383  -0.43472

 Mulliken charges and spin densities:
               1          2
     1  C    0.484512   0.373019
     2  H    0.393738  -0.015639
     3  C    0.928327   1.523741
     4  H    0.395729   0.032144
     5  C    0.401972   0.054593
     6  H    0.395723   0.032141
 Sum of Mulliken charges =   3.00000   2.00000

 Dipole moment (field-independent basis, Debye):
    X=             -0.0226    Y=              0.2815    Z=             -0.0001  Tot=              0.2824
 Quadrupole moment (field-independent basis, Debye-Ang):
   XX=             14.9800   YY=             -5.5078   ZZ=             -8.8829
   XY=             -0.4861   XZ=              0.0009   YZ=             -0.0000

  Exact polarizability:  36.290  -0.090  18.608   0.000  -0.000  15.452
 Approx polarizability:  61.797   3.080  29.870  -0.005  -0.009  21.042

                      1                      2                      3
                      A                      A                      A
 Frequencies --    382.5357               446.6982               651.0642
 Red. masses --      4.5325                 1.3886                 1.0644
 Frc consts  --      0.3908                 0.1632                 0.2658
 IR Inten    --      9.1605                15.5007                59.0156

                      4                      5                      6
                      A                      A                      A
 Frequencies --    758.5927               875.9933               878.6755
 Red. masses --      3.2172                 1.6637                 1.4745
 Frc consts  --      1.0908                 0.7522                 0.6707
 IR Inten    --     44.5678                12.0546                 1.9246

                      7                      8                      9
                      A                      A                      A
 Frequencies --   1099.1420              1130.9197              1304.9785
 Red. masses --      1.4818                 1.1846                 3.5206
 Frc consts  --      1.0548                 0.8927                 3.5324
 IR Inten    --     67.1022                89.3395               157.6847

                     10                     11                     12
                      A                      A                      A
 Frequencies --   2102.2078              2416.4079              2492.0889
 Red. masses --      1.0726                 1.0326                 1.1205
 Frc consts  --      2.7928                 3.5524                 4.0999
 IR Inten    --    906.1664              1028.2634               605.7523

 - Thermochemistry -
 -------------------
 Temperature   298.150 Kelvin.  Pressure   1.00000 Atm.
 Atom     1 has atomic number  6 and mass  12.00000

 Molecular mass:    39.02348 amu.
 Principal axes and moments of inertia in atomic units:
                           1         2         3
     Eigenvalues --    25.08535 181.80666 192.68348
           X            0.99944  -0.03338   0.00003
           Y            0.03338   0.99944   0.00077
           Z           -0.00006  -0.00077   1.00000
 This molecule is an asymmetric top.
 Rotational symmetry number  1.
 Rotational temperatures (Kelvin)      3.45277     0.47641     0.44951
 Rotational constants (GHZ):          71.94404     9.92671     9.36635
 Zero-point vibrational energy      86964.4 (Joules/Mol)
                                   20.78498 (Kcal/Mol)
 Warning -- explicit consideration of   2 degrees of freedom as
           vibrations may cause significant error
 Vibrational temperatures:    550.38   642.70   936.73  1091.44  1260.36
          (Kelvin)           1264.22  1581.42  1627.14  1877.57  3024.60
                             3476.67  3585.56

 Zero-point correction=                           0.033123 (Hartree/Particle)
 Thermal correction to Energy=                    0.036950
 Thermal correction to Enthalpy=                  0.037894
 Thermal correction to Gibbs Free Energy=         0.007772
 Sum of electronic and zero-point Energies=           -113.975736
 Sum of electronic and thermal Energies=              -113.971909
 Sum of electronic and thermal Enthalpies=            -113.970964
 Sum of electronic and thermal Free Energies=         -114.001087

                     E (Thermal)             CV                S
                      KCal/Mol        Cal/Mol-Kelvin    Cal/Mol-Kelvin
 Total                   23.187             12.241             63.397
 Electronic               0.000              0.000              2.183
 Translational            0.889              2.981             36.913
 Rotational               0.889              2.981             21.402
 Vibrational             21.409              6.279              2.899
 Vibration     1          0.752              1.507              1.029
 Vibration     2          0.806              1.368              0.806

 Normal termination of Gaussian 09 at Sun Jun 19 05:41:19 2016.
