 Gaussian 09, Revision E.01,
 Gaussian 09:  EM64L-G09RevE.01 30-Nov-2015

 ---------------------------------------------
 #p b3lyp/6-311++G(3df,2p) freq symmetry=Loose
 ---------------------------------------------

 ---------
 b3lyp opt
 ---------
 Symbolic Z-matrix:
 Charge =  2 Multiplicity = 2

                         Standard orientation:
 ---------------------------------------------------------------------
 Center     Atomic      Atomic             Coordinates (Angstroms)
 Number     Number       Type             X           Y           Z
 ---------------------------------------------------------------------
      1          6           0        0.000000    0.000000   -1.252993
      2          1           0        0.000000    0.952552   -1.835382
      3          1           0       -0.000000   -0.952552   -1.835382
      4          6           0       -0.000000   -0.000000    0.087319
      5          6           0       -0.000000   -0.000000    1.365789
      6          1           0       -0.000000   -0.000000    2.470071
 ---------------------------------------------------------------------

 SCF Done:  E(UB3LYP) =  -115.069733598     A.U. after   14 cycles

 The electronic state is 2-B2.
 Alpha  occ. eigenvalues --  -10.87523 -10.83031 -10.82346  -1.40771  -1.29987
 Alpha  occ. eigenvalues --   -1.09955  -1.04912  -1.01069  -0.91225  -0.89176
 Alpha virt. eigenvalues --   -0.69875  -0.57533  -0.48075  -0.39727  -0.37111
 Alpha virt. eigenvalues --   -0.31691  -0.30356  -0.27457  -0.27095  -0.26146
 Alpha virt. eigenvalues --   -0.24946  -0.24128  -0.22016  -0.20557  -0.17655

  Beta  occ. eigenvalues --  -10.86424 -10.82529 -10.82397  -1.38068  -1.28294
  Beta  occ. eigenvalues --   -1.08683  -1.04277  -0.98917  -0.90366
  Beta virt. eigenvalues --   -0.75722  -0.69354  -0.51535  -0.47420  -0.38361
  Beta virt. eigenvalues --   -0.36529  -0.31386  -0.29899  -0.27103  -0.27043
  Beta virt. eigenvalues --   -0.25152  -0.24741  -0.23556  -0.21978  -0.20030

 Mulliken charges and spin densities:
               1          2
     1  C   -0.294316  -0.011906
     2  H    0.345016   0.040981
     3  H    0.345016   0.040981
     4  C    0.465925   0.349425
     5  C    0.654858   0.597109
     6  H    0.483501  -0.016591
 Sum of Mulliken charges =   2.00000   1.00000

 Dipole moment (field-independent basis, Debye):
    X=             -0.0000    Y=             -0.0000    Z=              0.3497  Tot=              0.3497
 Quadrupole moment (field-independent basis, Debye-Ang):
   XX=            -14.1126   YY=            -10.9709   ZZ=             13.1661
   XY=              0.0000   XZ=              0.0000   YZ=              0.0000

  Exact polarizability:  14.743  -0.000  17.133   0.000   0.000  47.156
 Approx polarizability:  20.051   0.000  23.372   0.000   0.000  94.124

                      1                      2                      3
                     B1                     B2                     B2
 Frequencies --    275.3580               317.1899               656.5521
 Red. masses --      3.3062                 2.1494                 1.2773
 Frc consts  --      0.1477                 0.1274                 0.3244
 IR Inten    --     39.0083                26.4540                16.2365

                      4                      5                      6
                     B1                     B2                     B1
 Frequencies --    838.0401               841.8187              1060.7394
 Red. masses --      1.3424                 1.6612                 1.3664
 Frc consts  --      0.5555                 0.6936                 0.9059
 IR Inten    --     14.0128                 9.0104                20.8871

                      7                      8                      9
                     A1                     A1                     A1
 Frequencies --   1071.7676              1276.3338              1868.6724
 Red. masses --      4.0914                 1.1730                 6.4397
 Frc consts  --      2.7690                 1.1258                13.2489
 IR Inten    --      3.7980               107.8086               401.3409

                     10                     11                     12
                     A1                     B2                     A1
 Frequencies --   2814.8900              2892.5910              3058.4596
 Red. masses --      1.0476                 1.1126                 1.1545
 Frc consts  --      4.8907                 5.4849                 6.3628
 IR Inten    --    517.1815               317.7478               349.5434

 - Thermochemistry -
 -------------------
 Temperature   298.150 Kelvin.  Pressure   1.00000 Atm.
 Atom     1 has atomic number  6 and mass  12.00000

 Molecular mass:    39.02348 amu.
 Principal axes and moments of inertia in atomic units:
                           1         2         3
     Eigenvalues --     6.53116 193.61793 200.14909
           X            0.00000   0.00000   1.00000
           Y            0.00000   1.00000  -0.00000
           Z            1.00000  -0.00000  -0.00000
 This molecule is an asymmetric top.
 Rotational symmetry number  2.
 Rotational temperatures (Kelvin)     13.26163     0.44734     0.43275
 Rotational constants (GHZ):         276.32785     9.32115     9.01698
 Zero-point vibrational energy     101517.6 (Joules/Mol)
                                   24.26328 (Kcal/Mol)
 Warning -- explicit consideration of   2 degrees of freedom as
           vibrations may cause significant error
 Vibrational temperatures:    396.18   456.36   944.63  1205.75  1211.19
          (Kelvin)           1526.17  1542.03  1836.36  2688.60  4049.99
                             4161.79  4400.44

 Zero-point correction=                           0.038666 (Hartree/Particle)
 Thermal correction to Energy=                    0.042687
 Thermal correction to Enthalpy=                  0.043631
 Thermal correction to Gibbs Free Energy=         0.014716
 Sum of electronic and zero-point Energies=           -115.031068
 Sum of electronic and thermal Energies=              -115.027047
 Sum of electronic and thermal Enthalpies=            -115.026103
 Sum of electronic and thermal Free Energies=         -115.055018

                     E (Thermal)             CV                S
                      KCal/Mol        Cal/Mol-Kelvin    Cal/Mol-Kelvin
 Total                   26.786             12.211             60.857
 Electronic               0.000              0.000              1.377
 Translational            0.889              2.981             36.913
 Rotational               0.889              2.981             18.787
 Vibrational             25.009              6.250              3.779
 Vibration     1          0.677              1.719              1.562
 Vibration     2          0.704              1.641              1.325

 Optimization completed.
    -- Stationary point found.
 Normal termination of Gaussian 09 at Tue Jul 19 09:21:00 2016.
