 Gaussian 09, Revision E.01,
 Gaussian 09:  EM64L-G09RevE.01 30-Nov-2015

 ---------------------------------------------
 #p b3lyp/6-311++G(3df,2p) freq symmetry=Loose
 ---------------------------------------------

 ---------
 b3lyp opt
 ---------
 Symbolic Z-matrix:
 Charge =  0 Multiplicity = 2

                         Standard orientation:
 ---------------------------------------------------------------------
 Center     Atomic      Atomic             Coordinates (Angstroms)
 Number     Number       Type             X           Y           Z
 ---------------------------------------------------------------------
      1          6           0       -0.489870   -0.693015    0.000000
      2          1           0       -0.912730   -1.094527    0.916122
      3          1           0       -0.912730   -1.094527   -0.916122
      4          6           0        0.866483   -0.088196   -0.000000
      5          6           0       -0.000000    0.842562   -0.000000
      6          1           0       -0.434217    1.820945   -0.000000
 ---------------------------------------------------------------------

 SCF Done:  E(UB3LYP) =  -115.979204563     A.U. after   14 cycles

 The electronic state is 2-A'.
 Alpha  occ. eigenvalues --  -10.22072 -10.20930 -10.20538  -0.88722  -0.63194
 Alpha  occ. eigenvalues --   -0.56724  -0.46215  -0.42028  -0.38198  -0.27832
 Alpha  occ. eigenvalues --   -0.24780
 Alpha virt. eigenvalues --   -0.00986  -0.00154   0.00853   0.02784   0.03835
 Alpha virt. eigenvalues --    0.06374   0.07699   0.08786   0.09151   0.10300
 Alpha virt. eigenvalues --    0.11675   0.12302   0.12792   0.14461   0.14632

  Beta  occ. eigenvalues --  -10.21548 -10.20446 -10.19760  -0.87555  -0.62036
  Beta  occ. eigenvalues --   -0.55842  -0.45800  -0.38714  -0.35368  -0.27339
  Beta virt. eigenvalues --   -0.12368  -0.00009   0.00030   0.00961   0.02845
  Beta virt. eigenvalues --    0.04098   0.06662   0.07806   0.08754   0.09836
  Beta virt. eigenvalues --    0.11109   0.11842   0.12594   0.13066   0.14603

 Mulliken charges and spin densities:
               1          2
     1  C   -0.305189   0.326093
     2  H    0.126595  -0.010398
     3  H    0.126595  -0.010398
     4  C   -0.271091   0.720970
     5  C    0.072087  -0.027786
     6  H    0.251003   0.001519
 Sum of Mulliken charges =  -0.00000   1.00000

 Dipole moment (field-independent basis, Debye):
    X=             -1.6202    Y=              0.5796    Z=              0.0000  Tot=              1.7207
 Quadrupole moment (field-independent basis, Debye-Ang):
   XX=            -19.9873   YY=            -16.3121   ZZ=            -18.8506
   XY=              0.0321   XZ=              0.0000   YZ=              0.0000

  Exact polarizability:  38.137   1.576  37.755   0.000   0.000  27.923
 Approx polarizability:  60.191  -3.942  56.954   0.000  -0.000  38.033

                      1                      2                      3
                     A"                     A'                     A"
 Frequencies --    621.7627               634.4840               762.4896
 Red. masses --      1.1685                 5.4582                 1.2232
 Frc consts  --      0.2661                 1.2946                 0.4190
 IR Inten    --     72.8151                 1.4515                 1.1795

                      4                      5                      6
                     A'                     A'                     A'
 Frequencies --    875.7344              1008.8284              1040.0607
 Red. masses --      1.1886                 1.5559                 3.6404
 Frc consts  --      0.5371                 0.9329                 2.3202
 IR Inten    --     76.2820                33.3144                 0.6624

                      7                      8                      9
                     A"                     A'                     A'
 Frequencies --   1082.4880              1509.8025              1766.7125
 Red. masses --      1.2609                 1.1014                 6.2249
 Frc consts  --      0.8705                 1.4792                11.4475
 IR Inten    --      0.9965                 1.1754                18.4799

                     10                     11                     12
                     A'                     A"                     A'
 Frequencies --   3063.1575              3142.5600              3329.8092
 Red. masses --      1.0460                 1.1192                 1.1224
 Frc consts  --      5.7824                 6.5123                 7.3325
 IR Inten    --     40.6607                17.4330                18.9555

 - Thermochemistry -
 -------------------
 Temperature   298.150 Kelvin.  Pressure   1.00000 Atm.
 Atom     1 has atomic number  6 and mass  12.00000

 Molecular mass:    39.02348 amu.
 Principal axes and moments of inertia in atomic units:
                           1         2         3
     Eigenvalues --    46.92023  85.71478 120.55270
           X            0.44820   0.89393   0.00000
           Y            0.89393  -0.44820   0.00000
           Z            0.00000   0.00000   1.00000
 This molecule is an asymmetric top.
 Rotational symmetry number  1.
 Rotational temperatures (Kelvin)      1.84598     1.01049     0.71847
 Rotational constants (GHZ):          38.46404    21.05519    14.97056
 Zero-point vibrational energy     112675.6 (Joules/Mol)
                                   26.93011 (Kcal/Mol)
 Vibrational temperatures:    894.58   912.88  1097.05  1259.98  1451.48
          (Kelvin)           1496.41  1557.46  2172.27  2541.90  4407.19
                             4521.44  4790.85

 Zero-point correction=                           0.042916 (Hartree/Particle)
 Thermal correction to Energy=                    0.046288
 Thermal correction to Enthalpy=                  0.047232
 Thermal correction to Gibbs Free Energy=         0.018461
 Sum of electronic and zero-point Energies=           -115.936289
 Sum of electronic and thermal Energies=              -115.932917
 Sum of electronic and thermal Enthalpies=            -115.931972
 Sum of electronic and thermal Free Energies=         -115.960744

                     E (Thermal)             CV                S
                      KCal/Mol        Cal/Mol-Kelvin    Cal/Mol-Kelvin
 Total                   29.046             10.256             60.555
 Electronic               0.000              0.000              1.377
 Translational            0.889              2.981             36.913
 Rotational               0.889              2.981             20.811
 Vibrational             27.269              4.294              1.453

 Optimization completed.
    -- Stationary point found.
 Normal termination of Gaussian 09 at Tue Jul 19 09:29:49 2016.
