 Gaussian 09, Revision E.01,
 Gaussian 09:  EM64L-G09RevE.01 30-Nov-2015

 ---------------------------------------------
 #p b3lyp/6-311++G(3df,2p) freq symmetry=Loose
 ---------------------------------------------

 ---------
 b3lyp opt
 ---------
 Symbolic Z-matrix:
 Charge =  1 Multiplicity = 1

                         Standard orientation:
 ---------------------------------------------------------------------
 Center     Atomic      Atomic             Coordinates (Angstroms)
 Number     Number       Type             X           Y           Z
 ---------------------------------------------------------------------
      1          6           0       -0.000000    1.328087   -0.000000
      2          1           0       -0.000000    2.401655   -0.000000
      3          6           0       -0.000000    0.105047   -0.000000
      4          1           0        0.000002   -1.792640    0.935123
      5          6           0        0.000000   -1.235863    0.000000
      6          1           0        0.000002   -1.792640   -0.935123
 ---------------------------------------------------------------------

 SCF Done:  E(RB3LYP) =  -115.729101352     A.U. after   11 cycles

 The electronic state is 1-A'.
 Alpha  occ. eigenvalues --  -10.52843 -10.50396 -10.46718  -1.08465  -0.99112
 Alpha  occ. eigenvalues --   -0.81187  -0.76522  -0.73552  -0.61131  -0.55936
 Alpha virt. eigenvalues --   -0.41438  -0.23880  -0.18037  -0.17090  -0.13617
 Alpha virt. eigenvalues --   -0.12086  -0.11586  -0.09396  -0.07460  -0.07433
 Alpha virt. eigenvalues --   -0.05693  -0.05508  -0.02931  -0.00978  -0.00585

 Mulliken charges:
               1
     1  C    0.424274
     2  H    0.392820
     3  C    0.171299
     4  H    0.264102
     5  C   -0.516597
     6  H    0.264102
 Sum of Mulliken charges =   1.00000

 Dipole moment (field-independent basis, Debye):
    X=              0.0000    Y=             -0.4397    Z=             -0.0000  Tot=              0.4397
 Quadrupole moment (field-independent basis, Debye-Ang):
   XX=            -15.9143   YY=              0.5320   ZZ=            -15.1722
   XY=             -0.0000   XZ=             -0.0000   YZ=              0.0000

  Exact polarizability:  17.988  -0.000  51.471  -0.000  -0.000  20.771
 Approx polarizability:  24.850   0.000 106.904  -0.000  -0.000  27.348

                      1                      2                      3
                     A'                     A"                     A"
 Frequencies --    269.4869               320.1020               636.8833
 Red. masses --      3.2168                 2.9067                 1.2223
 Frc consts  --      0.1376                 0.1755                 0.2921
 IR Inten    --     24.6643                15.0528                58.7894

                      4                      5                      6
                     A'                     A"                     A'
 Frequencies --    908.5538              1033.7601              1129.0536
 Red. masses --      1.3706                 1.4383                 1.3508
 Frc consts  --      0.6666                 0.9056                 1.0146
 IR Inten    --      5.2915                 0.8145                10.9326

                      7                      8                      9
                     A'                     A'                     A'
 Frequencies --   1149.8924              1474.0331              2132.1187
 Red. masses --      3.1834                 1.2647                 6.3166
 Frc consts  --      2.4800                 1.6190                16.9183
 IR Inten    --     24.4471                 8.8591               370.7162

                     10                     11                     12
                     A'                     A"                     A'
 Frequencies --   3096.6147              3194.3610              3358.1539
 Red. masses --      1.0576                 1.1200                 1.1571
 Frc consts  --      5.9750                 6.7335                 7.6879
 IR Inten    --     29.9154                45.3490               116.2939

 - Thermochemistry -
 -------------------
 Temperature   298.150 Kelvin.  Pressure   1.00000 Atm.
 Atom     1 has atomic number  6 and mass  12.00000

 Molecular mass:    39.02348 amu.
 Principal axes and moments of inertia in atomic units:
                           1         2         3
     Eigenvalues --     6.29435 185.27260 191.56695
           X           -0.00000   0.00000   1.00000
           Y            1.00000   0.00000   0.00000
           Z            0.00000   1.00000   0.00000
 This molecule is an asymmetric top.
 Rotational symmetry number  1.
 Rotational temperatures (Kelvin)     13.76057     0.46749     0.45213
 Rotational constants (GHZ):         286.72407     9.74100     9.42094
 Zero-point vibrational energy     111868.9 (Joules/Mol)
                                   26.73730 (Kcal/Mol)
 Warning -- explicit consideration of   2 degrees of freedom as
           vibrations may cause significant error
 Vibrational temperatures:    387.73   460.55   916.33  1307.20  1487.35
          (Kelvin)           1624.45  1654.44  2120.80  3067.64  4455.33
                             4595.97  4831.63

 Zero-point correction=                           0.042609 (Hartree/Particle)
 Thermal correction to Energy=                    0.046570
 Thermal correction to Enthalpy=                  0.047515
 Thermal correction to Gibbs Free Energy=         0.018726
 Sum of electronic and zero-point Energies=           -115.686493
 Sum of electronic and thermal Energies=              -115.682531
 Sum of electronic and thermal Enthalpies=            -115.681587
 Sum of electronic and thermal Free Energies=         -115.710375

                     E (Thermal)             CV                S
                      KCal/Mol        Cal/Mol-Kelvin    Cal/Mol-Kelvin
 Total                   29.223             11.696             60.590
 Electronic               0.000              0.000              0.000
 Translational            0.889              2.981             36.913
 Rotational               0.889              2.981             20.041
 Vibrational             27.446              5.735              3.636
 Vibration     1          0.674              1.729              1.600
 Vibration     2          0.706              1.635              1.310

 Optimization completed.
    -- Stationary point found.
 Normal termination of Gaussian 09 at Tue Jul 19 12:36:42 2016.
