 Gaussian 09, Revision E.01,
 Gaussian 09:  EM64L-G09RevE.01 30-Nov-2015

 ---------------------------------------------
 #p b3lyp/6-311++G(3df,2p) freq symmetry=Loose
 ---------------------------------------------

 ---------
 b3lyp opt
 ---------
 Symbolic Z-matrix:
 Charge =  2 Multiplicity = 4

                         Standard orientation:
 ---------------------------------------------------------------------
 Center     Atomic      Atomic             Coordinates (Angstroms)
 Number     Number       Type             X           Y           Z
 ---------------------------------------------------------------------
      1          6           0        0.000000    1.069342   -0.000000
      2          6           0       -0.176692   -0.082123   -0.899785
      3          1           0        1.016945    1.588366    0.000000
      4          1           0       -0.691188    1.967691   -0.000000
      5          6           0       -0.176692   -0.082123    0.899785
      6          6           0        0.205279   -1.135382    0.000000
      7          1           0        0.562905   -2.174330    0.000000
 ---------------------------------------------------------------------

 SCF Done:  E(UB3LYP) =  -153.037899862     A.U. after   14 cycles

 The electronic state is 4-A".
 Alpha  occ. eigenvalues --  -10.85179 -10.85177 -10.82240 -10.75945  -1.51294
 Alpha  occ. eigenvalues --   -1.24954  -1.15529  -1.08461  -1.00916  -0.97134
 Alpha  occ. eigenvalues --   -0.96497  -0.90649  -0.85828  -0.78372
 Alpha virt. eigenvalues --   -0.60969  -0.58507  -0.37632  -0.35334  -0.34735
 Alpha virt. eigenvalues --   -0.32117  -0.31985  -0.30014  -0.27436  -0.25620
 Alpha virt. eigenvalues --   -0.23669  -0.23641  -0.23024  -0.22281  -0.21077

  Beta  occ. eigenvalues --  -10.82892 -10.82891 -10.81551 -10.75674  -1.47970
  Beta  occ. eigenvalues --   -1.22609  -1.08766  -1.06495  -0.95934  -0.94407
  Beta  occ. eigenvalues --   -0.94366
  Beta virt. eigenvalues --   -0.74567  -0.71297  -0.59739  -0.53194  -0.51856
  Beta virt. eigenvalues --   -0.36015  -0.34316  -0.33234  -0.30777  -0.30604
  Beta virt. eigenvalues --   -0.28257  -0.25314  -0.24449  -0.22857  -0.22017

 Mulliken charges and spin densities:
               1          2
     1  C   -0.231688   0.009691
     2  C    0.464280   1.214079
     3  H    0.333519   0.125286
     4  H    0.277202   0.123874
     5  C    0.464280   1.214079
     6  C    0.289200   0.310203
     7  H    0.403208   0.002788
 Sum of Mulliken charges =   2.00000   3.00000

 Dipole moment (field-independent basis, Debye):
    X=              0.8979    Y=              0.1826    Z=             -0.0000  Tot=              0.9163
 Quadrupole moment (field-independent basis, Debye-Ang):
   XX=            -16.0352   YY=             -0.4015   ZZ=            -14.4238
   XY=             -1.6303   XZ=             -0.0000   YZ=             -0.0000

  Exact polarizability:  22.153  -1.169  43.577  -0.000  -0.000  29.175
 Approx polarizability:  33.467  -1.493  73.910   0.000  -0.000  59.721

                      1                      2                      3
                     A'                     A"                     A'
 Frequencies --    410.0420               617.1781               636.0048
 Red. masses --      1.5817                 1.4175                 1.7323
 Frc consts  --      0.1567                 0.3181                 0.4128
 IR Inten    --     31.2159                 0.2884                30.8728

                      4                      5                      6
                     A'                     A"                     A'
 Frequencies --    781.7734               817.3190               877.9248
 Red. masses --      4.9424                 1.8729                 1.8661
 Frc consts  --      1.7797                 0.7371                 0.8474
 IR Inten    --      1.4110                35.9108                97.1063

                      7                      8                      9
                     A"                     A"                     A'
 Frequencies --    924.5395              1023.5465              1060.8568
 Red. masses --      2.9659                 1.2393                 1.2387
 Frc consts  --      1.4937                 0.7650                 0.8213
 IR Inten    --     12.6538                 0.3437               383.2838

                     10                     11                     12
                     A"                     A'                     A'
 Frequencies --   1151.0440              1156.2686              1292.4525
 Red. masses --      2.1673                 4.7938                 5.7203
 Frc consts  --      1.6918                 3.7761                 5.6299
 IR Inten    --     80.2870                 0.3559                12.3140

                     13                     14                     15
                     A'                     A'                     A'
 Frequencies --   2531.3309              2659.1061              3067.6610
 Red. masses --      1.0762                 1.0696                 1.1084
 Frc consts  --      4.0630                 4.4562                 6.1454
 IR Inten    --    346.1067               745.7354               285.0422

 - Thermochemistry -
 -------------------
 Temperature   298.150 Kelvin.  Pressure   1.00000 Atm.
 Atom     1 has atomic number  6 and mass  12.00000

 Molecular mass:    51.02348 amu.
 Principal axes and moments of inertia in atomic units:
                           1         2         3
     Eigenvalues --    79.27239 155.72811 215.23225
           X           -0.09096   0.00000   0.99585
           Y            0.99585   0.00000   0.09096
           Z           -0.00000   1.00000  -0.00000
 This molecule is an asymmetric top.
 Rotational symmetry number  1.
 Rotational temperatures (Kelvin)      1.09261     0.55619     0.40242
 Rotational constants (GHZ):          22.76633    11.58905     8.38509
 Zero-point vibrational energy     113687.4 (Joules/Mol)
                                   27.17194 (Kcal/Mol)
 Warning -- explicit consideration of   2 degrees of freedom as
           vibrations may cause significant error
 Vibrational temperatures:    589.96   887.98   915.07  1124.80  1175.94
          (Kelvin)           1263.14  1330.20  1472.65  1526.33  1656.09
                             1663.61  1859.55  3642.02  3825.86  4413.67

 Zero-point correction=                           0.043301 (Hartree/Particle)
 Thermal correction to Energy=                    0.047105
 Thermal correction to Enthalpy=                  0.048050
 Thermal correction to Gibbs Free Energy=         0.016838
 Sum of electronic and zero-point Energies=           -152.994599
 Sum of electronic and thermal Energies=              -152.990794
 Sum of electronic and thermal Enthalpies=            -152.989850
 Sum of electronic and thermal Free Energies=         -153.021061

                     E (Thermal)             CV                S
                      KCal/Mol        Cal/Mol-Kelvin    Cal/Mol-Kelvin
 Total                   29.559             12.960             65.689
 Electronic               0.000              0.000              2.755
 Translational            0.889              2.981             37.712
 Rotational               0.889              2.981             22.501
 Vibrational             27.782              6.999              2.721
 Vibration     1          0.774              1.448              0.926
 Vibration     2          0.977              0.996              0.421

 Optimization completed.
    -- Stationary point found.
 Normal termination of Gaussian 09 at Tue Jul 19 10:02:49 2016.
