 Gaussian 09, Revision E.01,
 Gaussian 09:  EM64L-G09RevE.01 30-Nov-2015

 ---------------------------------------------
 #p b3lyp/6-311++G(3df,2p) freq symmetry=Loose
 ---------------------------------------------

 ---------
 b3lyp opt
 ---------
 Symbolic Z-matrix:
 Charge =  1 Multiplicity = 1

                         Standard orientation:
 ---------------------------------------------------------------------
 Center     Atomic      Atomic             Coordinates (Angstroms)
 Number     Number       Type             X           Y           Z
 ---------------------------------------------------------------------
      1          6           0        0.630809    0.823072    0.000050
      2          1           0        0.682283    1.370092   -0.935416
      3          1           0        0.682083    1.370131    0.935504
      4          6           0        0.879372   -0.609179    0.000107
      5          1           0        1.683030   -1.336707    0.000208
      6          6           0       -0.438292   -0.549767   -0.000035
      7          6           0       -1.579789    0.101955   -0.000171
 ---------------------------------------------------------------------

 SCF Done:  E(RB3LYP) =  -153.720677043     A.U. after   12 cycles

 The electronic state is 1-A.
 Alpha  occ. eigenvalues --  -10.54542 -10.52547 -10.51325 -10.48126  -1.18815
 Alpha  occ. eigenvalues --   -0.99524  -0.90561  -0.81290  -0.74299  -0.70913
 Alpha  occ. eigenvalues --   -0.59294  -0.58653  -0.55571
 Alpha virt. eigenvalues --   -0.40750  -0.32546  -0.22575  -0.18814  -0.16823
 Alpha virt. eigenvalues --   -0.15585  -0.12868  -0.11887  -0.09502  -0.07672
 Alpha virt. eigenvalues --   -0.07033  -0.06919  -0.05640  -0.05512  -0.03335

 Mulliken charges:
               1
     1  C   -0.449913
     2  H    0.241723
     3  H    0.241723
     4  C    0.160378
     5  H    0.333390
     6  C    0.418947
     7  C    0.053753
 Sum of Mulliken charges =   1.00000

 Dipole moment (field-independent basis, Debye):
    X=              3.2709    Y=             -0.2845    Z=              0.0004  Tot=              3.2832
 Quadrupole moment (field-independent basis, Debye-Ang):
   XX=            -17.2844   YY=            -15.8811   ZZ=            -19.5871
   XY=             -0.1086   XZ=              0.0002   YZ=             -0.0001

  Exact polarizability:  52.319   0.818  35.772   0.003  -0.000  26.891
 Approx polarizability: 122.565   3.282  58.121   0.009  -0.000  40.014

                      1                      2                      3
                      A                      A                      A
 Frequencies --    141.9688               152.0417               572.4017
 Red. masses --      4.2541                 7.1933                 8.6795
 Frc consts  --      0.0505                 0.0980                 1.6755
 IR Inten    --      0.2747                 2.0844                54.4711

                      4                      5                      6
                      A                      A                      A
 Frequencies --    661.3562               934.1936               938.8327
 Red. masses --      1.0563                 1.2036                 1.5515
 Frc consts  --      0.2722                 0.6189                 0.8057
 IR Inten    --      3.9247                 5.0911                19.8836

                      7                      8                      9
                      A                      A                      A
 Frequencies --   1041.2313              1067.0283              1154.1619
 Red. masses --      1.4162                 1.2781                 2.4530
 Frc consts  --      0.9047                 0.8574                 1.9252
 IR Inten    --      0.0132                20.8442                 3.8852

                     10                     11                     12
                      A                      A                      A
 Frequencies --   1252.9956              1449.0009              1885.0361
 Red. masses --      5.3916                 1.0978                 9.2027
 Frc consts  --      4.9874                 1.3581                19.2665
 IR Inten    --     24.6184                 7.7710               563.1995

                     13                     14                     15
                      A                      A                      A
 Frequencies --   3098.2348              3205.9386              3217.3870
 Red. masses --      1.0473                 1.1149                 1.1240
 Frc consts  --      5.9229                 6.7513                 6.8551
 IR Inten    --     31.7066                62.5902                37.8435

 - Thermochemistry -
 -------------------
 Temperature   298.150 Kelvin.  Pressure   1.00000 Atm.
 Atom     1 has atomic number  6 and mass  12.00000

 Molecular mass:    51.02348 amu.
 Principal axes and moments of inertia in atomic units:
                           1         2         3
     Eigenvalues --    84.42547 184.58535 256.41305
           X            0.99994  -0.01051  -0.00011
           Y            0.01051   0.99994   0.00002
           Z            0.00011  -0.00002   1.00000
 This molecule is an asymmetric top.
 Rotational symmetry number  1.
 Rotational temperatures (Kelvin)      1.02592     0.46923     0.33779
 Rotational constants (GHZ):          21.37674     9.77727     7.03841
 Zero-point vibrational energy     124243.0 (Joules/Mol)
                                   29.69479 (Kcal/Mol)
 Warning -- explicit consideration of   3 degrees of freedom as
           vibrations may cause significant error
 Vibrational temperatures:    204.26   218.75   823.56   951.54  1344.09
          (Kelvin)           1350.77  1498.10  1535.21  1660.58  1802.78
                             2084.79  2712.14  4457.66  4612.62  4629.10

 Zero-point correction=                           0.047322 (Hartree/Particle)
 Thermal correction to Energy=                    0.051951
 Thermal correction to Enthalpy=                  0.052895
 Thermal correction to Gibbs Free Energy=         0.020876
 Sum of electronic and zero-point Energies=           -153.673355
 Sum of electronic and thermal Energies=              -153.668726
 Sum of electronic and thermal Enthalpies=            -153.667782
 Sum of electronic and thermal Free Energies=         -153.699801

                     E (Thermal)             CV                S
                      KCal/Mol        Cal/Mol-Kelvin    Cal/Mol-Kelvin
 Total                   32.600             13.835             67.389
 Electronic               0.000              0.000              0.000
 Translational            0.889              2.981             37.712
 Rotational               0.889              2.981             22.906
 Vibrational             30.822              7.873              6.771
 Vibration     1          0.615              1.911              2.777
 Vibration     2          0.619              1.900              2.647
 Vibration     3          0.929              1.091              0.500

 Optimization completed.
    -- Stationary point found.
 Normal termination of Gaussian 09 at Tue Jul 19 14:04:55 2016.
