 Gaussian 09, Revision E.01,
 Gaussian 09:  EM64L-G09RevE.01 30-Nov-2015

 ---------------------------------------------
 #p b3lyp/6-311++G(3df,2p) freq symmetry=Loose
 ---------------------------------------------

 ---------
 b3lyp opt
 ---------
 Symbolic Z-matrix:
 Charge =  1 Multiplicity = 1

                         Standard orientation:
 ---------------------------------------------------------------------
 Center     Atomic      Atomic             Coordinates (Angstroms)
 Number     Number       Type             X           Y           Z
 ---------------------------------------------------------------------
      1          6           0       -1.508194    0.030936    0.000237
      2          1           0       -2.055086    0.109951   -0.936520
      3          6           0       -0.186749   -0.135361    0.000021
      4          1           0       -2.054794    0.109845    0.937172
      5          6           0        1.043705    0.562784   -0.000131
      6          1           0        1.338609    1.603445   -0.000118
      7          6           0        1.113117   -0.762233   -0.000217
 ---------------------------------------------------------------------

 SCF Done:  E(RB3LYP) =  -153.779771483     A.U. after   11 cycles

 The electronic state is 1-A.
 Alpha  occ. eigenvalues --  -10.52917 -10.50970 -10.48867 -10.48846  -1.20849
 Alpha  occ. eigenvalues --   -1.03277  -0.84611  -0.79541  -0.73177  -0.70604
 Alpha  occ. eigenvalues --   -0.64823  -0.62634  -0.51399
 Alpha virt. eigenvalues --   -0.36499  -0.30836  -0.25681  -0.16822  -0.14652
 Alpha virt. eigenvalues --   -0.11971  -0.11897  -0.10652  -0.09107  -0.08111
 Alpha virt. eigenvalues --   -0.07579  -0.05134  -0.04094  -0.03443  -0.02963

 Mulliken charges:
               1
     1  C   -0.403800
     2  H    0.259337
     3  C    0.396028
     4  H    0.259337
     5  C    0.255719
     6  H    0.321980
     7  C   -0.088602
 Sum of Mulliken charges =   1.00000

 Dipole moment (field-independent basis, Debye):
    X=             -1.9518    Y=              2.5699    Z=              0.0004  Tot=              3.2271
 Quadrupole moment (field-independent basis, Debye-Ang):
   XX=             -9.5186   YY=            -19.4703   ZZ=            -19.2534
   XY=              3.3153   XZ=             -0.0013   YZ=             -0.0005

  Exact polarizability:  66.617  -5.628  33.028  -0.007   0.001  25.337
 Approx polarizability: 166.784 -27.243  58.678  -0.022   0.005  37.812

                      1                      2                      3
                      A                      A                      A
 Frequencies --    287.1410               387.7945               463.5159
 Red. masses --      3.5946                 2.4615                 1.1561
 Frc consts  --      0.1746                 0.2181                 0.1463
 IR Inten    --      5.2414                 2.8581                 1.2609

                      4                      5                      6
                      A                      A                      A
 Frequencies --    795.9585               842.5456               881.3805
 Red. masses --      7.2169                 1.2597                 2.6661
 Frc consts  --      2.6939                 0.5269                 1.2203
 IR Inten    --     69.9272                19.7082                26.7099

                      7                      8                      9
                      A                      A                      A
 Frequencies --    982.7251               983.0338               998.5366
 Red. masses --      1.6725                 1.6710                 1.3593
 Frc consts  --      0.9517                 0.9514                 0.7986
 IR Inten    --     11.0824                 6.3116                30.1092

                     10                     11                     12
                      A                      A                      A
 Frequencies --   1340.8125              1447.0770              1725.9531
 Red. masses --      1.7193                 2.2820                 7.5661
 Frc consts  --      1.8211                 2.8155                13.2795
 IR Inten    --     52.4032                 3.7258                 6.4599

                     13                     14                     15
                      A                      A                      A
 Frequencies --   3099.3602              3195.3064              3240.4259
 Red. masses --      1.0551                 1.1174                 1.1213
 Frc consts  --      5.9718                 6.7217                 6.9370
 IR Inten    --    117.4339                63.9315               112.5835

 - Thermochemistry -
 -------------------
 Temperature   298.150 Kelvin.  Pressure   1.00000 Atm.
 Atom     1 has atomic number  6 and mass  12.00000

 Molecular mass:    51.02348 amu.
 Principal axes and moments of inertia in atomic units:
                           1         2         3
     Eigenvalues --    54.55358 241.55006 283.46852
           X            0.99954   0.03026   0.00016
           Y           -0.03026   0.99954  -0.00006
           Z           -0.00016   0.00005   1.00000
 This molecule is an asymmetric top.
 Rotational symmetry number  1.
 Rotational temperatures (Kelvin)      1.58768     0.35857     0.30555
 Rotational constants (GHZ):          33.08200     7.47150     6.36664
 Zero-point vibrational energy     123643.4 (Joules/Mol)
                                   29.55149 (Kcal/Mol)
 Warning -- explicit consideration of   3 degrees of freedom as
           vibrations may cause significant error
 Vibrational temperatures:    413.13   557.95   666.90  1145.21  1212.23
          (Kelvin)           1268.11  1413.92  1414.36  1436.67  1929.13
                             2082.02  2483.26  4459.28  4597.33  4662.24

 Zero-point correction=                           0.047093 (Hartree/Particle)
 Thermal correction to Energy=                    0.051274
 Thermal correction to Enthalpy=                  0.052218
 Thermal correction to Gibbs Free Energy=         0.021487
 Sum of electronic and zero-point Energies=           -153.732678
 Sum of electronic and thermal Energies=              -153.728497
 Sum of electronic and thermal Enthalpies=            -153.727553
 Sum of electronic and thermal Free Energies=         -153.758285

                     E (Thermal)             CV                S
                      KCal/Mol        Cal/Mol-Kelvin    Cal/Mol-Kelvin
 Total                   32.175             13.677             64.680
 Electronic               0.000              0.000              0.000
 Translational            0.889              2.981             37.712
 Rotational               0.889              2.981             22.839
 Vibrational             30.397              7.716              4.128
 Vibration     1          0.684              1.698              1.491
 Vibration     2          0.756              1.496              1.009
 Vibration     3          0.821              1.331              0.756

 Optimization completed.
    -- Stationary point found.
 Normal termination of Gaussian 09 at Tue Jul 19 14:05:51 2016.
