 Gaussian 09, Revision E.01,
 Gaussian 09:  EM64L-G09RevE.01 30-Nov-2015

 ---------------------------------------------
 #p b3lyp/6-311++G(3df,2p) freq symmetry=Loose
 ---------------------------------------------

 ---------
 b3lyp opt
 ---------
 Symbolic Z-matrix:
 Charge =  2 Multiplicity = 4

                         Standard orientation:
 ---------------------------------------------------------------------
 Center     Atomic      Atomic             Coordinates (Angstroms)
 Number     Number       Type             X           Y           Z
 ---------------------------------------------------------------------
      1          6           0       -0.512156   -1.019250   -0.040955
      2          6           0       -1.010559    0.277101    0.113983
      3          1           0       -1.958082    0.758913   -0.220774
      4          6           0        0.471745    0.879128   -0.004054
      5          1           0        0.849787    1.907911   -0.070585
      6          6           0        0.928895   -0.428840   -0.078711
      7          1           0        1.840747   -0.915656    0.349770
 ---------------------------------------------------------------------

 SCF Done:  E(UB3LYP) =  -153.045725231     A.U. after   16 cycles

 The electronic state is 4-A.
 Alpha  occ. eigenvalues --  -10.83880 -10.80727 -10.80615 -10.79945  -1.47242
 Alpha  occ. eigenvalues --   -1.24010  -1.17381  -1.05332  -1.01514  -0.97196
 Alpha  occ. eigenvalues --   -0.95520  -0.90402  -0.82745  -0.78151
 Alpha virt. eigenvalues --   -0.65496  -0.51506  -0.44030  -0.34778  -0.33879
 Alpha virt. eigenvalues --   -0.32579  -0.31258  -0.29284  -0.27211  -0.25912
 Alpha virt. eigenvalues --   -0.25268  -0.23334  -0.22465  -0.21132  -0.20978

  Beta  occ. eigenvalues --  -10.81335 -10.79804 -10.79648 -10.78931  -1.42734
  Beta  occ. eigenvalues --   -1.19447  -1.13647  -1.01945  -0.98083  -0.94329
  Beta  occ. eigenvalues --   -0.91314
  Beta virt. eigenvalues --   -0.76939  -0.64628  -0.63935  -0.58928  -0.44016
  Beta virt. eigenvalues --   -0.41189  -0.33475  -0.32637  -0.31124  -0.29981
  Beta virt. eigenvalues --   -0.28498  -0.25864  -0.25268  -0.22462  -0.22130

 Mulliken charges and spin densities:
               1          2
     1  C    0.556203   1.333509
     2  C    0.026038   0.554382
     3  H    0.293336   0.044436
     4  C    0.387176   0.451224
     5  H    0.379032   0.022926
     6  C    0.065523   0.540633
     7  H    0.292692   0.052891
 Sum of Mulliken charges =   2.00000   3.00000

 Dipole moment (field-independent basis, Debye):
    X=              0.3612    Y=              0.9426    Z=              0.1395  Tot=              1.0191
 Quadrupole moment (field-independent basis, Debye-Ang):
   XX=             -3.9803   YY=             -7.9286   ZZ=            -18.4252
   XY=             -1.7580   XZ=              0.9916   YZ=             -0.7341

  Exact polarizability:  38.567  -2.457  35.931  -0.011   0.771  19.519
 Approx polarizability:  62.024  -8.584  66.074  -1.990   4.407  30.035

                      1                      2                      3
                      A                      A                      A
 Frequencies --    355.4136               495.0469               596.0840
 Red. masses --      2.1298                 2.2815                 2.0083
 Frc consts  --      0.1585                 0.3294                 0.4204
 IR Inten    --      6.8482                24.9231                47.4645

                      4                      5                      6
                      A                      A                      A
 Frequencies --    638.9772               675.3325               852.9105
 Red. masses --      2.7097                 2.0674                 1.6018
 Frc consts  --      0.6518                 0.5555                 0.6865
 IR Inten    --     28.7810                10.2183                 6.1465

                      7                      8                      9
                      A                      A                      A
 Frequencies --    889.4877               964.7421               979.4750
 Red. masses --      1.1279                 2.4483                 1.3791
 Frc consts  --      0.5258                 1.3426                 0.7795
 IR Inten    --     66.0213                 0.4575                14.7346

                     10                     11                     12
                      A                      A                      A
 Frequencies --   1075.8684              1273.7198              1331.5582
 Red. masses --      1.3059                 7.2053                 6.6296
 Frc consts  --      0.8906                 6.8873                 6.9256
 IR Inten    --     12.8460                10.5026                27.2675

                     13                     14                     15
                      A                      A                      A
 Frequencies --   2775.1940              2841.9723              3065.3935
 Red. masses --      1.0720                 1.0877                 1.1030
 Frc consts  --      4.8645                 5.1762                 6.1068
 IR Inten    --    385.3364               627.6924               251.4553

 - Thermochemistry -
 -------------------
 Temperature   298.150 Kelvin.  Pressure   1.00000 Atm.
 Atom     1 has atomic number  6 and mass  12.00000

 Molecular mass:    51.02348 amu.
 Principal axes and moments of inertia in atomic units:
                           1         2         3
     Eigenvalues --   107.05264 132.71084 237.01229
           X            0.97678  -0.21229   0.02887
           Y            0.21296   0.97681  -0.02223
           Z           -0.02348   0.02786   0.99934
 This molecule is an asymmetric top.
 Rotational symmetry number  1.
 Rotational temperatures (Kelvin)      0.80908     0.65265     0.36544
 Rotational constants (GHZ):          16.85845    13.59905     7.61455
 Zero-point vibrational energy     112515.8 (Joules/Mol)
                                   26.89193 (Kcal/Mol)
 Warning -- explicit consideration of   3 degrees of freedom as
           vibrations may cause significant error
 Vibrational temperatures:    511.36   712.26   857.63   919.34   971.65
          (Kelvin)           1227.15  1279.77  1388.05  1409.24  1547.93
                             1832.60  1915.81  3992.88  4088.96  4410.41

 Zero-point correction=                           0.042855 (Hartree/Particle)
 Thermal correction to Energy=                    0.046948
 Thermal correction to Enthalpy=                  0.047892
 Thermal correction to Gibbs Free Energy=         0.016133
 Sum of electronic and zero-point Energies=           -153.002870
 Sum of electronic and thermal Energies=              -152.998777
 Sum of electronic and thermal Enthalpies=            -152.997833
 Sum of electronic and thermal Free Energies=         -153.029592

                     E (Thermal)             CV                S
                      KCal/Mol        Cal/Mol-Kelvin    Cal/Mol-Kelvin
 Total                   29.460             14.151             66.843
 Electronic               0.000              0.000              2.755
 Translational            0.889              2.981             37.712
 Rotational               0.889              2.981             22.736
 Vibrational             27.683              8.190              3.640
 Vibration     1          0.731              1.564              1.142
 Vibration     2          0.851              1.261              0.671
 Vibration     3          0.954              1.040              0.456

 Optimization completed.
    -- Stationary point found.
 Normal termination of Gaussian 09 at Sun Jun 19 06:32:39 2016.
