 Gaussian 09, Revision E.01,
 Gaussian 09:  EM64L-G09RevE.01 30-Nov-2015

 ------------------------------------------------------
 #p b3lyp/6-311++G(3df,2p) freq IOp(2/17=3) IOp(2/18=3)
 ------------------------------------------------------

 ---------
 b3lyp opt
 ---------
 Symbolic Z-matrix:
 Charge =  1 Multiplicity = 3

                         Standard orientation:
 ---------------------------------------------------------------------
 Center     Atomic      Atomic             Coordinates (Angstroms)
 Number     Number       Type             X           Y           Z
 ---------------------------------------------------------------------
      1          6           0        0.809815   -0.547609    0.000000
      2          6           0       -0.263832   -0.236916   -0.866383
      3          1           0       -0.933507   -0.585787   -1.636804
      4          6           0       -0.000000    0.890730   -0.000000
      5          1           0        0.171926    1.955636   -0.000000
      6          6           0       -0.263832   -0.236916    0.866383
      7          1           0       -0.933507   -0.585787    1.636804
 ---------------------------------------------------------------------

 SCF Done:  E(UB3LYP) =  -153.689152453     A.U. after   13 cycles

 The electronic state is 3-A'.
 Alpha  occ. eigenvalues --  -10.53368 -10.51426 -10.50659 -10.50654  -1.28417
 Alpha  occ. eigenvalues --   -0.91131  -0.89454  -0.84622  -0.77346  -0.71248
 Alpha  occ. eigenvalues --   -0.66393  -0.61377  -0.57903  -0.46181
 Alpha virt. eigenvalues --   -0.25127  -0.22441  -0.15950  -0.14795  -0.13867
 Alpha virt. eigenvalues --   -0.12791  -0.10813  -0.09974  -0.08557  -0.08070
 Alpha virt. eigenvalues --   -0.06620  -0.06083  -0.05127  -0.04750  -0.03435

  Beta  occ. eigenvalues --  -10.51324 -10.50827 -10.50131 -10.50130  -1.26619
  Beta  occ. eigenvalues --   -0.89240  -0.86979  -0.82199  -0.74049  -0.70035
  Beta  occ. eigenvalues --   -0.63118  -0.59817
  Beta virt. eigenvalues --   -0.41116  -0.34615  -0.22306  -0.18359  -0.15258
  Beta virt. eigenvalues --   -0.14120  -0.13155  -0.11455  -0.10086  -0.09152
  Beta virt. eigenvalues --   -0.08057  -0.07880  -0.06266  -0.05394  -0.04443

 Mulliken charges and spin densities:
               1          2
     1  C    0.072812   1.116031
     2  C    0.012356   0.277851
     3  H    0.307772   0.004063
     4  C   -0.021081   0.328343
     5  H    0.308014  -0.008202
     6  C    0.012356   0.277851
     7  H    0.307772   0.004063
 Sum of Mulliken charges =   1.00000   2.00000

 Dipole moment (field-independent basis, Debye):
    X=             -1.1451    Y=              0.3702    Z=              0.0000  Tot=              1.2034
 Quadrupole moment (field-independent basis, Debye-Ang):
   XX=            -19.0713   YY=            -15.7093   ZZ=            -15.0300
   XY=              0.9917   XZ=              0.0000   YZ=             -0.0000

  Exact polarizability:  29.320  -0.342  32.502   0.000   0.000  36.711
 Approx polarizability:  46.885  -4.337  52.089   0.000  -0.000  61.419

                      1                      2                      3
                     A'                     A"                     A'
 Frequencies --    472.2307               575.9581               633.1279
 Red. masses --      7.4487                 9.2121                 1.6902
 Frc consts  --      0.9787                 1.8005                 0.3992
 IR Inten    --     10.5771                 3.2127                 6.9791

                      4                      5                      6
                     A'                     A"                     A'
 Frequencies --    675.5696               730.7395               750.0907
 Red. masses --      2.0158                 1.3348                 1.2319
 Frc consts  --      0.5420                 0.4199                 0.4084
 IR Inten    --     42.7994                52.3073                10.2757

                      7                      8                      9
                     A"                     A'                     A"
 Frequencies --    906.5969               960.3218              1006.5956
 Red. masses --      1.0899                 1.2577                 1.2840
 Frc consts  --      0.5278                 0.6834                 0.7665
 IR Inten    --      5.7267                35.3314                10.1303

                     10                     11                     12
                     A'                     A"                     A'
 Frequencies --   1200.1484              1266.3593              1439.2507
 Red. masses --      4.8966                 4.7920                 6.5647
 Frc consts  --      4.1554                 4.5277                 8.0120
 IR Inten    --     20.1220                 1.3961                 1.1412

                     13                     14                     15
                     A'                     A"                     A'
 Frequencies --   3243.6305              3244.1196              3266.9154
 Red. masses --      1.0929                 1.1009                 1.1210
 Frc consts  --      6.7748                 6.8261                 7.0489
 IR Inten    --    136.7945               166.3790                30.9066

 - Thermochemistry -
 -------------------
 Temperature   298.150 Kelvin.  Pressure   1.00000 Atm.
 Atom     1 has atomic number  6 and mass  12.00000

 Molecular mass:    51.02348 amu.
 Principal axes and moments of inertia in atomic units:
                           1         2         3
     Eigenvalues --   108.10324 121.50741 153.82922
           X            0.00000  -0.27021   0.96280
           Y            0.00000   0.96280   0.27021
           Z            1.00000  -0.00000  -0.00000
 This molecule is an asymmetric top.
 Rotational symmetry number  1.
 Rotational temperatures (Kelvin)      0.80121     0.71283     0.56305
 Rotational constants (GHZ):          16.69461    14.85293    11.73211
 Zero-point vibrational energy     121849.6 (Joules/Mol)
                                   29.12274 (Kcal/Mol)
 Warning -- explicit consideration of   2 degrees of freedom as
           vibrations may cause significant error
 Vibrational temperatures:    679.43   828.67   910.93   971.99  1051.37
          (Kelvin)           1079.21  1304.39  1381.69  1448.26  1726.74
                             1822.01  2070.76  4666.86  4667.56  4700.36

 Zero-point correction=                           0.046410 (Hartree/Particle)
 Thermal correction to Energy=                    0.050290
 Thermal correction to Enthalpy=                  0.051234
 Thermal correction to Gibbs Free Energy=         0.020336
 Sum of electronic and zero-point Energies=           -153.642742
 Sum of electronic and thermal Energies=              -153.638863
 Sum of electronic and thermal Enthalpies=            -153.637919
 Sum of electronic and thermal Free Energies=         -153.668816

                     E (Thermal)             CV                S
                      KCal/Mol        Cal/Mol-Kelvin    Cal/Mol-Kelvin
 Total                   31.557             13.450             65.030
 Electronic               0.000              0.000              2.183
 Translational            0.889              2.981             37.712
 Rotational               0.889              2.981             22.229
 Vibrational             29.780              7.489              2.905
 Vibration     1          0.829              1.312              0.731
 Vibration     2          0.932              1.083              0.493

 Optimization completed.
    -- Stationary point found.
 Normal termination of Gaussian 09 at Thu Jan 31 05:30:30 2019.
