 Gaussian 09, Revision E.01,
 Gaussian 09:  EM64L-G09RevE.01 30-Nov-2015

 ---------------------------------------------
 #p b3lyp/6-311++G(3df,2p) freq symmetry=Loose
 ---------------------------------------------

 ---------
 b3lyp opt
 ---------
 Symbolic Z-matrix:
 Charge =  1 Multiplicity = 3

                         Standard orientation:
 ---------------------------------------------------------------------
 Center     Atomic      Atomic             Coordinates (Angstroms)
 Number     Number       Type             X           Y           Z
 ---------------------------------------------------------------------
      1          6           0       -0.000000   -0.000000   -1.887542
      2          1           0        0.000000    0.932559   -2.449321
      3          1           0       -0.000000   -0.932559   -2.449321
      4          6           0        0.000000   -0.000000   -0.538227
      5          6           0        0.000000    0.000000    0.734938
      6          6           0       -0.000000   -0.000000    1.995986
      7          1           0       -0.000000   -0.000000    3.067740
 ---------------------------------------------------------------------

 SCF Done:  E(UB3LYP) =  -153.784796064     A.U. after   14 cycles

 The electronic state is 3-A2.
 Alpha  occ. eigenvalues --  -10.48838 -10.48645 -10.47850 -10.46086  -1.08224
 Alpha  occ. eigenvalues --   -1.02534  -0.92433  -0.78175  -0.74904  -0.71302
 Alpha  occ. eigenvalues --   -0.62663  -0.59928  -0.53370  -0.45870
 Alpha virt. eigenvalues --   -0.33146  -0.16906  -0.16001  -0.13377  -0.12819
 Alpha virt. eigenvalues --   -0.11573  -0.10799  -0.09432  -0.07553  -0.06408
 Alpha virt. eigenvalues --   -0.05392  -0.04943  -0.03028  -0.02331  -0.02120

  Beta  occ. eigenvalues --  -10.48169 -10.47030 -10.46836 -10.46364  -1.05784
  Beta  occ. eigenvalues --   -0.99153  -0.90002  -0.76613  -0.73545  -0.69383
  Beta  occ. eigenvalues --   -0.59114  -0.56526
  Beta virt. eigenvalues --   -0.42647  -0.33491  -0.28062  -0.15677  -0.14315
  Beta virt. eigenvalues --   -0.12739  -0.11076  -0.10796  -0.10720  -0.08938
  Beta virt. eigenvalues --   -0.07111  -0.05149  -0.04817  -0.03464  -0.02245

 Mulliken charges and spin densities:
               1          2
     1  C   -0.408976   0.379950
     2  H    0.253557   0.022672
     3  H    0.253557   0.022672
     4  C    0.414792   0.638363
     5  C   -0.244591   0.110730
     6  C    0.345719   0.853880
     7  H    0.385941  -0.028265
 Sum of Mulliken charges =   1.00000   2.00000

 Dipole moment (field-independent basis, Debye):
    X=             -0.0000    Y=              0.0000    Z=             -0.3351  Tot=              0.3351
 Quadrupole moment (field-independent basis, Debye-Ang):
   XX=            -21.3515   YY=            -20.7459   ZZ=              5.1856
   XY=              0.0000   XZ=              0.0000   YZ=             -0.0000

  Exact polarizability:  23.387   0.000  26.418  -0.000   0.000  91.430
 Approx polarizability:  32.413   0.000  35.440   0.000   0.000 175.975

                      1                      2                      3
                     B2                     B1                     B2
 Frequencies --    116.3822               203.8202               208.8796
 Red. masses --      3.3709                 3.5963                 1.4539
 Frc consts  --      0.0269                 0.0880                 0.0374
 IR Inten    --     12.1320                14.6504                45.4330

                      4                      5                      6
                     B2                     B1                     B1
 Frequencies --    372.0677               502.8327               737.4224
 Red. masses --      3.5282                 5.1006                 1.3837
 Frc consts  --      0.2878                 0.7598                 0.4433
 IR Inten    --      8.9712                 0.3749                13.3115

                      7                      8                      9
                     A1                     B2                     B1
 Frequencies --    901.8510               995.7927              1012.0854
 Red. masses --      4.8161                 1.3239                 1.3536
 Frc consts  --      2.3079                 0.7735                 0.8169
 IR Inten    --      5.8994                 0.0279                20.6855

                     10                     11                     12
                     A1                     A1                     A1
 Frequencies --   1442.2523              1558.3329              2006.0940
 Red. masses --      1.1586                 6.2099                10.0296
 Frc consts  --      1.4199                 8.8850                23.7813
 IR Inten    --     30.6243               101.6381                18.1878

                     13                     14                     15
                     A1                     B2                     A1
 Frequencies --   3074.7033              3170.5908              3353.6343
 Red. masses --      1.0511                 1.1186                 1.1236
 Frc consts  --      5.8547                 6.6251                 7.4455
 IR Inten    --     37.1038                28.4908               203.2435

 - Thermochemistry -
 -------------------
 Temperature   298.150 Kelvin.  Pressure   1.00000 Atm.
 Atom     1 has atomic number  6 and mass  12.00000

 Molecular mass:    51.02348 amu.
 Principal axes and moments of inertia in atomic units:
                           1         2         3
     Eigenvalues --     6.25988 435.78200 442.04188
           X            0.00000  -0.00000   1.00000
           Y            0.00000   1.00000   0.00000
           Z            1.00000   0.00000   0.00000
 This molecule is an asymmetric top.
 Rotational symmetry number  2.
 Rotational temperatures (Kelvin)     13.83634     0.19875     0.19594
 Rotational constants (GHZ):         288.30292     4.14139     4.08274
 Zero-point vibrational energy     117573.4 (Joules/Mol)
                                   28.10072 (Kcal/Mol)
 Warning -- explicit consideration of   5 degrees of freedom as
           vibrations may cause significant error
 Vibrational temperatures:    167.45   293.25   300.53   535.32   723.46
          (Kelvin)           1060.99  1297.56  1432.72  1456.16  2075.08
                             2242.09  2886.32  4423.81  4561.77  4825.13

 Zero-point correction=                           0.044781 (Hartree/Particle)
 Thermal correction to Energy=                    0.050214
 Thermal correction to Enthalpy=                  0.051159
 Thermal correction to Gibbs Free Energy=         0.017956
 Sum of electronic and zero-point Energies=           -153.740015
 Sum of electronic and thermal Energies=              -153.734582
 Sum of electronic and thermal Enthalpies=            -153.733638
 Sum of electronic and thermal Free Energies=         -153.766840

                     E (Thermal)             CV                S
                      KCal/Mol        Cal/Mol-Kelvin    Cal/Mol-Kelvin
 Total                   31.510             16.500             69.881
 Electronic               0.000              0.000              2.183
 Translational            0.889              2.981             37.712
 Rotational               0.889              2.981             20.339
 Vibrational             29.733             10.538              9.647
 Vibration     1          0.608              1.936              3.160
 Vibration     2          0.639              1.834              2.098
 Vibration     3          0.642              1.827              2.053
 Vibration     4          0.744              1.530              1.071
 Vibration     5          0.858              1.244              0.651

 Optimization completed.
    -- Stationary point found.
 Normal termination of Gaussian 09 at Sun Jun 19 06:15:46 2016.
