 Gaussian 09, Revision E.01,
 Gaussian 09:  EM64L-G09RevE.01 30-Nov-2015

 ---------------------------------------------
 #p b3lyp/6-311++G(3df,2p) freq symmetry=Loose
 ---------------------------------------------

 ---------
 b3lyp opt
 ---------
 Symbolic Z-matrix:
 Charge =  3 Multiplicity = 1

                         Standard orientation:
 ---------------------------------------------------------------------
 Center     Atomic      Atomic             Coordinates (Angstroms)
 Number     Number       Type             X           Y           Z
 ---------------------------------------------------------------------
      1          6           0       -1.725032   -0.108088    0.000053
      2          1           0       -2.248783   -1.120541    0.000080
      3          1           0       -2.889900    0.474837    0.000082
      4          1           0       -2.114517    1.115056    0.000051
      5          6           0       -0.371812    0.010333    0.000011
      6          6           0        0.885813    0.018367   -0.000027
      7          6           0        2.419897    0.001163   -0.000073
 ---------------------------------------------------------------------

 SCF Done:  E(RB3LYP) =  -152.186594175     A.U. after   13 cycles

 The electronic state is 1-A.
 Alpha  occ. eigenvalues --  -11.12855 -11.08338 -11.01881 -11.01236  -1.59511
 Alpha  occ. eigenvalues --   -1.51766  -1.42022  -1.34051  -1.24543  -1.09906
 Alpha  occ. eigenvalues --   -1.05987  -1.05051
 Alpha virt. eigenvalues --   -0.93965  -0.86858  -0.82474  -0.72926  -0.69072
 Alpha virt. eigenvalues --   -0.65351  -0.63511  -0.57917  -0.51058  -0.49387
 Alpha virt. eigenvalues --   -0.43380  -0.43234  -0.41595  -0.39788  -0.39732

 Mulliken charges:
               1
     1  C   -0.122442
     2  H    0.393420
     3  H    0.429719
     4  H    0.353379
     5  C    0.640633
     6  C    0.741344
     7  C    0.563948
 Sum of Mulliken charges =   3.00000

 Dipole moment (field-independent basis, Debye):
    X=             -6.0356    Y=              1.1930    Z=              0.0002  Tot=              6.1523
 Quadrupole moment (field-independent basis, Debye-Ang):
   XX=             45.4832   YY=            -12.3565   ZZ=            -16.9849
   XY=             -2.9892   XZ=             -0.0018   YZ=              0.0000

  Exact polarizability:  81.724  -0.040  23.609  -0.001   0.000  19.206
 Approx polarizability: 196.709   2.446  34.902  -0.005  -0.000  28.694

                      1                      2                      3
                      A                      A                      A
 Frequencies --    166.0172               177.0052               344.4233
 Red. masses --      4.8598                 4.5686                 1.6187
 Frc consts  --      0.0789                 0.0843                 0.1131
 IR Inten    --     31.3400                33.1569                36.8866

                      4                      5                      6
                      A                      A                      A
 Frequencies --    365.4333               387.5463               685.5976
 Red. masses --      2.9932                 2.0029                 5.4916
 Frc consts  --      0.2355                 0.1772                 1.5209
 IR Inten    --     31.4119                17.5634               192.1736

                      7                      8                      9
                      A                      A                      A
 Frequencies --    705.1616               894.3755              1091.8403
 Red. masses --      2.0742                 1.4986                 2.2432
 Frc consts  --      0.6077                 0.7063                 1.5755
 IR Inten    --    215.1664                95.8557              1073.1726

                     10                     11                     12
                      A                      A                      A
 Frequencies --   1289.0984              1433.7239              1482.5444
 Red. masses --      1.2039                 1.4283                 1.0487
 Frc consts  --      1.1787                 1.7298                 1.3580
 IR Inten    --     90.1395                60.2007               165.8131

                     13                     14                     15
                      A                      A                      A
 Frequencies --   1994.5899              2263.2304              2668.5944
 Red. masses --     10.2561                 1.0488                 1.0964
 Frc consts  --     24.0404                 3.1651                 4.6003
 IR Inten    --      0.3555               829.0997               572.5183

 - Thermochemistry -
 -------------------
 Temperature   298.150 Kelvin.  Pressure   1.00000 Atm.
 Atom     1 has atomic number  6 and mass  12.00000

 Molecular mass:    51.02348 amu.
 Principal axes and moments of inertia in atomic units:
                           1         2         3
     Eigenvalues --    10.26615 478.77764 489.04380
           X            0.99995  -0.00965   0.00003
           Y            0.00965   0.99995   0.00001
           Z           -0.00003  -0.00001   1.00000
 This molecule is an asymmetric top.
 Rotational symmetry number  1.
 Rotational temperatures (Kelvin)      8.43683     0.18091     0.17711
 Rotational constants (GHZ):         175.79525     3.76948     3.69035
 Zero-point vibrational energy      95397.3 (Joules/Mol)
                                   22.80050 (Kcal/Mol)
 Warning -- explicit consideration of   5 degrees of freedom as
           vibrations may cause significant error
 Vibrational temperatures:    238.86   254.67   495.55   525.78   557.59
          (Kelvin)            986.42  1014.57  1286.81  1570.91  1854.72
                             2062.81  2133.05  2869.77  3256.28  3839.51

 Zero-point correction=                           0.036335 (Hartree/Particle)
 Thermal correction to Energy=                    0.041749
 Thermal correction to Enthalpy=                  0.042693
 Thermal correction to Gibbs Free Energy=         0.009841
 Sum of electronic and zero-point Energies=           -152.150259
 Sum of electronic and thermal Energies=              -152.144845
 Sum of electronic and thermal Enthalpies=            -152.143901
 Sum of electronic and thermal Free Energies=         -152.176753

                     E (Thermal)             CV                S
                      KCal/Mol        Cal/Mol-Kelvin    Cal/Mol-Kelvin
 Total                   26.198             17.159             69.143
 Electronic               0.000              0.000              0.000
 Translational            0.889              2.981             37.712
 Rotational               0.889              2.981             22.401
 Vibrational             24.421             11.198              9.030
 Vibration     1          0.624              1.884              2.480
 Vibration     2          0.628              1.871              2.360
 Vibration     3          0.723              1.587              1.192
 Vibration     4          0.739              1.543              1.099
 Vibration     5          0.756              1.497              1.010

 Optimization completed.
    -- Stationary point found.
 Normal termination of Gaussian 09 at Tue Jul 19 12:52:37 2016.
