 Gaussian 09, Revision E.01,
 Gaussian 09:  EM64L-G09RevE.01 30-Nov-2015

 ---------------------------------------------
 #p b3lyp/6-311++G(3df,2p) freq symmetry=Loose
 ---------------------------------------------

 ---------
 b3lyp opt
 ---------
 Symbolic Z-matrix:
 Charge =  2 Multiplicity = 2

                         Standard orientation:
 ---------------------------------------------------------------------
 Center     Atomic      Atomic             Coordinates (Angstroms)
 Number     Number       Type             X           Y           Z
 ---------------------------------------------------------------------
      1          6           0        0.404054   -0.928147   -0.000000
      2          6           0       -0.135985   -0.113048    1.014645
      3          6           0       -0.000000    0.894034    0.000000
      4          1           0        0.251121    1.965692    0.000000
      5          6           0       -0.135985   -0.113048   -1.014645
      6          1           0       -0.521821   -0.202219   -2.038346
      7          1           0       -0.521821   -0.202219    2.038346
 ---------------------------------------------------------------------

 SCF Done:  E(UB3LYP) =  -153.189309238     A.U. after   13 cycles

 The electronic state is 2-A'.
 Alpha  occ. eigenvalues --  -10.83762 -10.81343 -10.81342 -10.80753  -1.52114
 Alpha  occ. eigenvalues --   -1.21766  -1.18525  -1.06797  -1.02002  -0.97448
 Alpha  occ. eigenvalues --   -0.95790  -0.92615  -0.83306
 Alpha virt. eigenvalues --   -0.63718  -0.60830  -0.52291  -0.35901  -0.34710
 Alpha virt. eigenvalues --   -0.33686  -0.32120  -0.30743  -0.28804  -0.27228
 Alpha virt. eigenvalues --   -0.27024  -0.24246  -0.23601  -0.23225  -0.21402

  Beta  occ. eigenvalues --  -10.81989 -10.81296 -10.81293 -10.80491  -1.51130
  Beta  occ. eigenvalues --   -1.21431  -1.16566  -1.06613  -0.99170  -0.96419
  Beta  occ. eigenvalues --   -0.95569  -0.91766
  Beta virt. eigenvalues --   -0.66729  -0.63884  -0.57888  -0.50480  -0.35332
  Beta virt. eigenvalues --   -0.34498  -0.33339  -0.31714  -0.30358  -0.28399
  Beta virt. eigenvalues --   -0.26799  -0.26735  -0.23564  -0.23071  -0.22491

 Mulliken charges and spin densities:
               1          2
     1  C    0.417453   0.936463
     2  C    0.182407  -0.041832
     3  C    0.150148   0.120628
     4  H    0.334563   0.019775
     5  C    0.182407  -0.041832
     6  H    0.366511   0.003399
     7  H    0.366511   0.003399
 Sum of Mulliken charges =   2.00000   1.00000

 Dipole moment (field-independent basis, Debye):
    X=             -0.5673    Y=              0.8093    Z=              0.0000  Tot=              0.9884
 Quadrupole moment (field-independent basis, Debye-Ang):
   XX=            -17.1716   YY=            -10.1086   ZZ=             -3.7195
   XY=              0.2622   XZ=             -0.0000   YZ=             -0.0000

  Exact polarizability:  19.681  -1.490  31.825  -0.000  -0.000  34.650
 Approx polarizability:  30.679  -5.600  58.535   0.000   0.000  58.810

                      1                      2                      3
                     A'                     A'                     A'
 Frequencies --    384.8800               597.5413               908.0424
 Red. masses --      2.3712                 2.4224                 1.5569
 Frc consts  --      0.2069                 0.5096                 0.7564
 IR Inten    --      6.9698                 7.4902                18.7416

                      4                      5                      6
                     A"                     A'                     A"
 Frequencies --    924.6064               985.4339               992.0418
 Red. masses --      1.5543                 1.8095                 3.3500
 Frc consts  --      0.7829                 1.0353                 1.9425
 IR Inten    --      4.8447                45.0700                 5.3008

                      7                      8                      9
                     A'                     A"                     A"
 Frequencies --   1020.7130              1029.6720              1127.3847
 Red. masses --      1.3974                 1.2031                 1.3140
 Frc consts  --      0.8578                 0.7515                 0.9840
 IR Inten    --      7.6281                 9.8910                 3.5131

                     10                     11                     12
                     A'                     A'                     A"
 Frequencies --   1280.4780              1342.1777              1358.2399
 Red. masses --      3.0909                 6.3491                 4.5719
 Frc consts  --      2.9859                 6.7388                 4.9694
 IR Inten    --    105.3340                 0.3729               141.2080

                     13                     14                     15
                     A'                     A"                     A'
 Frequencies --   3038.2573              3083.8410              3094.7541
 Red. masses --      1.0998                 1.1113                 1.1188
 Frc consts  --      5.9815                 6.2268                 6.3135
 IR Inten    --    255.7810               418.6515                33.2274

 - Thermochemistry -
 -------------------
 Temperature   298.150 Kelvin.  Pressure   1.00000 Atm.
 Atom     1 has atomic number  6 and mass  12.00000

 Molecular mass:    51.02348 amu.
 Principal axes and moments of inertia in atomic units:
                           1         2         3
     Eigenvalues --    97.02070 126.96579 206.33674
           X            0.00000  -0.15471   0.98796
           Y            0.00000   0.98796   0.15471
           Z            1.00000  -0.00000   0.00000
 This molecule is an asymmetric top.
 Rotational symmetry number  1.
 Rotational temperatures (Kelvin)      0.89274     0.68218     0.41977
 Rotational constants (GHZ):          18.60161    14.21439     8.74658
 Zero-point vibrational energy     126613.1 (Joules/Mol)
                                   30.26127 (Kcal/Mol)
 Warning -- explicit consideration of   2 degrees of freedom as
           vibrations may cause significant error
 Vibrational temperatures:    553.76   859.73  1306.47  1330.30  1417.82
          (Kelvin)           1427.33  1468.58  1481.47  1622.05  1842.32
                             1931.09  1954.20  4371.37  4436.95  4452.66

 Zero-point correction=                           0.048224 (Hartree/Particle)
 Thermal correction to Energy=                    0.051841
 Thermal correction to Enthalpy=                  0.052785
 Thermal correction to Gibbs Free Energy=         0.022483
 Sum of electronic and zero-point Energies=           -153.141085
 Sum of electronic and thermal Energies=              -153.137468
 Sum of electronic and thermal Enthalpies=            -153.136524
 Sum of electronic and thermal Free Energies=         -153.166827

                     E (Thermal)             CV                S
                      KCal/Mol        Cal/Mol-Kelvin    Cal/Mol-Kelvin
 Total                   32.531             11.604             63.777
 Electronic               0.000              0.000              1.377
 Translational            0.889              2.981             37.712
 Rotational               0.889              2.981             22.457
 Vibrational             30.753              5.643              2.230
 Vibration     1          0.754              1.502              1.020
 Vibration     2          0.955              1.037              0.454

 Optimization completed.
    -- Stationary point found.
 Normal termination of Gaussian 09 at Sun Jun 19 06:22:53 2016.
