 Gaussian 09, Revision E.01,
 Gaussian 09:  EM64L-G09RevE.01 30-Nov-2015

 ---------------------------------------------
 #p b3lyp/6-311++G(3df,2p) freq symmetry=Loose
 ---------------------------------------------

 ---------
 b3lyp opt
 ---------
 Symbolic Z-matrix:
 Charge =  0 Multiplicity = 4

                         Standard orientation:
 ---------------------------------------------------------------------
 Center     Atomic      Atomic             Coordinates (Angstroms)
 Number     Number       Type             X           Y           Z
 ---------------------------------------------------------------------
      1          6           0        0.144363   -0.001347    0.482863
      2          1           0        0.137816   -0.002879    1.574779
      3          6           0       -1.125426    0.644712   -0.202764
      4          6           0       -1.126074   -0.643508   -0.203295
      5          6           0        1.441561    0.000190   -0.187239
      6          1           0        1.928120    0.930196   -0.451107
      7          1           0        1.927524   -0.927603   -0.461064
 ---------------------------------------------------------------------

 SCF Done:  E(UB3LYP) =  -153.941564212     A.U. after   17 cycles

 The electronic state is 4-A.
 Alpha  occ. eigenvalues --  -10.24892 -10.24283 -10.24165 -10.19880  -0.90893
 Alpha  occ. eigenvalues --   -0.74463  -0.59611  -0.50227  -0.47275  -0.43589
 Alpha  occ. eigenvalues --   -0.43275  -0.34572  -0.29732  -0.25455  -0.23716
 Alpha virt. eigenvalues --   -0.01723  -0.00161   0.01274   0.02445   0.04061
 Alpha virt. eigenvalues --    0.05358   0.05902   0.07841   0.08142   0.08896
 Alpha virt. eigenvalues --    0.10208   0.11528   0.11861   0.12254   0.13224

  Beta  occ. eigenvalues --  -10.24215 -10.22771 -10.22670 -10.18518  -0.87940
  Beta  occ. eigenvalues --   -0.70667  -0.56703  -0.45644  -0.45569  -0.40081
  Beta  occ. eigenvalues --   -0.38386  -0.27953
  Beta virt. eigenvalues --   -0.18434  -0.12407  -0.08596   0.00144   0.00735
  Beta virt. eigenvalues --    0.01491   0.02606   0.04872   0.06153   0.06281
  Beta virt. eigenvalues --    0.08378   0.08852   0.10241   0.11751   0.11791

 Mulliken charges and spin densities:
               1          2
     1  C    0.095798   0.252556
     2  H    0.153521   0.019718
     3  C   -0.014361   0.827461
     4  C   -0.013203   0.826602
     5  C   -0.554970   1.082138
     6  H    0.166544  -0.004221
     7  H    0.166672  -0.004253
 Sum of Mulliken charges =  -0.00000   3.00000

 Dipole moment (field-independent basis, Debye):
    X=              1.2950    Y=             -0.0007    Z=              0.8549  Tot=              1.5517
 Quadrupole moment (field-independent basis, Debye-Ang):
   XX=            -24.9358   YY=            -24.3112   ZZ=            -24.6490
   XY=              0.0015   XZ=             -1.0748   YZ=              0.0065

  Exact polarizability:  56.908   0.016  45.509  -2.207  -0.053  53.212
 Approx polarizability:  74.644  -0.001  84.794   4.975  -0.015  57.733

                      1                      2                      3
                      A                      A                      A
 Frequencies --    293.2850               303.6481               347.2814
 Red. masses --      2.2927                 1.3743                 1.6567
 Frc consts  --      0.1162                 0.0747                 0.1177
 IR Inten    --      0.0528                 0.5388                20.2966

                      4                      5                      6
                      A                      A                      A
 Frequencies --    521.3213               590.3074               785.4667
 Red. masses --      2.6643                 6.7488                 1.1503
 Frc consts  --      0.4266                 1.3856                 0.4181
 IR Inten    --     20.2199                 3.8640                40.9877

                      7                      8                      9
                      A                      A                      A
 Frequencies --    791.6688              1014.9284              1106.9475
 Red. masses --      7.4233                 1.5255                 3.1352
 Frc consts  --      2.7411                 0.9259                 2.2634
 IR Inten    --     28.9820                23.2817                17.1921

                     10                     11                     12
                      A                      A                      A
 Frequencies --   1297.5985              1434.5529              1677.9249
 Red. masses --      1.2567                 1.1777                11.6274
 Frc consts  --      1.2467                 1.4280                19.2875
 IR Inten    --     42.0034                 7.4575               113.7166

                     13                     14                     15
                      A                      A                      A
 Frequencies --   3021.2534              3120.5731              3219.2345
 Red. masses --      1.0794                 1.0494                 1.1175
 Frc consts  --      5.8053                 6.0206                 6.8235
 IR Inten    --      3.5716                 3.2352                 1.1774

 - Thermochemistry -
 -------------------
 Temperature   298.150 Kelvin.  Pressure   1.00000 Atm.
 Atom     1 has atomic number  6 and mass  12.00000

 Molecular mass:    51.02348 amu.
 Principal axes and moments of inertia in atomic units:
                           1         2         3
     Eigenvalues --    67.04740 249.70129 266.19053
           X            0.99965   0.00012  -0.02652
           Y           -0.00010   1.00000   0.00073
           Z            0.02652  -0.00072   0.99965
 This molecule is an asymmetric top.
 Rotational symmetry number  1.
 Rotational temperatures (Kelvin)      1.29183     0.34687     0.32538
 Rotational constants (GHZ):          26.91739     7.22760     6.77988
 Zero-point vibrational energy     116791.4 (Joules/Mol)
                                   27.91381 (Kcal/Mol)
 Warning -- explicit consideration of   5 degrees of freedom as
           vibrations may cause significant error
 Vibrational temperatures:    421.97   436.88   499.66   750.06   849.32
          (Kelvin)           1130.11  1139.03  1460.25  1592.65  1866.95
                             2064.00  2414.16  4346.90  4489.80  4631.75

 Zero-point correction=                           0.044483 (Hartree/Particle)
 Thermal correction to Energy=                    0.049141
 Thermal correction to Enthalpy=                  0.050086
 Thermal correction to Gibbs Free Energy=         0.017199
 Sum of electronic and zero-point Energies=           -153.897081
 Sum of electronic and thermal Energies=              -153.892423
 Sum of electronic and thermal Enthalpies=            -153.891479
 Sum of electronic and thermal Free Energies=         -153.924366

                     E (Thermal)             CV                S
                      KCal/Mol        Cal/Mol-Kelvin    Cal/Mol-Kelvin
 Total                   30.837             15.409             69.217
 Electronic               0.000              0.000              2.755
 Translational            0.889              2.981             37.712
 Rotational               0.889              2.981             23.015
 Vibrational             29.059              9.447              5.735
 Vibration     1          0.688              1.686              1.455
 Vibration     2          0.695              1.667              1.397
 Vibration     3          0.725              1.581              1.178
 Vibration     4          0.876              1.203              0.607
 Vibration     5          0.948              1.052              0.467

 Normal termination of Gaussian 09 at Sun Jun 19 06:04:52 2016.
