 Gaussian 09, Revision E.01,
 Gaussian 09:  EM64L-G09RevE.01 30-Nov-2015

 ---------------------------------------------
 #p b3lyp/6-311++G(3df,2p) freq symmetry=Loose
 ---------------------------------------------

 ---------
 b3lyp opt
 ---------
 Symbolic Z-matrix:
 Charge =  3 Multiplicity = 3

                         Standard orientation:
 ---------------------------------------------------------------------
 Center     Atomic      Atomic             Coordinates (Angstroms)
 Number     Number       Type             X           Y           Z
 ---------------------------------------------------------------------
      1          6           0        0.225149   -0.069706   -0.000690
      2          6           0        0.980542   -1.194947    0.000338
      3          6           0        0.996766    1.256939    0.000348
      4          6           0       -1.285792   -0.075786   -0.000560
      5          1           0       -1.801124   -1.056155    0.000894
      6          1           0       -1.850370    0.777265    0.664255
      7          1           0       -1.848495    0.779883   -0.661762
 ---------------------------------------------------------------------

 SCF Done:  E(UB3LYP) =  -152.052657938     A.U. after   24 cycles

 The electronic state is 3-A.
 Alpha  occ. eigenvalues --  -11.19591 -11.19071 -11.05328 -11.01269  -1.65219
 Alpha  occ. eigenvalues --   -1.49808  -1.44937  -1.28379  -1.19583  -1.18577
 Alpha  occ. eigenvalues --   -1.16372  -1.10804  -1.07529
 Alpha virt. eigenvalues --   -0.95678  -0.92873  -0.89178  -0.76514  -0.59886
 Alpha virt. eigenvalues --   -0.58789  -0.56489  -0.54148  -0.50026  -0.46973
 Alpha virt. eigenvalues --   -0.44099  -0.44069  -0.41729  -0.39121  -0.38680

  Beta  occ. eigenvalues --  -11.19088 -11.16809 -11.05259 -11.00335  -1.63508
  Beta  occ. eigenvalues --   -1.45733  -1.43800  -1.25462  -1.17138  -1.12940
  Beta  occ. eigenvalues --   -1.10970
  Beta virt. eigenvalues --   -0.97012  -0.94047  -0.92070  -0.90489  -0.88449
  Beta virt. eigenvalues --   -0.73318  -0.58182  -0.55916  -0.54376  -0.53218
  Beta virt. eigenvalues --   -0.49330  -0.45709  -0.43954  -0.43522  -0.40823

 Mulliken charges and spin densities:
               1          2
     1  C    1.074854   0.007216
     2  C    0.563458   1.175209
     3  C    0.643568  -0.016653
     4  C   -0.337189   0.538372
     5  H    0.333612  -0.002962
     6  H    0.361217   0.150103
     7  H    0.360479   0.148715
 Sum of Mulliken charges =   3.00000   2.00000

 Dipole moment (field-independent basis, Debye):
    X=             -1.2691    Y=              0.5468    Z=              0.0070  Tot=              1.3819
 Quadrupole moment (field-independent basis, Debye-Ang):
   XX=             10.3976   YY=             -0.6568   ZZ=            -16.2015
   XY=             -3.9510   XZ=             -0.0148   YZ=             -0.0010

  Exact polarizability:  45.819  -0.982  45.819  -0.004  -0.000  21.677
 Approx polarizability:  77.075  -7.771 118.890  -0.005  -0.008  32.109

                      1                      2                      3
                      A                      A                      A
 Frequencies --    189.4505               271.5837               359.6677
 Red. masses --      1.1344                 4.3666                 8.3645
 Frc consts  --      0.0240                 0.1898                 0.6375
 IR Inten    --     56.0696                 2.8007                15.7272

                      4                      5                      6
                      A                      A                      A
 Frequencies --    396.8445               501.0900               718.7221
 Red. masses --      4.8319                 1.0386                 6.6389
 Frc consts  --      0.4483                 0.1536                 2.0206
 IR Inten    --     43.6893                11.0800               142.9005

                      7                      8                      9
                      A                      A                      A
 Frequencies --    789.9625               799.4136               877.0196
 Red. masses --      2.0007                 1.4355                 2.2984
 Frc consts  --      0.7356                 0.5405                 1.0416
 IR Inten    --     90.0365                70.9988               145.2016

                     10                     11                     12
                      A                      A                      A
 Frequencies --    926.3500              1157.6922              1365.0427
 Red. masses --      1.1692                 8.0924                 1.1026
 Frc consts  --      0.5911                 6.3902                 1.2105
 IR Inten    --    126.3611                98.1288                39.1735

                     13                     14                     15
                      A                      A                      A
 Frequencies --   1793.2761              2272.4825              2938.0542
 Red. masses --      1.0317                 1.1115                 1.0927
 Frc consts  --      1.9547                 3.3818                 5.5576
 IR Inten    --    337.6252               696.3901               291.6164

 - Thermochemistry -
 -------------------
 Temperature   298.150 Kelvin.  Pressure   1.00000 Atm.
 Atom     1 has atomic number  6 and mass  12.00000

 Molecular mass:    51.02348 amu.
 Principal axes and moments of inertia in atomic units:
                           1         2         3
     Eigenvalues --   140.62205 194.42131 328.71505
           X            0.99768  -0.06807  -0.00015
           Y            0.06807   0.99768  -0.00001
           Z            0.00015   0.00000   1.00000
 This molecule is an asymmetric top.
 Rotational symmetry number  1.
 Rotational temperatures (Kelvin)      0.61593     0.44550     0.26349
 Rotational constants (GHZ):          12.83398     9.28263     5.49029
 Zero-point vibrational energy      91853.2 (Joules/Mol)
                                   21.95344 (Kcal/Mol)
 Warning -- explicit consideration of   5 degrees of freedom as
           vibrations may cause significant error
 Vibrational temperatures:    272.58   390.75   517.48   570.97   720.96
          (Kelvin)           1034.08  1136.58  1150.18  1261.83  1332.81
                             1665.66  1963.99  2580.12  3269.59  4227.20

 Zero-point correction=                           0.034985 (Hartree/Particle)
 Thermal correction to Energy=                    0.040141
 Thermal correction to Enthalpy=                  0.041086
 Thermal correction to Gibbs Free Energy=         0.007237
 Sum of electronic and zero-point Energies=           -152.017673
 Sum of electronic and thermal Energies=              -152.012516
 Sum of electronic and thermal Enthalpies=            -152.011572
 Sum of electronic and thermal Free Energies=         -152.045421

                     E (Thermal)             CV                S
                      KCal/Mol        Cal/Mol-Kelvin    Cal/Mol-Kelvin
 Total                   25.189             17.315             71.240
 Electronic               0.000              0.000              2.183
 Translational            0.889              2.981             37.712
 Rotational               0.889              2.981             23.712
 Vibrational             23.412             11.354              7.633
 Vibration     1          0.633              1.854              2.233
 Vibration     2          0.675              1.726              1.586
 Vibration     3          0.734              1.555              1.124
 Vibration     4          0.763              1.477              0.974
 Vibration     5          0.856              1.248              0.655

 Normal termination of Gaussian 09 at Sun Jun 19 06:52:41 2016.
