 Gaussian 09, Revision E.01,
 Gaussian 09:  EM64L-G09RevE.01 30-Nov-2015

 ---------------------------------------------
 #p b3lyp/6-311++G(3df,2p) freq symmetry=Loose
 ---------------------------------------------

 ---------
 b3lyp opt
 ---------
 Symbolic Z-matrix:
 Charge =  3 Multiplicity = 1

                         Standard orientation:
 ---------------------------------------------------------------------
 Center     Atomic      Atomic             Coordinates (Angstroms)
 Number     Number       Type             X           Y           Z
 ---------------------------------------------------------------------
      1          6           0        0.569285   -0.700974    0.000000
      2          1           0        1.723684   -0.764418    0.000000
      3          6           0       -0.064239   -2.160778    0.000000
      4          6           0       -0.000000    0.478944   -0.000000
      5          6           0       -0.537980    1.742153   -0.000000
      6          1           0       -1.659017    1.941884   -0.000000
      7          1           0        0.132940    2.666458   -0.000000
 ---------------------------------------------------------------------

 SCF Done:  E(RB3LYP) =  -152.253050333     A.U. after   13 cycles

 The electronic state is 1-A'.
 Alpha  occ. eigenvalues --  -11.19517 -11.07626 -11.03873 -11.02981  -1.60910
 Alpha  occ. eigenvalues --   -1.51989  -1.41201  -1.25482  -1.22945  -1.17321
 Alpha  occ. eigenvalues --   -1.11490  -1.09216
 Alpha virt. eigenvalues --   -0.94835  -0.89749  -0.87604  -0.84375  -0.67940
 Alpha virt. eigenvalues --   -0.59477  -0.54533  -0.51833  -0.48732  -0.47930
 Alpha virt. eigenvalues --   -0.46254  -0.43098  -0.42168  -0.41138  -0.40228

 Mulliken charges:
               1
     1  C    0.321056
     2  H    0.334813
     3  C    0.838196
     4  C    0.781481
     5  C   -0.062616
     6  H    0.387938
     7  H    0.399134
 Sum of Mulliken charges =   3.00000

 Dipole moment (field-independent basis, Debye):
    X=             -0.0213    Y=              0.7493    Z=             -0.0000  Tot=              0.7496
 Quadrupole moment (field-independent basis, Debye-Ang):
   XX=             -5.6477   YY=             27.9416   ZZ=            -17.0160
   XY=             -9.4679   XZ=              0.0000   YZ=             -0.0000

  Exact polarizability:  29.351  -9.523  69.573   0.001  -0.001  19.235
 Approx polarizability:  49.168 -23.490 152.044   0.000  -0.000  28.612

                      1                      2                      3
                     A'                     A"                     A"
 Frequencies --    212.2220               282.3720               422.0062
 Red. masses --      3.9148                 2.3420                 1.9152
 Frc consts  --      0.1039                 0.1100                 0.2010
 IR Inten    --      6.4050                33.1968                 3.9414

                      4                      5                      6
                     A'                     A'                     A"
 Frequencies --    452.9829               672.4505               796.1631
 Red. masses --      2.4992                 5.7399                 1.2248
 Frc consts  --      0.3021                 1.5292                 0.4574
 IR Inten    --     47.3105               326.4815                23.6570

                      7                      8                      9
                     A'                     A'                     A"
 Frequencies --    801.0737               941.4652              1035.3537
 Red. masses --      1.4397                 3.0137                 1.3947
 Frc consts  --      0.5443                 1.5739                 0.8808
 IR Inten    --      4.4382                44.9126                30.8629

                     10                     11                     12
                     A'                     A'                     A'
 Frequencies --   1060.8714              1190.8768              1654.9822
 Red. masses --      2.0634                 1.1010                 9.5079
 Frc consts  --      1.3682                 0.9200                15.3434
 IR Inten    --    283.9269               233.1833                57.2068

                     13                     14                     15
                     A'                     A'                     A'
 Frequencies --   2472.2402              2610.0485              2666.5465
 Red. masses --      1.0770                 1.0529                 1.1111
 Frc consts  --      3.8783                 4.2260                 4.6549
 IR Inten    --    863.3035               893.1760               490.7563

 - Thermochemistry -
 -------------------
 Temperature   298.150 Kelvin.  Pressure   1.00000 Atm.
 Atom     1 has atomic number  6 and mass  12.00000

 Molecular mass:    51.02348 amu.
 Principal axes and moments of inertia in atomic units:
                           1         2         3
     Eigenvalues --    35.07648 413.32250 448.39898
           X           -0.17849   0.98394   0.00000
           Y            0.98394   0.17849   0.00000
           Z           -0.00000  -0.00000   1.00000
 This molecule is an asymmetric top.
 Rotational symmetry number  1.
 Rotational temperatures (Kelvin)      2.46928     0.20956     0.19316
 Rotational constants (GHZ):          51.45161     4.36642     4.02486
 Zero-point vibrational energy     103307.4 (Joules/Mol)
                                   24.69107 (Kcal/Mol)
 Warning -- explicit consideration of   4 degrees of freedom as
           vibrations may cause significant error
 Vibrational temperatures:    305.34   406.27   607.17   651.74   967.51
          (Kelvin)           1145.50  1152.57  1354.56  1489.64  1526.36
                             1713.40  2381.15  3557.00  3755.27  3836.56

 Zero-point correction=                           0.039348 (Hartree/Particle)
 Thermal correction to Energy=                    0.044124
 Thermal correction to Enthalpy=                  0.045068
 Thermal correction to Gibbs Free Energy=         0.013045
 Sum of electronic and zero-point Energies=           -152.213703
 Sum of electronic and thermal Energies=              -152.208926
 Sum of electronic and thermal Enthalpies=            -152.207982
 Sum of electronic and thermal Free Energies=         -152.240005

                     E (Thermal)             CV                S
                      KCal/Mol        Cal/Mol-Kelvin    Cal/Mol-Kelvin
 Total                   27.688             15.815             67.397
 Electronic               0.000              0.000              0.000
 Translational            0.889              2.981             37.712
 Rotational               0.889              2.981             23.390
 Vibrational             25.911              9.853              6.295
 Vibration     1          0.643              1.822              2.024
 Vibration     2          0.681              1.706              1.519
 Vibration     3          0.784              1.422              0.885
 Vibration     4          0.812              1.354              0.787

 Optimization completed.
    -- Stationary point found.
 Normal termination of Gaussian 09 at Tue Jul 19 12:32:06 2016.
