 Gaussian 09, Revision E.01,
 Gaussian 09:  EM64L-G09RevE.01 30-Nov-2015

 ---------------------------------------------
 #p b3lyp/6-311++G(3df,2p) freq symmetry=Loose
 ---------------------------------------------

 ---------
 b3lyp opt
 ---------
 Symbolic Z-matrix:
 Charge =  1 Multiplicity = 1

                         Standard orientation:
 ---------------------------------------------------------------------
 Center     Atomic      Atomic             Coordinates (Angstroms)
 Number     Number       Type             X           Y           Z
 ---------------------------------------------------------------------
      1          6           0       -0.522821   -0.545337    0.220735
      2          1           0       -0.820738   -1.306384    0.944546
      3          6           0       -1.265210    0.482909   -0.222672
      4          6           0        0.866690   -0.683602   -0.421166
      5          6           0        0.776478    0.579091    0.170105
      6          1           0        0.407292    1.394211   -0.501977
      7          1           0        1.282627    0.913809    1.075425
 ---------------------------------------------------------------------

 SCF Done:  E(RB3LYP) =  -153.644452496     A.U. after   12 cycles

 The electronic state is 1-A.
 Alpha  occ. eigenvalues --  -10.54588 -10.53962 -10.52640 -10.50304  -1.20385
 Alpha  occ. eigenvalues --   -0.99501  -0.89934  -0.81419  -0.72880  -0.68845
 Alpha  occ. eigenvalues --   -0.65095  -0.58560  -0.53196
 Alpha virt. eigenvalues --   -0.37755  -0.37483  -0.30686  -0.23542  -0.16686
 Alpha virt. eigenvalues --   -0.15266  -0.12796  -0.11290  -0.10557  -0.08447
 Alpha virt. eigenvalues --   -0.07968  -0.07245  -0.06047  -0.04345  -0.03454

 Mulliken charges:
               1
     1  C    0.447874
     2  H    0.236737
     3  C   -0.260387
     4  C    0.095234
     5  C   -0.002662
     6  H    0.242676
     7  H    0.240528
 Sum of Mulliken charges =   1.00000

 Dipole moment (field-independent basis, Debye):
    X=              0.5958    Y=              0.8024    Z=              1.9990  Tot=              2.2350
 Quadrupole moment (field-independent basis, Debye-Ang):
   XX=            -18.2492   YY=            -18.3103   ZZ=            -19.3399
   XY=              4.8895   XZ=              0.1985   YZ=             -1.8534

  Exact polarizability:  47.922  -3.433  37.126  -0.299  -0.219  29.125
 Approx polarizability: 103.715 -16.371  67.394  -2.252  -0.781  46.848

                      1                      2                      3
                      A                      A                      A
 Frequencies --    173.2155               326.3268               404.4121
 Red. masses --      3.9264                 2.8292                 4.7885
 Frc consts  --      0.0694                 0.1775                 0.4614
 IR Inten    --     11.7376                 5.0697                 7.5571

                      4                      5                      6
                      A                      A                      A
 Frequencies --    683.9630               747.5442               776.9478
 Red. masses --      1.4232                 1.5589                 5.1130
 Frc consts  --      0.3923                 0.5133                 1.8185
 IR Inten    --     22.0966                33.4893                37.9188

                      7                      8                      9
                      A                      A                      A
 Frequencies --    925.1814               985.6496              1015.1672
 Red. masses --      1.1986                 1.2240                 1.2475
 Frc consts  --      0.6045                 0.7006                 0.7575
 IR Inten    --     41.8518                26.9858                 1.0293

                     10                     11                     12
                      A                      A                      A
 Frequencies --   1212.9961              1359.7702              1477.6339
 Red. masses --      2.0840                 1.6362                 6.6784
 Frc consts  --      1.8066                 1.7824                 8.5912
 IR Inten    --      3.2824                55.6243                98.8433

                     13                     14                     15
                      A                      A                      A
 Frequencies --   2814.0458              3101.7500              3127.1376
 Red. masses --      1.0680                 1.0937                 1.0952
 Frc consts  --      4.9830                 6.1994                 6.3101
 IR Inten    --    156.2098               153.6976                91.8116

 - Thermochemistry -
 -------------------
 Temperature   298.150 Kelvin.  Pressure   1.00000 Atm.
 Atom     1 has atomic number  6 and mass  12.00000

 Molecular mass:    51.02348 amu.
 Principal axes and moments of inertia in atomic units:
                           1         2         3
     Eigenvalues --    93.02069 169.55377 220.64426
           X            0.99108   0.13311   0.00707
           Y           -0.13244   0.98931  -0.06102
           Z           -0.01512   0.05954   0.99811
 This molecule is an asymmetric top.
 Rotational symmetry number  1.
 Rotational temperatures (Kelvin)      0.93112     0.51083     0.39255
 Rotational constants (GHZ):          19.40150    10.64406     8.17942
 Zero-point vibrational energy     114433.2 (Joules/Mol)
                                   27.35020 (Kcal/Mol)
 Warning -- explicit consideration of   3 degrees of freedom as
           vibrations may cause significant error
 Vibrational temperatures:    249.22   469.51   581.86   984.07  1075.55
          (Kelvin)           1117.85  1331.13  1418.13  1460.60  1745.23
                             1956.40  2125.98  4048.78  4462.72  4499.25

 Zero-point correction=                           0.043585 (Hartree/Particle)
 Thermal correction to Energy=                    0.048168
 Thermal correction to Enthalpy=                  0.049112
 Thermal correction to Gibbs Free Energy=         0.017610
 Sum of electronic and zero-point Energies=           -153.600867
 Sum of electronic and thermal Energies=              -153.596285
 Sum of electronic and thermal Enthalpies=            -153.595341
 Sum of electronic and thermal Free Energies=         -153.626842

                     E (Thermal)             CV                S
                      KCal/Mol        Cal/Mol-Kelvin    Cal/Mol-Kelvin
 Total                   30.226             14.831             66.300
 Electronic               0.000              0.000              0.000
 Translational            0.889              2.981             37.712
 Rotational               0.889              2.981             22.769
 Vibrational             28.448              8.870              5.819
 Vibration     1          0.627              1.875              2.400
 Vibration     2          0.710              1.623              1.278
 Vibration     3          0.770              1.461              0.947

 Optimization completed.
    -- Stationary point found.
 Normal termination of Gaussian 09 at Sun Jun 19 06:03:28 2016.
