 Gaussian 09, Revision E.01,
 Gaussian 09:  EM64L-G09RevE.01 30-Nov-2015

 ---------------------------------------------
 #p b3lyp/6-311++G(3df,2p) freq symmetry=Loose
 ---------------------------------------------

 ---------
 b3lyp opt
 ---------
 Symbolic Z-matrix:
 Charge =  0 Multiplicity = 2

                         Standard orientation:
 ---------------------------------------------------------------------
 Center     Atomic      Atomic             Coordinates (Angstroms)
 Number     Number       Type             X           Y           Z
 ---------------------------------------------------------------------
      1          6           0       -0.000000   -0.000000   -1.864977
      2          1           0        0.000000   -0.922756   -2.440596
      3          1           0        0.000000    0.922756   -2.440596
      4          6           0        0.000000   -0.000000   -0.562301
      5          6           0       -0.000000    0.000000    0.752315
      6          6           0       -0.000000    0.000000    1.981347
      7          1           0       -0.000000    0.000000    3.042809
 ---------------------------------------------------------------------

 SCF Done:  E(UB3LYP) =  -154.129494968     A.U. after   15 cycles

 The electronic state is 2-B2.
 Alpha  occ. eigenvalues --  -10.21396 -10.20137 -10.19881 -10.19646  -0.82062
 Alpha  occ. eigenvalues --   -0.76113  -0.66123  -0.54136  -0.49847  -0.46620
 Alpha  occ. eigenvalues --   -0.36551  -0.34943  -0.26579  -0.20862
 Alpha virt. eigenvalues --   -0.06074  -0.00366   0.00682   0.02593   0.04318
 Alpha virt. eigenvalues --    0.04610   0.06172   0.06250   0.08121   0.09572
 Alpha virt. eigenvalues --    0.10503   0.11436   0.12627   0.13676   0.14088

  Beta  occ. eigenvalues --  -10.20376 -10.20268 -10.19853 -10.19222  -0.80674
  Beta  occ. eigenvalues --   -0.75169  -0.64695  -0.53327  -0.49157  -0.45110
  Beta  occ. eigenvalues --   -0.36098  -0.32129  -0.26249
  Beta virt. eigenvalues --   -0.09626  -0.05591  -0.00307   0.00769   0.02803
  Beta virt. eigenvalues --    0.04375   0.05153   0.06160   0.06299   0.08222
  Beta virt. eigenvalues --    0.10632   0.11480   0.11537   0.13443   0.13725

 Mulliken charges and spin densities:
               1          2
     1  C   -0.557077  -0.129825
     2  H    0.173707   0.052598
     3  H    0.173707   0.052598
     4  C    0.204988   0.632719
     5  C   -0.608834  -0.149977
     6  C    0.295863   0.559998
     7  H    0.317647  -0.018110
 Sum of Mulliken charges =  -0.00000   1.00000

 Dipole moment (field-independent basis, Debye):
    X=              0.0000    Y=             -0.0000    Z=             -0.0983  Tot=              0.0983
 Quadrupole moment (field-independent basis, Debye-Ang):
   XX=            -25.9447   YY=            -24.1690   ZZ=            -15.9877
   XY=              0.0000   XZ=             -0.0000   YZ=              0.0000

  Exact polarizability:  31.615   0.000  33.388   0.000  -0.000 102.543
 Approx polarizability:  42.805   0.000  45.235   0.000   0.000 189.016

                      1                      2                      3
                     B2                     B1                     B2
 Frequencies --     95.2579               228.7721               305.1112
 Red. masses --      3.2224                 3.8820                 1.4123
 Frc consts  --      0.0172                 0.1197                 0.0775
 IR Inten    --      5.2393                 7.1559                51.0461

                      4                      5                      6
                     B2                     B1                     B1
 Frequencies --    385.9510               550.8023               639.6759
 Red. masses --      3.8708                 7.8843                 1.2521
 Frc consts  --      0.3397                 1.4093                 0.3019
 IR Inten    --      5.1594                 0.1182                40.9976

                      7                      8                      9
                     B1                     A1                     B2
 Frequencies --    893.5262               901.8901               979.0367
 Red. masses --      1.3290                 4.8760                 1.3469
 Frc consts  --      0.6251                 2.3368                 0.7607
 IR Inten    --     46.8122                 0.0232                 0.1192

                     10                     11                     12
                     A1                     A1                     A1
 Frequencies --   1438.0863              1797.3035              2012.8183
 Red. masses --      1.1252                 7.7601                 8.5485
 Frc consts  --      1.3710                14.7694                20.4056
 IR Inten    --      0.6117                16.6107                 0.7096

                     13                     14                     15
                     A1                     B2                     A1
 Frequencies --   3064.5571              3123.4872              3453.9996
 Red. masses --      1.0532                 1.1133                 1.1317
 Frc consts  --      5.8277                 6.3997                 7.9544
 IR Inten    --      6.4024                 3.1581                95.6407

 - Thermochemistry -
 -------------------
 Temperature   298.150 Kelvin.  Pressure   1.00000 Atm.
 Atom     1 has atomic number  6 and mass  12.00000

 Molecular mass:    51.02348 amu.
 Principal axes and moments of inertia in atomic units:
                           1         2         3
     Eigenvalues --     6.12896 431.04402 437.17298
           X            0.00000   0.00000   1.00000
           Y            0.00000   1.00000  -0.00000
           Z            1.00000   0.00000   0.00000
 This molecule is an asymmetric top.
 Rotational symmetry number  2.
 Rotational temperatures (Kelvin)     14.13190     0.20094     0.19812
 Rotational constants (GHZ):         294.46127     4.18691     4.12821
 Zero-point vibrational energy     118850.6 (Joules/Mol)
                                   28.40598 (Kcal/Mol)
 Warning -- explicit consideration of   5 degrees of freedom as
           vibrations may cause significant error
 Vibrational temperatures:    137.05   329.15   438.99   555.30   792.48
          (Kelvin)            920.35  1285.58  1297.62  1408.61  2069.08
                             2585.92  2895.99  4409.21  4494.00  4969.53

 Zero-point correction=                           0.045268 (Hartree/Particle)
 Thermal correction to Energy=                    0.050584
 Thermal correction to Enthalpy=                  0.051528
 Thermal correction to Gibbs Free Energy=         0.018953
 Sum of electronic and zero-point Energies=           -154.084227
 Sum of electronic and thermal Energies=              -154.078911
 Sum of electronic and thermal Enthalpies=            -154.077967
 Sum of electronic and thermal Free Energies=         -154.110542

                     E (Thermal)             CV                S
                      KCal/Mol        Cal/Mol-Kelvin    Cal/Mol-Kelvin
 Total                   31.742             16.500             68.560
 Electronic               0.000              0.000              1.377
 Translational            0.889              2.981             37.712
 Rotational               0.889              2.981             20.296
 Vibrational             29.964             10.538              9.174
 Vibration     1          0.603              1.953              3.549
 Vibration     2          0.651              1.797              1.889
 Vibration     3          0.696              1.664              1.389
 Vibration     4          0.755              1.500              1.016
 Vibration     5          0.906              1.138              0.543

 Optimization completed.
    -- Stationary point found.
 Normal termination of Gaussian 09 at Sun Jun 19 05:49:18 2016.
