 Gaussian 09, Revision E.01,
 Gaussian 09:  EM64L-G09RevE.01 30-Nov-2015

 ------------------------------------------------------
 #p b3lyp/6-311++G(3df,2p) freq IOp(2/17=3) IOp(2/18=3)
 ------------------------------------------------------

 ---------
 b3lyp opt
 ---------
 Symbolic Z-matrix:
 Charge =  3 Multiplicity = 3

                         Standard orientation:
 ---------------------------------------------------------------------
 Center     Atomic      Atomic             Coordinates (Angstroms)
 Number     Number       Type             X           Y           Z
 ---------------------------------------------------------------------
      1          6           0        0.000000    0.848443    0.000000
      2          1           0        0.442434    1.410343    0.933375
      3          1           0        0.442434    1.410343   -0.933375
      4          6           0       -1.382664    1.460342    0.000000
      5          6           0        0.332910   -0.523229    0.000000
      6          6           0        0.725059   -1.779013    0.000000
      7          1           0        1.063097   -2.859969    0.000000
 ---------------------------------------------------------------------

 SCF Done:  E(UB3LYP) =  -152.201981302     A.U. after   20 cycles

 The electronic state is 3-A".
 Alpha  occ. eigenvalues --  -11.17628 -11.09540 -11.09438 -11.00314  -1.63274
 Alpha  occ. eigenvalues --   -1.56360  -1.40296  -1.27255  -1.23531  -1.21521
 Alpha  occ. eigenvalues --   -1.13033  -1.10017  -1.07626
 Alpha virt. eigenvalues --   -0.88991  -0.88050  -0.79906  -0.79267  -0.62158
 Alpha virt. eigenvalues --   -0.56707  -0.53437  -0.53410  -0.47854  -0.45558
 Alpha virt. eigenvalues --   -0.44117  -0.43609  -0.42654  -0.38951  -0.38430

  Beta  occ. eigenvalues --  -11.17097 -11.08227 -11.07931 -11.00283  -1.59926
  Beta  occ. eigenvalues --   -1.51915  -1.38510  -1.25436  -1.22463  -1.19321
  Beta  occ. eigenvalues --   -1.07369
  Beta virt. eigenvalues --   -0.96453  -0.96076  -0.88104  -0.86463  -0.74047
  Beta virt. eigenvalues --   -0.72289  -0.58975  -0.55919  -0.52380  -0.52155
  Beta virt. eigenvalues --   -0.47132  -0.44710  -0.43281  -0.42877  -0.41915

 Mulliken charges and spin densities:
               1          2
     1  C   -0.201224  -0.097354
     2  H    0.400960   0.048669
     3  H    0.400960   0.048669
     4  C    0.661697   0.271695
     5  C    0.475067   0.894836
     6  C    0.733159   0.858822
     7  H    0.529380  -0.025337
 Sum of Mulliken charges =   3.00000   2.00000

 Dipole moment (field-independent basis, Debye):
    X=              0.7967    Y=             -0.8978    Z=              0.0000  Tot=              1.2003
 Quadrupole moment (field-independent basis, Debye-Ang):
   XX=             -5.5606   YY=             23.4379   ZZ=            -13.7577
   XY=            -15.2847   XZ=              0.0000   YZ=              0.0000

  Exact polarizability:  40.799 -26.536  72.328  -0.000   0.000  22.187
 Approx polarizability:  86.282 -62.599 135.300   0.000   0.000  34.013

                      1                      2                      3
                     A'                     A"                     A'
 Frequencies --    227.6690               305.4188               473.0442
 Red. masses --      4.9031                 2.4188                 5.0580
 Frc consts  --      0.1497                 0.1329                 0.6669
 IR Inten    --     10.3479                31.6127                18.0207

                      4                      5                      6
                     A"                     A'                     A"
 Frequencies --    597.5691               672.2224               695.1197
 Red. masses --      1.8829                 3.3362                 1.3328
 Frc consts  --      0.3961                 0.8882                 0.3794
 IR Inten    --      8.4480                37.9291                25.0908

                      7                      8                      9
                     A'                     A'                     A"
 Frequencies --    704.6284               865.8488               950.7066
 Red. masses --      1.3409                 2.3932                 1.1349
 Frc consts  --      0.3923                 1.0571                 0.6044
 IR Inten    --     17.2974                35.6048                 1.9979

                     10                     11                     12
                     A'                     A'                     A'
 Frequencies --   1028.0281              1179.4368              1752.2338
 Red. masses --      1.3015                 1.7744                 6.1340
 Frc consts  --      0.8104                 1.4543                11.0963
 IR Inten    --    281.2510               412.7600               370.4305

                     13                     14                     15
                     A"                     A'                     A'
 Frequencies --   2305.0793              2324.5291              2788.7718
 Red. masses --      1.0895                 1.0535                 1.1693
 Frc consts  --      3.4107                 3.3540                 5.3581
 IR Inten    --    537.0909               731.7410               719.1455

 - Thermochemistry -
 -------------------
 Temperature   298.150 Kelvin.  Pressure   1.00000 Atm.
 Atom     1 has atomic number  6 and mass  12.00000

 Molecular mass:    51.02348 amu.
 Principal axes and moments of inertia in atomic units:
                           1         2         3
     Eigenvalues --    35.38344 404.92162 427.76337
           X           -0.48046   0.87702   0.00000
           Y            0.87702   0.48046   0.00000
           Z           -0.00000   0.00000   1.00000
 This molecule is an asymmetric top.
 Rotational symmetry number  1.
 Rotational temperatures (Kelvin)      2.44786     0.21390     0.20248
 Rotational constants (GHZ):          51.00526     4.45701     4.21902
 Zero-point vibrational energy     100906.8 (Joules/Mol)
                                   24.11731 (Kcal/Mol)
 Warning -- explicit consideration of   4 degrees of freedom as
           vibrations may cause significant error
 Vibrational temperatures:    327.56   439.43   680.60   859.77   967.18
          (Kelvin)           1000.12  1013.80  1245.76  1367.85  1479.10
                             1696.94  2521.07  3316.49  3344.47  4012.42

 Zero-point correction=                           0.038433 (Hartree/Particle)
 Thermal correction to Energy=                    0.043113
 Thermal correction to Enthalpy=                  0.044057
 Thermal correction to Gibbs Free Energy=         0.011247
 Sum of electronic and zero-point Energies=           -152.163548
 Sum of electronic and thermal Energies=              -152.158868
 Sum of electronic and thermal Enthalpies=            -152.157924
 Sum of electronic and thermal Free Energies=         -152.190734

                     E (Thermal)             CV                S
                      KCal/Mol        Cal/Mol-Kelvin    Cal/Mol-Kelvin
 Total                   27.054             15.900             69.055
 Electronic               0.000              0.000              2.183
 Translational            0.889              2.981             37.712
 Rotational               0.889              2.981             23.331
 Vibrational             25.276              9.938              5.828
 Vibration     1          0.651              1.799              1.897
 Vibration     2          0.696              1.663              1.387
 Vibration     3          0.830              1.310              0.729
 Vibration     4          0.955              1.037              0.454

 Optimization completed.
    -- Stationary point found.
 Normal termination of Gaussian 09 at Thu Jan 31 05:31:24 2019.
