 Gaussian 09, Revision E.01,
 Gaussian 09:  EM64L-G09RevE.01 30-Nov-2015

 ---------------------------------------------
 #p b3lyp/6-311++G(3df,2p) freq symmetry=Loose
 ---------------------------------------------

 ---------
 b3lyp opt
 ---------
 Symbolic Z-matrix:
 Charge =  1 Multiplicity = 3

                         Standard orientation:
 ---------------------------------------------------------------------
 Center     Atomic      Atomic             Coordinates (Angstroms)
 Number     Number       Type             X           Y           Z
 ---------------------------------------------------------------------
      1          6           0       -0.768708    1.344456    0.000000
      2          1           0       -1.849364    1.290828    0.000000
      3          1           0       -0.276867    2.309532    0.000000
      4          6           0        0.000000    0.184660    0.000000
      5          6           0        0.040382   -1.239381    0.000000
      6          1           0       -0.540011   -2.151373    0.000000
      7          6           0        1.172699   -0.531233    0.000000
 ---------------------------------------------------------------------

 SCF Done:  E(UB3LYP) =  -153.761606960     A.U. after   14 cycles

 The electronic state is 3-A".
 Alpha  occ. eigenvalues --  -10.51670 -10.51414 -10.50874 -10.46491  -1.21693
 Alpha  occ. eigenvalues --   -1.01332  -0.85040  -0.78327  -0.73375  -0.68498
 Alpha  occ. eigenvalues --   -0.67573  -0.64290  -0.53838  -0.51412
 Alpha virt. eigenvalues --   -0.28879  -0.23733  -0.15792  -0.14417  -0.13207
 Alpha virt. eigenvalues --   -0.11472  -0.10211  -0.09950  -0.08455  -0.06586
 Alpha virt. eigenvalues --   -0.05931  -0.05040  -0.03973  -0.03769  -0.03103

  Beta  occ. eigenvalues --  -10.51113 -10.50427 -10.50008 -10.45399  -1.20046
  Beta  occ. eigenvalues --   -0.97981  -0.83700  -0.75941  -0.71024  -0.65621
  Beta  occ. eigenvalues --   -0.64781  -0.62184
  Beta virt. eigenvalues --   -0.39203  -0.39167  -0.25905  -0.19484  -0.15314
  Beta virt. eigenvalues --   -0.14037  -0.12488  -0.11030  -0.09560  -0.09507
  Beta virt. eigenvalues --   -0.07878  -0.05684  -0.05181  -0.04302  -0.03421

 Mulliken charges and spin densities:
               1          2
     1  C   -0.430863   0.726695
     2  H    0.244055  -0.014347
     3  H    0.238232  -0.002716
     4  C    0.321794   0.089024
     5  C    0.183820   0.228736
     6  H    0.316988   0.000833
     7  C    0.125974   0.971774
 Sum of Mulliken charges =   1.00000   2.00000

 Dipole moment (field-independent basis, Debye):
    X=             -1.3498    Y=             -0.3635    Z=              0.0000  Tot=              1.3979
 Quadrupole moment (field-independent basis, Debye-Ang):
   XX=            -16.8802   YY=             -8.9034   ZZ=            -21.3541
   XY=             -1.6026   XZ=              0.0000   YZ=              0.0000

  Exact polarizability:  39.177  -7.976  48.181   0.000  -0.000  23.017
 Approx polarizability:  64.207 -10.266  70.857  -0.000  -0.000  33.449

                      1                      2                      3
                     A'                     A"                     A"
 Frequencies --    356.5852               401.8467               430.2706
 Red. masses --      2.5897                 1.1508                 3.7561
 Frc consts  --      0.1940                 0.1095                 0.4097
 IR Inten    --      6.7832                 1.4040                 5.6948

                      4                      5                      6
                     A'                     A"                     A"
 Frequencies --    838.2125               850.8260               888.1508
 Red. masses --      2.3112                 1.3037                 1.4395
 Frc consts  --      0.9567                 0.5560                 0.6690
 IR Inten    --      0.6212                 0.7948                47.5155

                      7                      8                      9
                     A'                     A'                     A'
 Frequencies --    942.5595              1013.4346              1147.8950
 Red. masses --      1.9381                 1.6154                 3.5646
 Frc consts  --      1.0145                 0.9775                 2.7673
 IR Inten    --     26.2562                27.5311                41.5519

                     10                     11                     12
                     A'                     A'                     A'
 Frequencies --   1439.2471              1473.3566              1701.5177
 Red. masses --      1.5380                 2.8225                 9.0595
 Frc consts  --      1.8770                 3.6099                15.4535
 IR Inten    --      4.7994                71.4246                21.0324

                     13                     14                     15
                     A'                     A'                     A'
 Frequencies --   3134.3856              3239.4446              3249.9106
 Red. masses --      1.0506                 1.1166                 1.1220
 Frc consts  --      6.0812                 6.9036                 6.9824
 IR Inten    --     44.1744                93.3493                17.7644

 - Thermochemistry -
 -------------------
 Temperature   298.150 Kelvin.  Pressure   1.00000 Atm.
 Atom     1 has atomic number  6 and mass  12.00000

 Molecular mass:    51.02348 amu.
 Principal axes and moments of inertia in atomic units:
                           1         2         3
     Eigenvalues --    53.74025 242.27381 296.01406
           X           -0.48160   0.87639   0.00000
           Y            0.87639   0.48160   0.00000
           Z           -0.00000   0.00000   1.00000
 This molecule is an asymmetric top.
 Rotational symmetry number  1.
 Rotational temperatures (Kelvin)      1.61171     0.35750     0.29260
 Rotational constants (GHZ):          33.58267     7.44918     6.09681
 Zero-point vibrational energy     126251.7 (Joules/Mol)
                                   30.17489 (Kcal/Mol)
 Warning -- explicit consideration of   3 degrees of freedom as
           vibrations may cause significant error
 Vibrational temperatures:    513.05   578.17   619.06  1206.00  1224.15
          (Kelvin)           1277.85  1356.13  1458.10  1651.56  2070.75
                             2119.83  2448.10  4509.68  4660.83  4675.89

 Zero-point correction=                           0.048087 (Hartree/Particle)
 Thermal correction to Energy=                    0.052167
 Thermal correction to Enthalpy=                  0.053111
 Thermal correction to Gibbs Free Energy=         0.021514
 Sum of electronic and zero-point Energies=           -153.713520
 Sum of electronic and thermal Energies=              -153.709440
 Sum of electronic and thermal Enthalpies=            -153.708496
 Sum of electronic and thermal Free Energies=         -153.740093

                     E (Thermal)             CV                S
                      KCal/Mol        Cal/Mol-Kelvin    Cal/Mol-Kelvin
 Total                   32.735             13.331             66.502
 Electronic               0.000              0.000              2.183
 Translational            0.889              2.981             37.712
 Rotational               0.889              2.981             22.871
 Vibrational             30.958              7.369              3.736
 Vibration     1          0.732              1.562              1.137
 Vibration     2          0.767              1.466              0.956
 Vibration     3          0.791              1.404              0.858

 Optimization completed.
    -- Stationary point found.
 Normal termination of Gaussian 09 at Sun Jun 19 06:16:43 2016.
