 Gaussian 09, Revision E.01,
 Gaussian 09:  EM64L-G09RevE.01 30-Nov-2015

 ---------------------------------------------
 #p b3lyp/6-311++G(3df,2p) freq symmetry=Loose
 ---------------------------------------------

 ---------
 b3lyp opt
 ---------
 Symbolic Z-matrix:
 Charge =  2 Multiplicity = 2

                         Standard orientation:
 ---------------------------------------------------------------------
 Center     Atomic      Atomic             Coordinates (Angstroms)
 Number     Number       Type             X           Y           Z
 ---------------------------------------------------------------------
      1          6           0       -0.758660    0.342575    0.000020
      2          1           0       -1.140055    0.929537    0.917403
      3          1           0       -1.140029    0.929699   -0.917272
      4          6           0       -1.861107   -0.530240   -0.000073
      5          6           0        0.641240    0.071300    0.000015
      6          6           0        1.868052   -0.139635    0.000014
      7          1           0        2.942934   -0.323233    0.000013
 ---------------------------------------------------------------------

 SCF Done:  E(UB3LYP) =  -153.084325636     A.U. after   23 cycles

 The electronic state is 2-A.
 Alpha  occ. eigenvalues --  -10.87358 -10.76583 -10.75973 -10.75063  -1.37849
 Alpha  occ. eigenvalues --   -1.30090  -1.14032  -1.01658  -0.99284  -0.98500
 Alpha  occ. eigenvalues --   -0.86325  -0.81809  -0.80842
 Alpha virt. eigenvalues --   -0.63433  -0.61457  -0.51156  -0.48377  -0.37051
 Alpha virt. eigenvalues --   -0.33132  -0.32116  -0.30529  -0.28414  -0.26468
 Alpha virt. eigenvalues --   -0.25476  -0.23863  -0.21066  -0.20142  -0.19853

  Beta  occ. eigenvalues --  -10.87189 -10.75844 -10.75224 -10.75094  -1.37040
  Beta  occ. eigenvalues --   -1.26785  -1.13054  -1.00868  -0.98755  -0.98300
  Beta  occ. eigenvalues --   -0.83142  -0.79806
  Beta virt. eigenvalues --   -0.70110  -0.63046  -0.61310  -0.47629  -0.46023
  Beta virt. eigenvalues --   -0.36436  -0.31976  -0.31861  -0.29898  -0.28172
  Beta virt. eigenvalues --   -0.25975  -0.25356  -0.23493  -0.20915  -0.20016

 Mulliken charges and spin densities:
               1          2
     1  C   -0.226202  -0.080300
     2  H    0.348789   0.016254
     3  H    0.348789   0.016254
     4  C    0.210238   0.099045
     5  C    0.252416   0.540384
     6  C    0.613738   0.421379
     7  H    0.452232  -0.013016
 Sum of Mulliken charges =   2.00000   1.00000

 Dipole moment (field-independent basis, Debye):
    X=              0.3593    Y=              0.8014    Z=              0.0001  Tot=              0.8783
 Quadrupole moment (field-independent basis, Debye-Ang):
   XX=             10.5060   YY=            -15.3392   ZZ=            -17.2824
   XY=             -3.1901   XZ=              0.0001   YZ=              0.0001

  Exact polarizability:  68.318   1.162  26.454  -0.001   0.000  25.090
 Approx polarizability: 116.999   7.105  44.985   0.002   0.001  37.247

                      1                      2                      3
                      A                      A                      A
 Frequencies --    208.9208               268.3899               404.3805
 Red. masses --      5.1977                 2.3087                 2.0904
 Frc consts  --      0.1337                 0.0980                 0.2014
 IR Inten    --      7.2416                28.4615                 0.0003

                      4                      5                      6
                      A                      A                      A
 Frequencies --    430.3893               740.5369               749.6351
 Red. masses --      3.6466                 1.2490                 2.1669
 Frc consts  --      0.3980                 0.4035                 0.7174
 IR Inten    --     10.4624                39.8982                14.0462

                      7                      8                      9
                      A                      A                      A
 Frequencies --    780.5483               927.8196               948.5686
 Red. masses --      1.6049                 1.7169                 1.1801
 Frc consts  --      0.5761                 0.8708                 0.6256
 IR Inten    --      4.4709                 5.6980                 2.5461

                     10                     11                     12
                      A                      A                      A
 Frequencies --   1198.0989              1380.7802              2049.0513
 Red. masses --      1.2077                 4.3471                 5.9194
 Frc consts  --      1.0214                 4.8831                14.6431
 IR Inten    --    124.5681               328.4456                87.3467

                     13                     14                     15
                      A                      A                      A
 Frequencies --   2554.0585              2555.4977              3195.3115
 Red. masses --      1.0865                 1.0554                 1.1691
 Frc consts  --      4.1759                 4.0609                 7.0328
 IR Inten    --    297.0621               297.8347               349.4629

 - Thermochemistry -
 -------------------
 Temperature   298.150 Kelvin.  Pressure   1.00000 Atm.
 Atom     1 has atomic number  6 and mass  12.00000

 Molecular mass:    51.02348 amu.
 Principal axes and moments of inertia in atomic units:
                           1         2         3
     Eigenvalues --    30.29406 387.13545 405.31514
           X            0.99954  -0.03031  -0.00001
           Y            0.03031   0.99954  -0.00009
           Z            0.00002   0.00009   1.00000
 This molecule is an asymmetric top.
 Rotational symmetry number  1.
 Rotational temperatures (Kelvin)      2.85910     0.22373     0.21369
 Rotational constants (GHZ):          59.57409     4.66178     4.45269
 Zero-point vibrational energy     110008.5 (Joules/Mol)
                                   26.29267 (Kcal/Mol)
 Warning -- explicit consideration of   4 degrees of freedom as
           vibrations may cause significant error
 Vibrational temperatures:    300.59   386.15   581.81   619.23  1065.47
          (Kelvin)           1078.56  1123.03  1334.92  1364.78  1723.79
                             1986.63  2948.12  3674.72  3676.79  4597.33

 Zero-point correction=                           0.041900 (Hartree/Particle)
 Thermal correction to Energy=                    0.046722
 Thermal correction to Enthalpy=                  0.047666
 Thermal correction to Gibbs Free Energy=         0.015037
 Sum of electronic and zero-point Energies=           -153.042426
 Sum of electronic and thermal Energies=              -153.037604
 Sum of electronic and thermal Enthalpies=            -153.036660
 Sum of electronic and thermal Free Energies=         -153.069288

                     E (Thermal)             CV                S
                      KCal/Mol        Cal/Mol-Kelvin    Cal/Mol-Kelvin
 Total                   29.318             15.791             68.673
 Electronic               0.000              0.000              1.377
 Translational            0.889              2.981             37.712
 Rotational               0.889              2.981             23.079
 Vibrational             27.541              9.829              6.504
 Vibration     1          0.642              1.827              2.053
 Vibration     2          0.673              1.731              1.607
 Vibration     3          0.770              1.461              0.947
 Vibration     4          0.792              1.404              0.857

 Optimization completed.
    -- Stationary point found.
 Normal termination of Gaussian 09 at Tue Jul 19 10:10:23 2016.
