 Gaussian 09, Revision E.01,
 Gaussian 09:  EM64L-G09RevE.01 30-Nov-2015

 ---------------------------------------------
 #p b3lyp/6-311++G(3df,2p) freq symmetry=Loose
 ---------------------------------------------

 ---------
 b3lyp opt
 ---------
 Symbolic Z-matrix:
 Charge =  2 Multiplicity = 2

                         Standard orientation:
 ---------------------------------------------------------------------
 Center     Atomic      Atomic             Coordinates (Angstroms)
 Number     Number       Type             X           Y           Z
 ---------------------------------------------------------------------
      1          6           0       -0.000000    0.000000   -1.877493
      2          1           0        0.000000    0.948208   -2.450267
      3          1           0       -0.000000   -0.948208   -2.450267
      4          6           0       -0.000000   -0.000000   -0.549287
      5          6           0        0.000000    0.000000    0.735212
      6          6           0        0.000000   -0.000000    1.993566
      7          1           0        0.000000   -0.000000    3.088557
 ---------------------------------------------------------------------

 SCF Done:  E(UB3LYP) =  -153.233085528     A.U. after   16 cycles

 The electronic state is 2-B1.
 Alpha  occ. eigenvalues --  -10.80152 -10.79639 -10.74748 -10.73890  -1.35515
 Alpha  occ. eigenvalues --   -1.29608  -1.19282  -1.03364  -0.99774  -0.94988
 Alpha  occ. eigenvalues --   -0.89472  -0.84571  -0.79518
 Alpha virt. eigenvalues --   -0.64297  -0.58135  -0.41345  -0.38161  -0.34568
 Alpha virt. eigenvalues --   -0.33234  -0.30198  -0.27196  -0.25633  -0.24698
 Alpha virt. eigenvalues --   -0.24333  -0.22419  -0.22138  -0.20496  -0.18887

  Beta  occ. eigenvalues --  -10.79495 -10.79228 -10.74167 -10.73873  -1.34422
  Beta  occ. eigenvalues --   -1.27137  -1.18270  -1.02482  -0.99173  -0.94711
  Beta  occ. eigenvalues --   -0.86003  -0.84109
  Beta virt. eigenvalues --   -0.68881  -0.63588  -0.53346  -0.41004  -0.35325
  Beta virt. eigenvalues --   -0.34215  -0.32353  -0.29774  -0.27136  -0.25214
  Beta virt. eigenvalues --   -0.24275  -0.23933  -0.22278  -0.21954  -0.19599

 Mulliken charges and spin densities:
               1          2
     1  C   -0.196916   0.264437
     2  H    0.328679  -0.012854
     3  H    0.328679  -0.012854
     4  C    0.488035   0.200019
     5  C    0.109450   0.189740
     6  C    0.488159   0.386489
     7  H    0.453914  -0.014976
 Sum of Mulliken charges =   2.00000   1.00000

 Dipole moment (field-independent basis, Debye):
    X=             -0.0000    Y=              0.0000    Z=              0.2571  Tot=              0.2571
 Quadrupole moment (field-independent basis, Debye-Ang):
   XX=            -19.2471   YY=            -16.4218   ZZ=             25.2399
   XY=              0.0000   XZ=              0.0000   YZ=             -0.0000

  Exact polarizability:  19.373  -0.000  21.794   0.000   0.000  83.936
 Approx polarizability:  26.572   0.000  30.169   0.000  -0.000 189.133

                      1                      2                      3
                     B2                     B1                     B2
 Frequencies --    188.5979               202.0120               435.1462
 Red. masses --      2.9365                 3.5693                 2.4018
 Frc consts  --      0.0615                 0.0858                 0.2680
 IR Inten    --     28.9661                27.7496                 0.3111

                      4                      5                      6
                     B1                     B1                     B2
 Frequencies --    474.5347               703.8820               856.7683
 Red. masses --      5.2333                 1.3739                 1.3426
 Frc consts  --      0.6943                 0.4011                 0.5807
 IR Inten    --      0.2984                21.4340                13.4929

                      7                      8                      9
                     B2                     A1                     B1
 Frequencies --    888.8859               904.1915               976.5597
 Red. masses --      1.9365                 4.5658                 1.3604
 Frc consts  --      0.9015                 2.1993                 0.7644
 IR Inten    --      9.6908                 3.1045                33.2414

                     10                     11                     12
                     A1                     A1                     A1
 Frequencies --   1294.7391              1579.3110              2076.7913
 Red. masses --      1.1334                 7.9445                 7.7392
 Frc consts  --      1.1195                11.6749                19.6667
 IR Inten    --    117.8268               129.5776               490.5519

                     13                     14                     15
                     A1                     B2                     A1
 Frequencies --   2906.0970              2984.5849              3148.3567
 Red. masses --      1.0511                 1.1144                 1.1559
 Frc consts  --      5.2303                 5.8486                 6.7505
 IR Inten    --    523.4338               253.4503               350.1336

 - Thermochemistry -
 -------------------
 Temperature   298.150 Kelvin.  Pressure   1.00000 Atm.
 Atom     1 has atomic number  6 and mass  12.00000

 Molecular mass:    51.02348 amu.
 Principal axes and moments of inertia in atomic units:
                           1         2         3
     Eigenvalues --     6.47173 434.77900 441.25072
           X            0.00000  -0.00000   1.00000
           Y            0.00000   1.00000   0.00000
           Z            1.00000   0.00000   0.00000
 This molecule is an asymmetric top.
 Rotational symmetry number  2.
 Rotational temperatures (Kelvin)     13.38342     0.19921     0.19629
 Rotational constants (GHZ):         278.86553     4.15094     4.09006
 Zero-point vibrational energy     117356.4 (Joules/Mol)
                                   28.04885 (Kcal/Mol)
 Warning -- explicit consideration of   4 degrees of freedom as
           vibrations may cause significant error
 Vibrational temperatures:    271.35   290.65   626.08   682.75  1012.73
          (Kelvin)           1232.70  1278.91  1300.93  1405.05  1862.84
                             2272.27  2988.04  4181.22  4294.15  4529.78

 Zero-point correction=                           0.044699 (Hartree/Particle)
 Thermal correction to Energy=                    0.049528
 Thermal correction to Enthalpy=                  0.050472
 Thermal correction to Gibbs Free Energy=         0.018984
 Sum of electronic and zero-point Energies=           -153.188387
 Sum of electronic and thermal Energies=              -153.183558
 Sum of electronic and thermal Enthalpies=            -153.182614
 Sum of electronic and thermal Free Energies=         -153.214101

                     E (Thermal)             CV                S
                      KCal/Mol        Cal/Mol-Kelvin    Cal/Mol-Kelvin
 Total                   31.079             15.368             66.271
 Electronic               0.000              0.000              1.377
 Translational            0.889              2.981             37.712
 Rotational               0.889              2.981             20.368
 Vibrational             29.302              9.406              6.814
 Vibration     1          0.633              1.856              2.242
 Vibration     2          0.639              1.837              2.115
 Vibration     3          0.796              1.394              0.842
 Vibration     4          0.831              1.307              0.725

 Optimization completed.
    -- Stationary point found.
 Normal termination of Gaussian 09 at Tue Jul 19 09:32:18 2016.
