 Gaussian 09, Revision E.01,
 Gaussian 09:  EM64L-G09RevE.01 30-Nov-2015

 ---------------------------------------------
 #p b3lyp/6-311++G(3df,2p) freq symmetry=Loose
 ---------------------------------------------

 ---------
 b3lyp opt
 ---------
 Symbolic Z-matrix:
 Charge =  3 Multiplicity = 1

                         Standard orientation:
 ---------------------------------------------------------------------
 Center     Atomic      Atomic             Coordinates (Angstroms)
 Number     Number       Type             X           Y           Z
 ---------------------------------------------------------------------
      1          6           0       -0.472280   -0.686476    0.000000
      2          1           0       -1.047584   -1.018336    0.986881
      3          1           0       -1.047584   -1.018336   -0.986881
      4          6           0        0.320172   -1.963066    0.000000
      5          6           0        0.000000    0.621432   -0.000000
      6          6           0        0.385370    1.874059   -0.000000
      7          1           0        0.695599    2.960980   -0.000000
 ---------------------------------------------------------------------

 SCF Done:  E(RB3LYP) =  -152.174384744     A.U. after   15 cycles

 The electronic state is 1-A'.
 Alpha  occ. eigenvalues --  -11.20018 -11.08397 -11.06655 -11.02394  -1.62306
 Alpha  occ. eigenvalues --   -1.54746  -1.40468  -1.25822  -1.22750  -1.22505
 Alpha  occ. eigenvalues --   -1.10523  -1.06035
 Alpha virt. eigenvalues --   -0.99134  -0.89954  -0.88524  -0.76440  -0.75468
 Alpha virt. eigenvalues --   -0.59768  -0.58364  -0.53483  -0.52900  -0.47567
 Alpha virt. eigenvalues --   -0.44688  -0.43651  -0.43623  -0.42342  -0.38709

 Mulliken charges:
               1
     1  C   -0.326453
     2  H    0.416934
     3  H    0.416934
     4  C    0.653363
     5  C    0.603368
     6  C    0.709427
     7  H    0.526427
 Sum of Mulliken charges =   3.00000

 Dipole moment (field-independent basis, Debye):
    X=             -0.1639    Y=              0.4063    Z=             -0.0000  Tot=              0.4381
 Quadrupole moment (field-independent basis, Debye-Ang):
   XX=            -10.3830   YY=             29.3347   ZZ=            -14.6391
   XY=              7.3947   XZ=              0.0000   YZ=              0.0000

  Exact polarizability:  25.521   4.547  77.482   0.000  -0.000  23.506
 Approx polarizability:  45.734  -2.109 256.027   0.000   0.000  35.170

                      1                      2                      3
                     A'                     A"                     A'
 Frequencies --    228.3750               282.9633               465.5854
 Red. masses --      4.2807                 2.9602                 4.1128
 Frc consts  --      0.1315                 0.1396                 0.5253
 IR Inten    --     11.5946                37.8538                10.5894

                      4                      5                      6
                     A"                     A"                     A'
 Frequencies --    544.2610               671.8231               698.0221
 Red. masses --      1.8350                 1.2121                 2.9696
 Frc consts  --      0.3203                 0.3223                 0.8525
 IR Inten    --     18.2547                52.7809                51.9987

                      7                      8                      9
                     A'                     A'                     A"
 Frequencies --    865.9517               944.6774               965.6219
 Red. masses --      1.4840                 1.9758                 1.1377
 Frc consts  --      0.6557                 1.0389                 0.6250
 IR Inten    --      1.8689                38.7214                 0.9395

                     10                     11                     12
                     A'                     A'                     A'
 Frequencies --    979.2861              1214.4263              1806.6508
 Red. masses --      1.7484                 1.5774                 5.9520
 Frc consts  --      0.9879                 1.3706                11.4462
 IR Inten    --    326.2508               201.6818               452.9146

                     13                     14                     15
                     A"                     A'                     A'
 Frequencies --   2228.3818              2236.3082              2814.6708
 Red. masses --      1.0961                 1.0581                 1.1741
 Frc consts  --      3.2068                 3.1176                 5.4804
 IR Inten    --    694.4721               610.8323               632.6141

 - Thermochemistry -
 -------------------
 Temperature   298.150 Kelvin.  Pressure   1.00000 Atm.
 Atom     1 has atomic number  6 and mass  12.00000

 Molecular mass:    51.02348 amu.
 Principal axes and moments of inertia in atomic units:
                           1         2         3
     Eigenvalues --    33.82784 401.35843 421.16548
           X            0.09040   0.99591   0.00000
           Y            0.99591  -0.09040   0.00000
           Z           -0.00000  -0.00000   1.00000
 This molecule is an asymmetric top.
 Rotational symmetry number  1.
 Rotational temperatures (Kelvin)      2.56043     0.21580     0.20565
 Rotational constants (GHZ):          53.35076     4.49658     4.28511
 Zero-point vibrational energy     101365.6 (Joules/Mol)
                                   24.22696 (Kcal/Mol)
 Warning -- explicit consideration of   4 degrees of freedom as
           vibrations may cause significant error
 Vibrational temperatures:    328.58   407.12   669.87   783.07   966.60
          (Kelvin)           1004.30  1245.91  1359.18  1389.31  1408.97
                             1747.29  2599.36  3206.14  3217.54  4049.68

 Zero-point correction=                           0.038608 (Hartree/Particle)
 Thermal correction to Energy=                    0.043289
 Thermal correction to Enthalpy=                  0.044233
 Thermal correction to Gibbs Free Energy=         0.012462
 Sum of electronic and zero-point Energies=           -152.135777
 Sum of electronic and thermal Energies=              -152.131096
 Sum of electronic and thermal Enthalpies=            -152.130152
 Sum of electronic and thermal Free Energies=         -152.161922

                     E (Thermal)             CV                S
                      KCal/Mol        Cal/Mol-Kelvin    Cal/Mol-Kelvin
 Total                   27.164             15.698             66.867
 Electronic               0.000              0.000              0.000
 Translational            0.889              2.981             37.712
 Rotational               0.889              2.981             23.263
 Vibrational             25.387              9.736              5.892
 Vibration     1          0.651              1.798              1.892
 Vibration     2          0.682              1.705              1.516
 Vibration     3          0.823              1.326              0.750
 Vibration     4          0.899              1.152              0.556

 Optimization completed.
    -- Stationary point found.
 Normal termination of Gaussian 09 at Tue Jul 19 12:51:31 2016.
