 Gaussian 09, Revision E.01,
 Gaussian 09:  EM64L-G09RevE.01 30-Nov-2015

 ------------------------------------------------------
 #p b3lyp/6-311++G(3df,2p) freq IOp(2/17=3) IOp(2/18=3)
 ------------------------------------------------------

 ---------
 b3lyp opt
 ---------
 Symbolic Z-matrix:
 Charge =  1 Multiplicity = 1

                         Standard orientation:
 ---------------------------------------------------------------------
 Center     Atomic      Atomic             Coordinates (Angstroms)
 Number     Number       Type             X           Y           Z
 ---------------------------------------------------------------------
      1          6           0        0.566784   -0.954514    0.000000
      2          6           0       -0.185073   -0.111812   -0.893268
      3          1           0       -0.758363   -0.294718   -1.794626
      4          6           0       -0.000000    0.947222   -0.000000
      5          1           0        0.336334    1.974845   -0.000000
      6          6           0       -0.185073   -0.111812    0.893268
      7          1           0       -0.758363   -0.294718    1.794626
 ---------------------------------------------------------------------

 SCF Done:  E(RB3LYP) =  -153.780911223     A.U. after   11 cycles

 The electronic state is 1-A'.
 Alpha  occ. eigenvalues --  -10.52272 -10.52270 -10.51017 -10.48983  -1.24568
 Alpha  occ. eigenvalues --   -0.92125  -0.92037  -0.81824  -0.77008  -0.68426
 Alpha  occ. eigenvalues --   -0.65372  -0.64161  -0.51336
 Alpha virt. eigenvalues --   -0.32087  -0.30772  -0.28658  -0.15326  -0.14689
 Alpha virt. eigenvalues --   -0.14172  -0.11315  -0.11203  -0.08978  -0.08400
 Alpha virt. eigenvalues --   -0.07241  -0.05337  -0.05273  -0.04239  -0.03502

 Mulliken charges:
               1
     1  C   -0.153710
     2  C    0.190823
     3  H    0.284071
     4  C   -0.085158
     5  H    0.289079
     6  C    0.190823
     7  H    0.284071
 Sum of Mulliken charges =   1.00000

 Dipole moment (field-independent basis, Debye):
    X=             -1.8561    Y=              1.9858    Z=             -0.0000  Tot=              2.7182
 Quadrupole moment (field-independent basis, Debye-Ang):
   XX=            -20.7749   YY=            -17.5932   ZZ=            -13.0626
   XY=              2.7920   XZ=              0.0000   YZ=             -0.0000

  Exact polarizability:  26.619  -4.233  41.540   0.000  -0.000  35.962
 Approx polarizability:  42.845 -12.927  84.201  -0.000  -0.000  60.059

                      1                      2                      3
                     A'                     A'                     A"
 Frequencies --    523.1777               572.5732               749.7464
 Red. masses --      2.5456                 2.3288                 5.5734
 Frc consts  --      0.4105                 0.4498                 1.8459
 IR Inten    --      4.4526                23.3383                 0.1675

                      4                      5                      6
                     A'                     A"                     A'
 Frequencies --    856.3306               944.2721              1000.6923
 Red. masses --      1.7196                 1.4722                 1.6342
 Frc consts  --      0.7430                 0.7734                 0.9642
 IR Inten    --     42.3987                 0.0228                42.3981

                      7                      8                      9
                     A"                     A'                     A"
 Frequencies --   1043.9463              1055.8412              1109.8904
 Red. masses --      1.1074                 1.3249                 1.3274
 Frc consts  --      0.7111                 0.8702                 0.9634
 IR Inten    --      9.0484                10.2573                 3.8349

                     10                     11                     12
                     A'                     A"                     A'
 Frequencies --   1283.7285              1346.2698              1439.2759
 Red. masses --      3.9646                 4.2608                 4.9701
 Frc consts  --      3.8494                 4.5499                 6.0660
 IR Inten    --     28.5045                37.2112                 9.8062

                     13                     14                     15
                     A'                     A"                     A'
 Frequencies --   3201.3603              3203.4908              3232.7791
 Red. masses --      1.0940                 1.1020                 1.1208
 Frc consts  --      6.6060                 6.6633                 6.9015
 IR Inten    --     56.6257                97.1082                46.5835

 - Thermochemistry -
 -------------------
 Temperature   298.150 Kelvin.  Pressure   1.00000 Atm.
 Atom     1 has atomic number  6 and mass  12.00000

 Molecular mass:    51.02348 amu.
 Principal axes and moments of inertia in atomic units:
                           1         2         3
     Eigenvalues --   108.77884 114.24515 188.60493
           X           -0.22226   0.00000   0.97499
           Y            0.97499   0.00000   0.22226
           Z           -0.00000   1.00000  -0.00000
 This molecule is an asymmetric top.
 Rotational symmetry number  1.
 Rotational temperatures (Kelvin)      0.79624     0.75814     0.45923
 Rotational constants (GHZ):          16.59092    15.79709     9.56890
 Zero-point vibrational energy     128977.6 (Joules/Mol)
                                   30.82639 (Kcal/Mol)
 Warning -- explicit consideration of   2 degrees of freedom as
           vibrations may cause significant error
 Vibrational temperatures:    752.74   823.80  1078.72  1232.07  1358.60
          (Kelvin)           1439.77  1502.00  1519.12  1596.88  1847.00
                             1936.98  2070.79  4606.04  4609.10  4651.24

 Zero-point correction=                           0.049125 (Hartree/Particle)
 Thermal correction to Energy=                    0.052693
 Thermal correction to Enthalpy=                  0.053637
 Thermal correction to Gibbs Free Energy=         0.024132
 Sum of electronic and zero-point Energies=           -153.731786
 Sum of electronic and thermal Energies=              -153.728218
 Sum of electronic and thermal Enthalpies=            -153.727274
 Sum of electronic and thermal Free Energies=         -153.756779

                     E (Thermal)             CV                S
                      KCal/Mol        Cal/Mol-Kelvin    Cal/Mol-Kelvin
 Total                   33.065             11.668             62.099
 Electronic               0.000              0.000              0.000
 Translational            0.889              2.981             37.712
 Rotational               0.889              2.981             22.376
 Vibrational             31.288              5.706              2.010
 Vibration     1          0.878              1.199              0.603
 Vibration     2          0.929              1.091              0.499

 Optimization completed.
    -- Stationary point found.
 Normal termination of Gaussian 09 at Thu Jan 31 05:19:29 2019.
