 Gaussian 09, Revision E.01,
 Gaussian 09:  EM64L-G09RevE.01 30-Nov-2015

 ---------------------------------------------
 #p b3lyp/6-311++G(3df,2p) freq symmetry=Loose
 ---------------------------------------------

 ---------
 b3lyp opt
 ---------
 Symbolic Z-matrix:
 Charge =  2 Multiplicity = 4

                         Standard orientation:
 ---------------------------------------------------------------------
 Center     Atomic      Atomic             Coordinates (Angstroms)
 Number     Number       Type             X           Y           Z
 ---------------------------------------------------------------------
      1          6           0        0.173462    1.906611    0.000000
      2          1           0        1.181619    2.365377    0.000000
      3          1           0       -0.690057    2.600776    0.000000
      4          6           0        0.000000    0.571980    0.000000
      5          6           0       -0.070055   -0.736927   -0.000000
      6          6           0       -0.090638   -2.061488   -0.000000
      7          1           0       -0.568178   -3.047208   -0.000000
 ---------------------------------------------------------------------

 SCF Done:  E(UB3LYP) =  -153.132192570     A.U. after   15 cycles

 The electronic state is 4-A".
 Alpha  occ. eigenvalues --  -10.81076 -10.78757 -10.77663 -10.74525  -1.36998
 Alpha  occ. eigenvalues --   -1.29545  -1.20204  -1.02302  -0.99403  -0.95774
 Alpha  occ. eigenvalues --   -0.89550  -0.88942  -0.78692  -0.74126
 Alpha virt. eigenvalues --   -0.58942  -0.49533  -0.40937  -0.35997  -0.34262
 Alpha virt. eigenvalues --   -0.29525  -0.27500  -0.25908  -0.25635  -0.24320
 Alpha virt. eigenvalues --   -0.22947  -0.22263  -0.20413  -0.19672  -0.18782

  Beta  occ. eigenvalues --  -10.80268 -10.76699 -10.76405 -10.73919  -1.32035
  Beta  occ. eigenvalues --   -1.24820  -1.16649  -0.99960  -0.97582  -0.91853
  Beta  occ. eigenvalues --   -0.85226
  Beta virt. eigenvalues --   -0.73655  -0.67581  -0.58027  -0.53048  -0.40677
  Beta virt. eigenvalues --   -0.36665  -0.33856  -0.31988  -0.28403  -0.26773
  Beta virt. eigenvalues --   -0.25180  -0.24432  -0.23410  -0.21803  -0.21436

 Mulliken charges and spin densities:
               1          2
     1  C   -0.197253   0.296187
     2  H    0.322565   0.046453
     3  H    0.319303   0.046343
     4  C    0.600005   0.889566
     5  C    0.418951   0.740560
     6  C    0.134907   1.004868
     7  H    0.401523  -0.023976
 Sum of Mulliken charges =   2.00000   3.00000

 Dipole moment (field-independent basis, Debye):
    X=             -0.2510    Y=             -0.2734    Z=              0.0000  Tot=              0.3712
 Quadrupole moment (field-independent basis, Debye-Ang):
   XX=            -15.7886   YY=             23.2236   ZZ=            -19.4107
   XY=              4.4473   XZ=              0.0000   YZ=              0.0000

  Exact polarizability:  22.807   4.888  87.361   0.000   0.000  19.899
 Approx polarizability:  31.421   7.412 167.107   0.000   0.000  27.202

                      1                      2                      3
                     A'                     A"                     A'
 Frequencies --    158.2249               206.6933               294.0049
 Red. masses --      2.9412                 3.4764                 1.1923
 Frc consts  --      0.0434                 0.0875                 0.0607
 IR Inten    --     20.0459                21.5645                60.4842

                      4                      5                      6
                     A'                     A"                     A"
 Frequencies --    403.4951               468.4841               712.5703
 Red. masses --     10.4238                 6.4759                 1.2555
 Frc consts  --      0.9999                 0.8374                 0.3756
 IR Inten    --      9.2661                 0.0112                16.3422

                      7                      8                      9
                     A'                     A'                     A"
 Frequencies --    838.3523               844.7739               992.7385
 Red. masses --      2.3193                 2.0898                 1.3531
 Frc consts  --      0.9604                 0.8787                 0.7857
 IR Inten    --      1.2047                 3.1420                28.4986

                     10                     11                     12
                     A'                     A'                     A'
 Frequencies --   1303.6140              1366.0050              1982.1632
 Red. masses --      1.0879                 7.1941                10.1189
 Frc consts  --      1.0893                 7.9091                23.4241
 IR Inten    --    108.4853                73.5795                44.0268

                     13                     14                     15
                     A'                     A'                     A'
 Frequencies --   2878.7954              2965.0098              3109.0630
 Red. masses --      1.0488                 1.1118                 1.1130
 Frc consts  --      5.1211                 5.7588                 6.3386
 IR Inten    --    500.5977               212.8995               489.3534

 - Thermochemistry -
 -------------------
 Temperature   298.150 Kelvin.  Pressure   1.00000 Atm.
 Atom     1 has atomic number  6 and mass  12.00000

 Molecular mass:    51.02348 amu.
 Principal axes and moments of inertia in atomic units:
                           1         2         3
     Eigenvalues --     7.12266 455.45570 462.57836
           X            0.07658   0.99706   0.00000
           Y            0.99706  -0.07658   0.00000
           Z            0.00000   0.00000   1.00000
 This molecule is an asymmetric top.
 Rotational symmetry number  1.
 Rotational temperatures (Kelvin)     12.16032     0.19017     0.18724
 Rotational constants (GHZ):         253.38033     3.96250     3.90148
 Zero-point vibrational energy     110798.0 (Joules/Mol)
                                   26.48137 (Kcal/Mol)
 Warning -- explicit consideration of   5 degrees of freedom as
           vibrations may cause significant error
 Vibrational temperatures:    227.65   297.39   423.01   580.54   674.04
          (Kelvin)           1025.23  1206.20  1215.44  1428.33  1875.61
                             1965.37  2851.89  4141.94  4265.98  4473.24

 Zero-point correction=                           0.042201 (Hartree/Particle)
 Thermal correction to Energy=                    0.047495
 Thermal correction to Enthalpy=                  0.048439
 Thermal correction to Gibbs Free Energy=         0.014717
 Sum of electronic and zero-point Energies=           -153.089992
 Sum of electronic and thermal Energies=              -153.084697
 Sum of electronic and thermal Enthalpies=            -153.083753
 Sum of electronic and thermal Free Energies=         -153.117476

                     E (Thermal)             CV                S
                      KCal/Mol        Cal/Mol-Kelvin    Cal/Mol-Kelvin
 Total                   29.804             16.791             70.976
 Electronic               0.000              0.000              2.755
 Translational            0.889              2.981             37.712
 Rotational               0.889              2.981             21.933
 Vibrational             28.026             10.830              8.575
 Vibration     1          0.621              1.893              2.571
 Vibration     2          0.641              1.830              2.073
 Vibration     3          0.689              1.685              1.451
 Vibration     4          0.769              1.463              0.950
 Vibration     5          0.826              1.320              0.742

 Optimization completed.
    -- Stationary point found.
 Normal termination of Gaussian 09 at Sun Jun 19 06:38:17 2016.
