 Gaussian 09, Revision E.01,
 Gaussian 09:  EM64L-G09RevE.01 30-Nov-2015

 ---------------------------------------------
 #p b3lyp/6-311++G(3df,2p) freq symmetry=Loose
 ---------------------------------------------

 ---------
 b3lyp opt
 ---------
 Symbolic Z-matrix:
 Charge =  0 Multiplicity = 2

                         Standard orientation:
 ---------------------------------------------------------------------
 Center     Atomic      Atomic             Coordinates (Angstroms)
 Number     Number       Type             X           Y           Z
 ---------------------------------------------------------------------
      1          6           0       -0.002191    0.000249   -0.004422
      2          6           0        1.194495   -0.678258    0.000632
      3          6           0        1.194894    0.678118    0.000601
      4          6           0       -1.466367    0.000503   -0.003323
      5          1           0       -1.851971   -0.870283   -0.533888
      6          1           0       -1.819427   -0.046677    1.028963
      7          1           0       -1.853589    0.913286   -0.456003
 ---------------------------------------------------------------------

 SCF Done:  E(UB3LYP) =  -154.066606139     A.U. after   14 cycles

 The electronic state is 2-A.
 Alpha  occ. eigenvalues --  -10.27233 -10.21852 -10.21780 -10.21612  -0.95243
 Alpha  occ. eigenvalues --   -0.78588  -0.55006  -0.52412  -0.47456  -0.43857
 Alpha  occ. eigenvalues --   -0.42967  -0.37884  -0.28745  -0.25541
 Alpha virt. eigenvalues --   -0.04578  -0.01738  -0.01509   0.02375   0.02561
 Alpha virt. eigenvalues --    0.04115   0.05350   0.06176   0.06679   0.08104
 Alpha virt. eigenvalues --    0.08353   0.10542   0.12024   0.12270   0.12495

  Beta  occ. eigenvalues --  -10.26680 -10.21643 -10.21107 -10.21031  -0.94310
  Beta  occ. eigenvalues --   -0.78355  -0.53898  -0.50194  -0.47334  -0.42668
  Beta  occ. eigenvalues --   -0.39820  -0.37356  -0.26010
  Beta virt. eigenvalues --   -0.13969  -0.03748  -0.01445  -0.00551   0.02537
  Beta virt. eigenvalues --    0.02615   0.04328   0.05530   0.06395   0.06721
  Beta virt. eigenvalues --    0.08152   0.08535   0.10619   0.12292   0.12365

 Mulliken charges and spin densities:
               1          2
     1  C    0.412792   0.272176
     2  C   -0.262712   0.357385
     3  C   -0.260499   0.355675
     4  C   -0.379371  -0.015792
     5  H    0.161386   0.015145
     6  H    0.167778  -0.001421
     7  H    0.160626   0.016833
 Sum of Mulliken charges =  -0.00000   1.00000

 Dipole moment (field-independent basis, Debye):
    X=             -3.4611    Y=             -0.0074    Z=              0.0489  Tot=              3.4615
 Quadrupole moment (field-independent basis, Debye-Ang):
   XX=            -24.2457   YY=            -27.7743   ZZ=            -23.2357
   XY=              0.0066   XZ=             -0.0740   YZ=              0.0001

  Exact polarizability:  53.479   0.013  58.190  -0.024   0.000  33.051
 Approx polarizability:  76.348   0.035  88.289  -0.120  -0.001  48.198

                      1                      2                      3
                      A                      A                      A
 Frequencies --     31.6623               319.7808               396.0251
 Red. masses --      1.2680                 3.5255                 3.2580
 Frc consts  --      0.0007                 0.2124                 0.3011
 IR Inten    --      0.2356                43.4353                 1.7283

                      4                      5                      6
                      A                      A                      A
 Frequencies --    665.5135               787.5545              1018.9158
 Red. masses --     11.6849                 4.5692                 1.5169
 Frc consts  --      3.0492                 1.6698                 0.9279
 IR Inten    --    392.2181                 2.4391                 6.0553

                      7                      8                      9
                      A                      A                      A
 Frequencies --   1037.2641              1343.7970              1398.6539
 Red. masses --      1.4168                 5.7999                 1.3334
 Frc consts  --      0.8981                 6.1708                 1.5369
 IR Inten    --     27.0335                52.7020                18.0665

                     10                     11                     12
                      A                      A                      A
 Frequencies --   1458.1286              1468.9101              1711.1435
 Red. masses --      1.0373                 1.0510                11.8419
 Frc consts  --      1.2994                 1.3361                20.4288
 IR Inten    --      6.1781                 9.4647                49.3211

                     13                     14                     15
                      A                      A                      A
 Frequencies --   3029.6833              3093.9241              3108.1197
 Red. masses --      1.0337                 1.0990                 1.1031
 Frc consts  --      5.5901                 6.1981                 6.2788
 IR Inten    --      0.4983                 2.0870                 2.6592

 - Thermochemistry -
 -------------------
 Temperature   298.150 Kelvin.  Pressure   1.00000 Atm.
 Atom     1 has atomic number  6 and mass  12.00000

 Molecular mass:    51.02348 amu.
 Principal axes and moments of inertia in atomic units:
                           1         2         3
     Eigenvalues --    50.74081 254.57674 294.14581
           X            1.00000   0.00007  -0.00062
           Y           -0.00007   1.00000   0.00001
           Z            0.00062  -0.00001   1.00000
 This molecule is an asymmetric top.
 Rotational symmetry number  1.
 Rotational temperatures (Kelvin)      1.70699     0.34023     0.29446
 Rotational constants (GHZ):          35.56784     7.08918     6.13553
 Zero-point vibrational energy     124824.8 (Joules/Mol)
                                   29.83384 (Kcal/Mol)
 Warning -- explicit consideration of   3 degrees of freedom as
           vibrations may cause significant error
 Vibrational temperatures:     45.55   460.09   569.79   957.52  1133.11
          (Kelvin)           1465.99  1492.39  1933.42  2012.35  2097.92
                             2113.43  2461.95  4359.03  4451.46  4471.89

 Zero-point correction=                           0.047543 (Hartree/Particle)
 Thermal correction to Energy=                    0.052265
 Thermal correction to Enthalpy=                  0.053209
 Thermal correction to Gibbs Free Energy=         0.019586
 Sum of electronic and zero-point Energies=           -154.019063
 Sum of electronic and thermal Energies=              -154.014341
 Sum of electronic and thermal Enthalpies=            -154.013397
 Sum of electronic and thermal Free Energies=         -154.047020

                     E (Thermal)             CV                S
                      KCal/Mol        Cal/Mol-Kelvin    Cal/Mol-Kelvin
 Total                   32.797             13.763             70.765
 Electronic               0.000              0.000              1.377
 Translational            0.889              2.981             37.712
 Rotational               0.889              2.981             22.856
 Vibrational             31.019              7.801              8.819
 Vibration     1          0.594              1.983              5.722
 Vibration     2          0.706              1.636              1.311
 Vibration     3          0.763              1.479              0.977

 Normal termination of Gaussian 09 at Sun Jun 19 05:44:00 2016.
