 Gaussian 09, Revision E.01,
 Gaussian 09:  EM64L-G09RevE.01 30-Nov-2015

 ---------------------------------------------
 #p b3lyp/6-311++G(3df,2p) freq symmetry=Loose
 ---------------------------------------------

 ---------
 b3lyp opt
 ---------
 Symbolic Z-matrix:
 Charge =  3 Multiplicity = 1

                         Standard orientation:
 ---------------------------------------------------------------------
 Center     Atomic      Atomic             Coordinates (Angstroms)
 Number     Number       Type             X           Y           Z
 ---------------------------------------------------------------------
      1          6           0       -0.000000    0.000000   -1.957911
      2          1           0        0.000000    0.978725   -2.531043
      3          1           0       -0.000000   -0.978725   -2.531043
      4          6           0       -0.000000    0.000000   -0.522351
      5          6           0        0.000000   -0.000000    0.744403
      6          6           0        0.000000   -0.000000    2.048438
      7          1           0        0.000000   -0.000000    3.186614
 ---------------------------------------------------------------------

 SCF Done:  E(RB3LYP) =  -152.350651579     A.U. after   12 cycles

 The electronic state is 1-A1.
 Alpha  occ. eigenvalues --  -11.12571 -11.09050 -11.06008 -11.01321  -1.60891
 Alpha  occ. eigenvalues --   -1.53788  -1.45335  -1.27598  -1.24098  -1.18849
 Alpha  occ. eigenvalues --   -1.12501  -1.09957
 Alpha virt. eigenvalues --   -0.96492  -0.90664  -0.82924  -0.67159  -0.63810
 Alpha virt. eigenvalues --   -0.59933  -0.55241  -0.51832  -0.48964  -0.45950
 Alpha virt. eigenvalues --   -0.42850  -0.42363  -0.41094  -0.40195  -0.39199

 Mulliken charges:
               1
     1  C   -0.074250
     2  H    0.395254
     3  H    0.395254
     4  C    0.672606
     5  C    0.572210
     6  C    0.516713
     7  H    0.522213
 Sum of Mulliken charges =   3.00000

 Dipole moment (field-independent basis, Debye):
    X=             -0.0000    Y=             -0.0000    Z=              0.3434  Tot=              0.3434
 Quadrupole moment (field-independent basis, Debye-Ang):
   XX=            -16.3098   YY=            -14.1261   ZZ=             48.4423
   XY=              0.0000   XZ=              0.0000   YZ=              0.0000

  Exact polarizability:  16.835   0.000  19.475   0.000   0.000  76.419
 Approx polarizability:  23.989   0.000  26.556   0.000  -0.000 206.747

                      1                      2                      3
                     B2                     B1                     B1
 Frequencies --    190.4364               190.6954               411.6503
 Red. masses --      3.0604                 3.3211                 4.8373
 Frc consts  --      0.0654                 0.0712                 0.4830
 IR Inten    --     51.5542                49.7640                 0.4451

                      4                      5                      6
                     B2                     A1                     B2
 Frequencies --    430.6622               757.5832               814.9730
 Red. masses --      2.9249                 6.3586                 1.3533
 Frc consts  --      0.3196                 2.1502                 0.5296
 IR Inten    --      0.8212                18.5085                19.2868

                      7                      8                      9
                     B1                     B2                     B1
 Frequencies --    880.3913               917.8848              1098.7094
 Red. masses --      1.4216                 1.6159                 1.3843
 Frc consts  --      0.6492                 0.8021                 0.9846
 IR Inten    --      9.8387                 5.6729                26.1350

                     10                     11                     12
                     A1                     A1                     A1
 Frequencies --   1226.2515              1319.3301              2075.9590
 Red. masses --      1.4935                 2.4796                 6.0202
 Frc consts  --      1.3232                 2.5430                15.2863
 IR Inten    --      1.4945               609.6200              1138.1246

                     13                     14                     15
                     A1                     B2                     A1
 Frequencies --   2653.6545              2749.8064              2764.2395
 Red. masses --      1.0483                 1.1255                 1.2156
 Frc consts  --      4.3492                 5.0143                 5.4724
 IR Inten    --    860.2356               456.6278               400.5681

 - Thermochemistry -
 -------------------
 Temperature   298.150 Kelvin.  Pressure   1.00000 Atm.
 Atom     1 has atomic number  6 and mass  12.00000

 Molecular mass:    51.02348 amu.
 Principal axes and moments of inertia in atomic units:
                           1         2         3
     Eigenvalues --     6.89499 461.94123 468.83622
           X            0.00000   0.00000   1.00000
           Y            0.00000   1.00000   0.00000
           Z            1.00000   0.00000   0.00000
 This molecule is an asymmetric top.
 Rotational symmetry number  2.
 Rotational temperatures (Kelvin)     12.56184     0.18750     0.18474
 Rotational constants (GHZ):         261.74665     3.90686     3.84941
 Zero-point vibrational energy     110548.3 (Joules/Mol)
                                   26.42167 (Kcal/Mol)
 Warning -- explicit consideration of   4 degrees of freedom as
           vibrations may cause significant error
 Vibrational temperatures:    274.00   274.37   592.27   619.63  1089.99
          (Kelvin)           1172.56  1266.69  1320.63  1580.80  1764.30
                             1898.22  2986.84  3818.01  3956.35  3977.12

 Zero-point correction=                           0.042106 (Hartree/Particle)
 Thermal correction to Energy=                    0.046994
 Thermal correction to Enthalpy=                  0.047938
 Thermal correction to Gibbs Free Energy=         0.016896
 Sum of electronic and zero-point Energies=           -152.308546
 Sum of electronic and thermal Energies=              -152.303658
 Sum of electronic and thermal Enthalpies=            -152.302714
 Sum of electronic and thermal Free Energies=         -152.333755

                     E (Thermal)             CV                S
                      KCal/Mol        Cal/Mol-Kelvin    Cal/Mol-Kelvin
 Total                   29.489             15.488             65.333
 Electronic               0.000              0.000              0.000
 Translational            0.889              2.981             37.712
 Rotational               0.889              2.981             20.551
 Vibrational             27.712              9.526              7.069
 Vibration     1          0.634              1.853              2.224
 Vibration     2          0.634              1.853              2.221
 Vibration     3          0.776              1.445              0.921
 Vibration     4          0.792              1.403              0.856

 Optimization completed.
    -- Stationary point found.
 Normal termination of Gaussian 09 at Tue Jul 19 12:47:37 2016.
