 Gaussian 09, Revision E.01,
 Gaussian 09:  EM64L-G09RevE.01 30-Nov-2015

 ---------------------------------------------
 #p b3lyp/6-311++G(3df,2p) freq symmetry=Loose
 ---------------------------------------------

 ---------
 b3lyp opt
 ---------
 Symbolic Z-matrix:
 Charge =  3 Multiplicity = 3

                         Standard orientation:
 ---------------------------------------------------------------------
 Center     Atomic      Atomic             Coordinates (Angstroms)
 Number     Number       Type             X           Y           Z
 ---------------------------------------------------------------------
      1          6           0        0.413716   -0.827298   -0.000000
      2          1           0        1.574371   -1.036815   -0.000000
      3          6           0       -0.206996   -2.029979   -0.000000
      4          6           0        0.000000    0.473692    0.000000
      5          6           0       -0.315886    1.760923    0.000000
      6          1           0       -1.390103    2.169658    0.000000
      7          1           0        0.470725    2.603132    0.000000
 ---------------------------------------------------------------------

 SCF Done:  E(UB3LYP) =  -152.237190308     A.U. after   17 cycles

 The electronic state is 3-A".
 Alpha  occ. eigenvalues --  -11.19221 -11.09006 -11.04531 -11.01338  -1.64002
 Alpha  occ. eigenvalues --   -1.56069  -1.43751  -1.26247  -1.23615  -1.19798
 Alpha  occ. eigenvalues --   -1.15744  -1.15598  -1.06685
 Alpha virt. eigenvalues --   -0.92137  -0.87708  -0.84765  -0.68569  -0.57872
 Alpha virt. eigenvalues --   -0.53656  -0.49221  -0.48533  -0.47851  -0.43366
 Alpha virt. eigenvalues --   -0.42886  -0.42446  -0.41495  -0.38188  -0.37329

  Beta  occ. eigenvalues --  -11.15825 -11.08516 -11.04448 -11.00908  -1.61994
  Beta  occ. eigenvalues --   -1.53075  -1.41402  -1.25223  -1.23080  -1.15791
  Beta  occ. eigenvalues --   -1.11341
  Beta virt. eigenvalues --   -0.95483  -0.94155  -0.87112  -0.86328  -0.78252
  Beta virt. eigenvalues --   -0.64573  -0.57184  -0.53232  -0.48786  -0.47718
  Beta virt. eigenvalues --   -0.47550  -0.43101  -0.42439  -0.40982  -0.40882

 Mulliken charges and spin densities:
               1          2
     1  C    0.437347  -0.013043
     2  H    0.353103  -0.008684
     3  C    0.715670   1.492979
     4  C    0.775335   0.324888
     5  C   -0.085292   0.216842
     6  H    0.396509  -0.004344
     7  H    0.407329  -0.008637
 Sum of Mulliken charges =   3.00000   2.00000

 Dipole moment (field-independent basis, Debye):
    X=              0.1100    Y=             -0.1865    Z=             -0.0000  Tot=              0.2166
 Quadrupole moment (field-independent basis, Debye-Ang):
   XX=             -6.9068   YY=             32.2091   ZZ=            -17.8951
   XY=             -5.0884   XZ=             -0.0000   YZ=              0.0000

  Exact polarizability:  26.379  -5.322  69.197  -0.000  -0.000  17.323
 Approx polarizability:  42.416  -6.693 130.806  -0.000   0.000  23.542

                      1                      2                      3
                     A'                     A"                     A'
 Frequencies --    238.7358               280.1986               428.9214
 Red. masses --      3.1854                 2.8875                 2.1620
 Frc consts  --      0.1070                 0.1336                 0.2343
 IR Inten    --     18.9286                45.2039                11.5029

                      4                      5                      6
                     A"                     A"                     A'
 Frequencies --    435.5195               670.7438               717.3797
 Red. masses --      1.3770                 1.6639                 1.7930
 Frc consts  --      0.1539                 0.4411                 0.5437
 IR Inten    --      2.5865                41.3719                12.7604

                      7                      8                      9
                     A'                     A"                     A'
 Frequencies --    873.7183               915.9400               937.4149
 Red. masses --      5.9131                 1.3842                 1.4748
 Frc consts  --      2.6595                 0.6842                 0.7636
 IR Inten    --     15.7064                51.0809                11.2069

                     10                     11                     12
                     A'                     A'                     A'
 Frequencies --   1092.0485              1315.5389              1667.1304
 Red. masses --      1.1368                 6.0829                 9.1669
 Frc consts  --      0.7988                 6.2025                15.0110
 IR Inten    --    243.8640               279.0730                 1.2220

                     13                     14                     15
                     A'                     A'                     A'
 Frequencies --   2289.7939              2518.7740              2543.9171
 Red. masses --      1.0713                 1.0792                 1.0748
 Frc consts  --      3.3096                 4.0340                 4.0982
 IR Inten    --    941.2414               931.0201               796.7493

 - Thermochemistry -
 -------------------
 Temperature   298.150 Kelvin.  Pressure   1.00000 Atm.
 Atom     1 has atomic number  6 and mass  12.00000

 Molecular mass:    51.02348 amu.
 Principal axes and moments of inertia in atomic units:
                           1         2         3
     Eigenvalues --    27.11356 395.62703 422.74059
           X           -0.08987   0.99595   0.00000
           Y            0.99595   0.08987   0.00000
           Z            0.00000   0.00000   1.00000
 This molecule is an asymmetric top.
 Rotational symmetry number  1.
 Rotational temperatures (Kelvin)      3.19448     0.21893     0.20489
 Rotational constants (GHZ):          66.56232     4.56172     4.26915
 Zero-point vibrational energy     101238.6 (Joules/Mol)
                                   24.19661 (Kcal/Mol)
 Warning -- explicit consideration of   4 degrees of freedom as
           vibrations may cause significant error
 Vibrational temperatures:    343.49   403.14   617.12   626.61   965.05
          (Kelvin)           1032.15  1257.08  1317.83  1348.73  1571.21
                             1892.76  2398.63  3294.50  3623.95  3660.12

 Zero-point correction=                           0.038560 (Hartree/Particle)
 Thermal correction to Energy=                    0.043326
 Thermal correction to Enthalpy=                  0.044270
 Thermal correction to Gibbs Free Energy=         0.011435
 Sum of electronic and zero-point Energies=           -152.198631
 Sum of electronic and thermal Energies=              -152.193864
 Sum of electronic and thermal Enthalpies=            -152.192920
 Sum of electronic and thermal Free Energies=         -152.225755

                     E (Thermal)             CV                S
                      KCal/Mol        Cal/Mol-Kelvin    Cal/Mol-Kelvin
 Total                   27.188             15.878             69.107
 Electronic               0.000              0.000              2.183
 Translational            0.889              2.981             37.712
 Rotational               0.889              2.981             23.032
 Vibrational             25.410              9.916              6.179
 Vibration     1          0.657              1.781              1.812
 Vibration     2          0.680              1.710              1.532
 Vibration     3          0.790              1.407              0.862
 Vibration     4          0.796              1.393              0.841

 Optimization completed.
    -- Stationary point found.
 Normal termination of Gaussian 09 at Tue Jul 19 13:19:03 2016.
