 Gaussian 09, Revision E.01,
 Gaussian 09:  EM64L-G09RevE.01 30-Nov-2015

 ---------------------------------------------
 #p b3lyp/6-311++G(3df,2p) freq symmetry=Loose
 ---------------------------------------------

 ---------
 b3lyp opt
 ---------
 Symbolic Z-matrix:
 Charge =  3 Multiplicity = 3

                         Standard orientation:
 ---------------------------------------------------------------------
 Center     Atomic      Atomic             Coordinates (Angstroms)
 Number     Number       Type             X           Y           Z
 ---------------------------------------------------------------------
      1          6           0       -0.756301    0.384533    0.000010
      2          1           0       -1.056656    1.033583    0.933375
      3          1           0       -1.056583    1.033775   -0.933246
      4          6           0       -1.928399   -0.570645   -0.000134
      5          6           0        0.617287    0.059617    0.000030
      6          6           0        1.914421   -0.159971    0.000058
      7          1           0        3.031189   -0.348557    0.000083
 ---------------------------------------------------------------------

 SCF Done:  E(UB3LYP) =  -152.201979892     A.U. after   20 cycles

 The electronic state is 3-A.
 Alpha  occ. eigenvalues --  -11.17628 -11.09540 -11.09438 -11.00314  -1.63274
 Alpha  occ. eigenvalues --   -1.56360  -1.40296  -1.27256  -1.23532  -1.21519
 Alpha  occ. eigenvalues --   -1.13033  -1.10017  -1.07626
 Alpha virt. eigenvalues --   -0.88991  -0.88050  -0.79906  -0.79267  -0.62158
 Alpha virt. eigenvalues --   -0.56703  -0.53437  -0.53410  -0.47855  -0.45550
 Alpha virt. eigenvalues --   -0.44099  -0.43602  -0.42662  -0.38950  -0.38422

  Beta  occ. eigenvalues --  -11.17096 -11.08227 -11.07931 -11.00283  -1.59925
  Beta  occ. eigenvalues --   -1.51915  -1.38510  -1.25436  -1.22464  -1.19319
  Beta  occ. eigenvalues --   -1.07368
  Beta virt. eigenvalues --   -0.96453  -0.96076  -0.88104  -0.86463  -0.74047
  Beta virt. eigenvalues --   -0.72289  -0.58975  -0.55917  -0.52380  -0.52154
  Beta virt. eigenvalues --   -0.47132  -0.44706  -0.43274  -0.42874  -0.41918

 Mulliken charges and spin densities:
               1          2
     1  C   -0.201288  -0.097333
     2  H    0.400941   0.048684
     3  H    0.400941   0.048684
     4  C    0.661725   0.271780
     5  C    0.474640   0.894965
     6  C    0.733650   0.858569
     7  H    0.529391  -0.025349
 Sum of Mulliken charges =   3.00000   2.00000

 Dipole moment (field-independent basis, Debye):
    X=              1.1615    Y=              0.3035    Z=              0.0001  Tot=              1.2005
 Quadrupole moment (field-independent basis, Debye-Ang):
   XX=             29.8312   YY=            -11.9534   ZZ=            -13.7583
   XY=             -2.7103   XZ=              0.0014   YZ=              0.0001

  Exact polarizability:  87.299   2.897  25.835   0.003   0.001  22.184
 Approx polarizability: 175.814  17.080  45.772   0.007   0.002  34.011

                      1                      2                      3
                      A                      A                      A
 Frequencies --    228.3520               305.3934               472.9428
 Red. masses --      4.8921                 2.4143                 5.0447
 Frc consts  --      0.1503                 0.1327                 0.6648
 IR Inten    --     10.3431                31.7163                18.0849

                      4                      5                      6
                      A                      A                      A
 Frequencies --    596.8400               672.2154               694.6443
 Red. masses --      1.8828                 3.3241                 1.3334
 Frc consts  --      0.3952                 0.8850                 0.3791
 IR Inten    --      8.4618                37.9246                24.9827

                      7                      8                      9
                      A                      A                      A
 Frequencies --    704.1226               865.8134               950.1796
 Red. masses --      1.3430                 2.3924                 1.1355
 Frc consts  --      0.3923                 1.0567                 0.6040
 IR Inten    --     17.0792                35.3527                 2.0167

                     10                     11                     12
                      A                      A                      A
 Frequencies --   1027.7282              1179.1331              1752.2973
 Red. masses --      1.3031                 1.7747                 6.1314
 Frc consts  --      0.8109                 1.4538                11.0924
 IR Inten    --    281.9350               412.4905               370.8862

                     13                     14                     15
                      A                      A                      A
 Frequencies --   2304.1366              2323.6264              2788.0436
 Red. masses --      1.0895                 1.0535                 1.1694
 Frc consts  --      3.4079                 3.3514                 5.3558
 IR Inten    --    536.9802               731.6782               718.9493

 - Thermochemistry -
 -------------------
 Temperature   298.150 Kelvin.  Pressure   1.00000 Atm.
 Atom     1 has atomic number  6 and mass  12.00000

 Molecular mass:    51.02348 amu.
 Principal axes and moments of inertia in atomic units:
                           1         2         3
     Eigenvalues --    35.38406 404.92017 427.76430
           X            0.99953  -0.03079  -0.00004
           Y            0.03079   0.99953  -0.00010
           Z            0.00004   0.00010   1.00000
 This molecule is an asymmetric top.
 Rotational symmetry number  1.
 Rotational temperatures (Kelvin)      2.44782     0.21390     0.20248
 Rotational constants (GHZ):          51.00435     4.45703     4.21901
 Zero-point vibrational energy     100877.9 (Joules/Mol)
                                   24.11040 (Kcal/Mol)
 Warning -- explicit consideration of   4 degrees of freedom as
           vibrations may cause significant error
 Vibrational temperatures:    328.55   439.39   680.46   858.72   967.17
          (Kelvin)            999.44  1013.07  1245.71  1367.09  1478.67
                             1696.51  2521.16  3315.13  3343.18  4011.37

 Zero-point correction=                           0.038422 (Hartree/Particle)
 Thermal correction to Energy=                    0.043102
 Thermal correction to Enthalpy=                  0.044046
 Thermal correction to Gibbs Free Energy=         0.011237
 Sum of electronic and zero-point Energies=           -152.163558
 Sum of electronic and thermal Energies=              -152.158878
 Sum of electronic and thermal Enthalpies=            -152.157934
 Sum of electronic and thermal Free Energies=         -152.190743

                     E (Thermal)             CV                S
                      KCal/Mol        Cal/Mol-Kelvin    Cal/Mol-Kelvin
 Total                   27.047             15.904             69.053
 Electronic               0.000              0.000              2.183
 Translational            0.889              2.981             37.712
 Rotational               0.889              2.981             23.331
 Vibrational             25.270              9.942              5.826
 Vibration     1          0.651              1.798              1.892
 Vibration     2          0.696              1.663              1.387
 Vibration     3          0.830              1.310              0.729
 Vibration     4          0.955              1.039              0.455

 Optimization completed.
    -- Stationary point found.
 Normal termination of Gaussian 09 at Tue Jul 19 14:07:12 2016.
