 Gaussian 09, Revision E.01,
 Gaussian 09:  EM64L-G09RevE.01 30-Nov-2015

 ---------------------------------------------
 #p b3lyp/6-311++G(3df,2p) freq symmetry=Loose
 ---------------------------------------------

 ---------
 b3lyp opt
 ---------
 Symbolic Z-matrix:
 Charge =  0 Multiplicity = 2

                         Standard orientation:
 ---------------------------------------------------------------------
 Center     Atomic      Atomic             Coordinates (Angstroms)
 Number     Number       Type             X           Y           Z
 ---------------------------------------------------------------------
      1          6           0       -0.000020   -0.958420    0.268238
      2          6           0       -1.044648   -0.082281   -0.177999
      3          6           0       -0.000002    0.864722    0.024604
      4          1           0       -0.000052    1.714359    0.707009
      5          6           0        1.044675   -0.082281   -0.177845
      6          1           0        2.119923   -0.082397   -0.164343
      7          1           0       -2.119898   -0.082397   -0.164656
 ---------------------------------------------------------------------

 SCF Done:  E(UB3LYP) =  -154.061491747     A.U. after   15 cycles

 The electronic state is 2-A.
 Alpha  occ. eigenvalues --  -10.23586 -10.21571 -10.21566 -10.20719  -0.93797
 Alpha  occ. eigenvalues --   -0.68719  -0.62575  -0.55511  -0.47550  -0.42586
 Alpha  occ. eigenvalues --   -0.40270  -0.38133  -0.22947  -0.22064
 Alpha virt. eigenvalues --   -0.05137  -0.01101   0.00401   0.01069   0.01918
 Alpha virt. eigenvalues --    0.04332   0.06626   0.07324   0.08868   0.09270
 Alpha virt. eigenvalues --    0.09545   0.10314   0.11364   0.12490   0.12506

  Beta  occ. eigenvalues --  -10.23771 -10.20885 -10.20598 -10.20592  -0.92853
  Beta  occ. eigenvalues --   -0.66317  -0.62617  -0.54216  -0.46657  -0.41997
  Beta  occ. eigenvalues --   -0.39621  -0.35663  -0.23050
  Beta virt. eigenvalues --   -0.09596  -0.05213  -0.00579   0.01159   0.01851
  Beta virt. eigenvalues --    0.02150   0.04412   0.06990   0.07327   0.09417
  Beta virt. eigenvalues --    0.09621   0.09817   0.10489   0.11383   0.12733

 Mulliken charges and spin densities:
               1          2
     1  C   -0.195623  -0.145227
     2  C   -0.137149   0.654384
     3  C   -0.086568  -0.159765
     4  H    0.156071   0.006174
     5  C   -0.137152   0.654384
     6  H    0.200210  -0.004975
     7  H    0.200210  -0.004975
 Sum of Mulliken charges =  -0.00000   1.00000

 Dipole moment (field-independent basis, Debye):
    X=              0.0000    Y=              2.2003    Z=             -0.4185  Tot=              2.2397
 Quadrupole moment (field-independent basis, Debye-Ang):
   XX=            -19.5705   YY=            -26.1838   ZZ=            -26.0607
   XY=             -0.0002   XZ=              0.0005   YZ=              2.7941

  Exact polarizability:  52.201   0.000  52.462   0.001  -2.844  33.866
 Approx polarizability:  81.116   0.001  98.294   0.002  -6.828  49.070

                      1                      2                      3
                      A                      A                      A
 Frequencies --    523.6107               556.8792               619.5723
 Red. masses --      1.5564                 2.9083                 1.4068
 Frc consts  --      0.2514                 0.5314                 0.3182
 IR Inten    --     19.9950                20.7723                49.4454

                      4                      5                      6
                      A                      A                      A
 Frequencies --    728.4532               824.3481               934.7601
 Red. masses --      2.2165                 3.8863                 2.4420
 Frc consts  --      0.6930                 1.5560                 1.2572
 IR Inten    --     77.0988                15.6363                30.8656

                      7                      8                      9
                      A                      A                      A
 Frequencies --   1014.5980              1032.0936              1097.7709
 Red. masses --      1.3943                 1.3814                 1.4923
 Frc consts  --      0.8457                 0.8670                 1.0595
 IR Inten    --      6.8367                 7.2055                 1.3758

                     10                     11                     12
                      A                      A                      A
 Frequencies --   1258.8837              1308.0262              1314.4790
 Red. masses --      2.5509                 2.2212                 4.8033
 Frc consts  --      2.3819                 2.2390                 4.8899
 IR Inten    --      8.5450                 2.8765                 4.5369

                     13                     14                     15
                      A                      A                      A
 Frequencies --   3078.5679              3259.8484              3264.3706
 Red. masses --      1.0905                 1.0947                 1.1035
 Frc consts  --      6.0893                 6.8542                 6.9282
 IR Inten    --     21.4238                 0.7089                 0.0046

 - Thermochemistry -
 -------------------
 Temperature   298.150 Kelvin.  Pressure   1.00000 Atm.
 Atom     1 has atomic number  6 and mass  12.00000

 Molecular mass:    51.02348 amu.
 Principal axes and moments of inertia in atomic units:
                           1         2         3
     Eigenvalues --    90.25373 133.42424 208.58954
           X            1.00000   0.00000  -0.00007
           Y           -0.00000   0.99825   0.05905
           Z            0.00007  -0.05905   0.99825
 This molecule is an asymmetric top.
 Rotational symmetry number  1.
 Rotational temperatures (Kelvin)      0.95967     0.64916     0.41524
 Rotational constants (GHZ):          19.99631    13.52634     8.65212
 Zero-point vibrational energy     124508.9 (Joules/Mol)
                                   29.75834 (Kcal/Mol)
 Warning -- explicit consideration of   3 degrees of freedom as
           vibrations may cause significant error
 Vibrational temperatures:    753.36   801.22   891.43  1048.08  1186.05
          (Kelvin)           1344.91  1459.78  1484.95  1579.45  1811.25
                             1881.96  1891.24  4429.37  4690.19  4696.70

 Zero-point correction=                           0.047423 (Hartree/Particle)
 Thermal correction to Energy=                    0.051145
 Thermal correction to Enthalpy=                  0.052090
 Thermal correction to Gibbs Free Energy=         0.021688
 Sum of electronic and zero-point Energies=           -154.014069
 Sum of electronic and thermal Energies=              -154.010346
 Sum of electronic and thermal Enthalpies=            -154.009402
 Sum of electronic and thermal Free Energies=         -154.039804

                     E (Thermal)             CV                S
                      KCal/Mol        Cal/Mol-Kelvin    Cal/Mol-Kelvin
 Total                   32.094             12.558             63.986
 Electronic               0.000              0.000              1.377
 Translational            0.889              2.981             37.712
 Rotational               0.889              2.981             22.445
 Vibrational             30.317              6.596              2.451
 Vibration     1          0.879              1.198              0.602
 Vibration     2          0.912              1.125              0.530
 Vibration     3          0.980              0.991              0.417

 Optimization completed.
    -- Stationary point found.
 Normal termination of Gaussian 09 at Tue Jul 19 09:51:51 2016.
