 Gaussian 09, Revision E.01,
 Gaussian 09:  EM64L-G09RevE.01 30-Nov-2015

 ---------------------------------------------
 #p b3lyp/6-311++G(3df,2p) freq symmetry=Loose
 ---------------------------------------------

 ---------
 b3lyp opt
 ---------
 Symbolic Z-matrix:
 Charge =  3 Multiplicity = 3

                         Standard orientation:
 ---------------------------------------------------------------------
 Center     Atomic      Atomic             Coordinates (Angstroms)
 Number     Number       Type             X           Y           Z
 ---------------------------------------------------------------------
      1          6           0        1.364570    1.075249   -0.000000
      2          1           0        1.894034    1.319415    0.973678
      3          1           0        1.894034    1.319415   -0.973678
      4          6           0       -0.000000    0.597342   -0.000000
      5          1           0       -0.738524    1.495538   -0.000000
      6          6           0       -0.601269   -0.623577    0.000000
      7          6           0       -1.271558   -1.738076    0.000000
 ---------------------------------------------------------------------

 SCF Done:  E(UB3LYP) =  -152.241444604     A.U. after   15 cycles

 The electronic state is 3-A'.
 Alpha  occ. eigenvalues --  -11.15343 -11.06814 -11.06528 -11.06274  -1.63089
 Alpha  occ. eigenvalues --   -1.56151  -1.43676  -1.27235  -1.22388  -1.19070
 Alpha  occ. eigenvalues --   -1.17923  -1.11331  -1.10979
 Alpha virt. eigenvalues --   -0.91263  -0.87896  -0.80266  -0.70662  -0.57815
 Alpha virt. eigenvalues --   -0.53968  -0.52499  -0.47917  -0.46131  -0.44040
 Alpha virt. eigenvalues --   -0.43666  -0.43042  -0.41239  -0.41115  -0.37285

  Beta  occ. eigenvalues --  -11.11657 -11.06731 -11.06217 -11.05922  -1.61159
  Beta  occ. eigenvalues --   -1.52214  -1.42511  -1.26556  -1.21218  -1.19461
  Beta  occ. eigenvalues --   -1.09323
  Beta virt. eigenvalues --   -0.95178  -0.91758  -0.88969  -0.87511  -0.70519
  Beta virt. eigenvalues --   -0.67358  -0.56830  -0.53881  -0.51529  -0.47946
  Beta virt. eigenvalues --   -0.45446  -0.43163  -0.42983  -0.42932  -0.41271

 Mulliken charges and spin densities:
               1          2
     1  C    0.167673   0.035062
     2  H    0.379527  -0.007054
     3  H    0.379527  -0.007054
     4  C    0.033932  -0.124644
     5  H    0.343847   0.030711
     6  C    0.980474   0.547940
     7  C    0.715020   1.525038
 Sum of Mulliken charges =   3.00000   2.00000

 Dipole moment (field-independent basis, Debye):
    X=              0.9417    Y=              0.9247    Z=              0.0000  Tot=              1.3198
 Quadrupole moment (field-independent basis, Debye-Ang):
   XX=              8.3337   YY=             11.5103   ZZ=            -14.3129
   XY=             20.1661   XZ=              0.0000   YZ=              0.0000

  Exact polarizability:  38.153  18.545  44.112  -0.000  -0.000  19.881
 Approx polarizability:  62.907  38.967  86.472   0.000   0.000  26.958

                      1                      2                      3
                     A'                     A"                     A"
 Frequencies --    236.3946               271.3264               482.8405
 Red. masses --      4.7819                 3.2597                 1.5448
 Frc consts  --      0.1574                 0.1414                 0.2122
 IR Inten    --     11.8872                25.8000                 0.0002

                      4                      5                      6
                     A'                     A"                     A'
 Frequencies --    501.8350               680.6341               780.3678
 Red. masses --      4.8060                 1.0735                 4.2862
 Frc consts  --      0.7131                 0.2930                 1.5379
 IR Inten    --      4.1358                36.3525                13.3414

                      7                      8                      9
                     A"                     A'                     A'
 Frequencies --    949.7096               967.7546              1140.9155
 Red. masses --      1.7112                 1.4505                 1.6764
 Frc consts  --      0.9094                 0.8004                 1.2857
 IR Inten    --      4.9744                20.3213                14.0850

                     10                     11                     12
                     A'                     A'                     A'
 Frequencies --   1237.8745              1328.6696              1785.3268
 Red. masses --      1.2195                 2.3769                11.1040
 Frc consts  --      1.1010                 2.4722                20.8529
 IR Inten    --     80.8734                81.2910               424.8673

                     13                     14                     15
                     A'                     A'                     A"
 Frequencies --   2423.3296              2648.3377              2738.5342
 Red. masses --      1.0729                 1.0433                 1.1213
 Frc consts  --      3.7121                 4.3113                 4.9546
 IR Inten    --    620.4339               806.7800               414.3722

 - Thermochemistry -
 -------------------
 Temperature   298.150 Kelvin.  Pressure   1.00000 Atm.
 Atom     1 has atomic number  6 and mass  12.00000

 Molecular mass:    51.02348 amu.
 Principal axes and moments of inertia in atomic units:
                           1         2         3
     Eigenvalues --    30.06962 405.65164 422.07311
           X            0.66975   0.74259   0.00000
           Y            0.74259  -0.66975   0.00000
           Z            0.00000   0.00000   1.00000
 This molecule is an asymmetric top.
 Rotational symmetry number  1.
 Rotational temperatures (Kelvin)      2.88044     0.21352     0.20521
 Rotational constants (GHZ):          60.01876     4.44899     4.27590
 Zero-point vibrational energy     108703.8 (Joules/Mol)
                                   25.98082 (Kcal/Mol)
 Warning -- explicit consideration of   4 degrees of freedom as
           vibrations may cause significant error
 Vibrational temperatures:    340.12   390.38   694.70   722.03   979.28
          (Kelvin)           1122.77  1366.42  1392.38  1641.52  1781.02
                             1911.66  2568.68  3486.63  3810.36  3940.14

 Zero-point correction=                           0.041403 (Hartree/Particle)
 Thermal correction to Energy=                    0.045997
 Thermal correction to Enthalpy=                  0.046941
 Thermal correction to Gibbs Free Energy=         0.014291
 Sum of electronic and zero-point Energies=           -152.200042
 Sum of electronic and thermal Energies=              -152.195447
 Sum of electronic and thermal Enthalpies=            -152.194503
 Sum of electronic and thermal Free Energies=         -152.227153

                     E (Thermal)             CV                S
                      KCal/Mol        Cal/Mol-Kelvin    Cal/Mol-Kelvin
 Total                   28.864             15.000             68.718
 Electronic               0.000              0.000              2.183
 Translational            0.889              2.981             37.712
 Rotational               0.889              2.981             23.158
 Vibrational             27.086              9.038              5.664
 Vibration     1          0.655              1.785              1.830
 Vibration     2          0.675              1.726              1.588
 Vibration     3          0.839              1.288              0.702
 Vibration     4          0.857              1.246              0.654

 Optimization completed.
    -- Stationary point found.
 Normal termination of Gaussian 09 at Tue Jul 19 13:59:23 2016.
