 Gaussian 09, Revision E.01,
 Gaussian 09:  EM64L-G09RevE.01 30-Nov-2015

 ---------------------------------------------
 #p b3lyp/6-311++G(3df,2p) freq symmetry=Loose
 ---------------------------------------------

 ---------
 b3lyp opt
 ---------
 Symbolic Z-matrix:
 Charge =  0 Multiplicity = 2

                         Standard orientation:
 ---------------------------------------------------------------------
 Center     Atomic      Atomic             Coordinates (Angstroms)
 Number     Number       Type             X           Y           Z
 ---------------------------------------------------------------------
      1          6           0        1.084816   -0.085763    0.094862
      2          6           0       -0.181385   -0.771863   -0.291873
      3          6           0       -1.269839   -0.155447    0.183351
      4          1           0        1.452034   -0.312279    1.088134
      5          1           0        1.867107    0.035270   -0.649122
      6          6           0       -0.149152    0.775088    0.028759
      7          1           0       -0.225782    1.704919   -0.529609
 ---------------------------------------------------------------------

 SCF Done:  E(UB3LYP) =  -154.039101542     A.U. after   16 cycles

 The electronic state is 2-A.
 Alpha  occ. eigenvalues --  -10.26020 -10.24282 -10.23876 -10.20051  -0.97115
 Alpha  occ. eigenvalues --   -0.72809  -0.62613  -0.53100  -0.50915  -0.43934
 Alpha  occ. eigenvalues --   -0.39796  -0.35068  -0.27347  -0.24195
 Alpha virt. eigenvalues --   -0.04040  -0.01799  -0.00416   0.00880   0.02070
 Alpha virt. eigenvalues --    0.03797   0.06809   0.06919   0.07777   0.08272
 Alpha virt. eigenvalues --    0.09163   0.11435   0.11671   0.12495   0.13294

  Beta  occ. eigenvalues --  -10.25380 -10.23816 -10.23295 -10.19852  -0.96283
  Beta  occ. eigenvalues --   -0.72553  -0.60927  -0.52496  -0.49322  -0.41921
  Beta  occ. eigenvalues --   -0.39049  -0.33374  -0.25776
  Beta virt. eigenvalues --   -0.12725  -0.02769  -0.00894   0.00134   0.01160
  Beta virt. eigenvalues --    0.02278   0.04040   0.06876   0.07020   0.07998
  Beta virt. eigenvalues --    0.08333   0.09695   0.11620   0.11868   0.12563

 Mulliken charges and spin densities:
               1          2
     1  C   -0.415370  -0.017000
     2  C    0.304549   0.581724
     3  C   -0.516064   0.000596
     4  H    0.189342  -0.001069
     5  H    0.132405   0.006173
     6  C    0.133944   0.396563
     7  H    0.171194   0.033013
 Sum of Mulliken charges =  -0.00000   1.00000

 Dipole moment (field-independent basis, Debye):
    X=              3.4996    Y=              1.0609    Z=             -0.2814  Tot=              3.6677
 Quadrupole moment (field-independent basis, Debye-Ang):
   XX=            -27.9640   YY=            -23.3287   ZZ=            -23.8932
   XY=             -0.7369   XZ=              0.7917   YZ=             -1.4335

  Exact polarizability:  53.617   0.847  42.916  -2.305   1.168  34.840
 Approx polarizability:  80.469   1.022  75.355  -5.704   5.500  51.845

                      1                      2                      3
                      A                      A                      A
 Frequencies --    421.2342               660.7062               735.3771
 Red. masses --      3.9869                 4.5255                 2.6176
 Frc consts  --      0.4168                 1.1640                 0.8340
 IR Inten    --     21.1067                19.1254                 3.5105

                      4                      5                      6
                      A                      A                      A
 Frequencies --    811.2110               911.9726              1019.6626
 Red. masses --      4.7322                 1.6864                 1.3820
 Frc consts  --      1.8348                 0.8264                 0.8466
 IR Inten    --     12.7773                 5.3913                 4.0806

                      7                      8                      9
                      A                      A                      A
 Frequencies --   1043.2784              1086.1062              1171.0543
 Red. masses --      1.2494                 1.2689                 1.3589
 Frc consts  --      0.8012                 0.8819                 1.0980
 IR Inten    --      6.1241                17.7977                 8.7049

                     10                     11                     12
                      A                      A                      A
 Frequencies --   1184.5573              1452.2870              1513.9343
 Red. masses --      3.5163                 4.8221                 1.2886
 Frc consts  --      2.9071                 5.9923                 1.7402
 IR Inten    --      3.3964                 7.3846                 2.4888

                     13                     14                     15
                      A                      A                      A
 Frequencies --   3089.0698              3100.5865              3170.5359
 Red. masses --      1.0561                 1.0894                 1.1134
 Frc consts  --      5.9376                 6.1704                 6.5945
 IR Inten    --     18.4848                 4.6601                 4.8027

 - Thermochemistry -
 -------------------
 Temperature   298.150 Kelvin.  Pressure   1.00000 Atm.
 Atom     1 has atomic number  6 and mass  12.00000

 Molecular mass:    51.02348 amu.
 Principal axes and moments of inertia in atomic units:
                           1         2         3
     Eigenvalues --    75.50628 153.52455 205.27493
           X            0.99947  -0.02915   0.01477
           Y            0.03034   0.99568  -0.08773
           Z           -0.01215   0.08813   0.99603
 This molecule is an asymmetric top.
 Rotational symmetry number  1.
 Rotational temperatures (Kelvin)      1.14711     0.56417     0.42194
 Rotational constants (GHZ):          23.90187    11.75539     8.79182
 Zero-point vibrational energy     127830.4 (Joules/Mol)
                                   30.55220 (Kcal/Mol)
 Warning -- explicit consideration of   1 degrees of freedom as
           vibrations may cause significant error
 Vibrational temperatures:    606.06   950.61  1058.04  1167.15  1312.12
          (Kelvin)           1467.07  1501.04  1562.66  1684.88  1704.31
                             2089.51  2178.21  4444.48  4461.05  4561.69

 Zero-point correction=                           0.048688 (Hartree/Particle)
 Thermal correction to Energy=                    0.052304
 Thermal correction to Enthalpy=                  0.053248
 Thermal correction to Gibbs Free Energy=         0.022997
 Sum of electronic and zero-point Energies=           -153.990414
 Sum of electronic and thermal Energies=              -153.986797
 Sum of electronic and thermal Enthalpies=            -153.985853
 Sum of electronic and thermal Free Energies=         -154.016105

                     E (Thermal)             CV                S
                      KCal/Mol        Cal/Mol-Kelvin    Cal/Mol-Kelvin
 Total                   32.821             11.752             63.671
 Electronic               0.000              0.000              1.377
 Translational            0.889              2.981             37.712
 Rotational               0.889              2.981             22.391
 Vibrational             31.044              5.790              2.189
 Vibration     1          0.784              1.424              0.888

 Optimization completed.
    -- Stationary point found.
 Normal termination of Gaussian 09 at Sun Jun 19 05:44:18 2016.
