 Gaussian 09, Revision E.01,
 Gaussian 09:  EM64L-G09RevE.01 30-Nov-2015

 ---------------------------------------------
 #p b3lyp/6-311++G(3df,2p) freq symmetry=Loose
 ---------------------------------------------

 ---------
 b3lyp opt
 ---------
 Symbolic Z-matrix:
 Charge =  2 Multiplicity = 4

                         Standard orientation:
 ---------------------------------------------------------------------
 Center     Atomic      Atomic             Coordinates (Angstroms)
 Number     Number       Type             X           Y           Z
 ---------------------------------------------------------------------
      1          6           0        0.333854   -1.098687    0.667437
      2          6           0        0.333854   -1.098687   -0.667437
      3          6           0        0.333854    0.332991   -0.000000
      4          1           0        1.348276    0.797356   -0.000000
      5          6           0       -0.812324    1.211312    0.000000
      6          1           0       -1.836948    0.827151    0.000000
      7          1           0       -0.646760    2.293922   -0.000000
 ---------------------------------------------------------------------

 SCF Done:  E(UB3LYP) =  -153.023543591     A.U. after   14 cycles

 The electronic state is 4-A".
 Alpha  occ. eigenvalues --  -10.86128 -10.86041 -10.78506 -10.78301  -1.47504
 Alpha  occ. eigenvalues --   -1.28043  -1.10494  -1.04015  -1.00968  -0.97546
 Alpha  occ. eigenvalues --   -0.91527  -0.88580  -0.85620  -0.82790
 Alpha virt. eigenvalues --   -0.63692  -0.57695  -0.40079  -0.37351  -0.35616
 Alpha virt. eigenvalues --   -0.32882  -0.29525  -0.28297  -0.27388  -0.25884
 Alpha virt. eigenvalues --   -0.23292  -0.22006  -0.21674  -0.21027  -0.20142

  Beta  occ. eigenvalues --  -10.83638 -10.83573 -10.78106 -10.77789  -1.43419
  Beta  occ. eigenvalues --   -1.24972  -1.07835  -0.98639  -0.95219  -0.95079
  Beta  occ. eigenvalues --   -0.89130
  Beta virt. eigenvalues --   -0.71669  -0.69068  -0.69061  -0.58093  -0.48295
  Beta virt. eigenvalues --   -0.35379  -0.35365  -0.34833  -0.32105  -0.28718
  Beta virt. eigenvalues --   -0.27481  -0.26256  -0.25447  -0.23019  -0.20998

 Mulliken charges and spin densities:
               1          2
     1  C    0.491558   1.276038
     2  C    0.491558   1.276038
     3  C    0.326531   0.020478
     4  H    0.314814   0.067858
     5  C   -0.235770   0.366148
     6  H    0.319922  -0.007553
     7  H    0.291387   0.000991
 Sum of Mulliken charges =   2.00000   3.00000

 Dipole moment (field-independent basis, Debye):
    X=             -0.5674    Y=              1.1054    Z=             -0.0000  Tot=              1.2425
 Quadrupole moment (field-independent basis, Debye-Ang):
   XX=            -10.5831   YY=             -2.8076   ZZ=            -16.2223
   XY=             -5.1299   XZ=             -0.0000   YZ=             -0.0000

  Exact polarizability:  29.857  -8.895  47.389  -0.000   0.000  27.480
 Approx polarizability:  43.740 -14.554  80.427  -0.000   0.000  54.389

                      1                      2                      3
                     A"                     A"                     A'
 Frequencies --    208.0081               291.7181               339.9622
 Red. masses --      1.3288                 2.7871                 3.8068
 Frc consts  --      0.0339                 0.1397                 0.2592
 IR Inten    --      3.9101                 4.9978                 4.2335

                      4                      5                      6
                     A"                     A'                     A"
 Frequencies --    420.4193               733.0414               914.5683
 Red. masses --     10.8357                 5.9762                 1.1888
 Frc consts  --      1.1284                 1.8921                 0.5859
 IR Inten    --     24.5679                23.1478                55.0164

                      7                      8                      9
                     A'                     A'                     A"
 Frequencies --    981.4741              1146.1621              1160.6550
 Red. masses --      1.2044                 4.5940                 1.3762
 Frc consts  --      0.6835                 3.5557                 1.0923
 IR Inten    --      0.5321               187.8925                 6.0208

                     10                     11                     12
                     A'                     A'                     A'
 Frequencies --   1224.7443              1459.7506              1550.8238
 Red. masses --      1.2334                 1.1557                10.4968
 Frc consts  --      1.0900                 1.4509                14.8741
 IR Inten    --     46.5239                10.2727                 2.3710

                     13                     14                     15
                     A'                     A'                     A'
 Frequencies --   2805.3419              3039.2037              3158.1365
 Red. masses --      1.0754                 1.0543                 1.1270
 Frc consts  --      4.9865                 5.7376                 6.6230
 IR Inten    --    218.2964               123.6608               110.8056

 - Thermochemistry -
 -------------------
 Temperature   298.150 Kelvin.  Pressure   1.00000 Atm.
 Atom     1 has atomic number  6 and mass  12.00000

 Molecular mass:    51.02348 amu.
 Principal axes and moments of inertia in atomic units:
                           1         2         3
     Eigenvalues --    66.45926 256.42541 266.32505
           X           -0.41505   0.00000   0.90980
           Y            0.90980   0.00000   0.41505
           Z           -0.00000   1.00000  -0.00000
 This molecule is an asymmetric top.
 Rotational symmetry number  1.
 Rotational temperatures (Kelvin)      1.30326     0.33777     0.32522
 Rotational constants (GHZ):          27.15560     7.03807     6.77646
 Zero-point vibrational energy     116241.2 (Joules/Mol)
                                   27.78231 (Kcal/Mol)
 Warning -- explicit consideration of   4 degrees of freedom as
           vibrations may cause significant error
 Vibrational temperatures:    299.28   419.72   489.13   604.89  1054.68
          (Kelvin)           1315.86  1412.12  1649.07  1669.92  1762.13
                             2100.25  2231.29  4036.26  4372.73  4543.85

 Zero-point correction=                           0.044274 (Hartree/Particle)
 Thermal correction to Energy=                    0.049004
 Thermal correction to Enthalpy=                  0.049948
 Thermal correction to Gibbs Free Energy=         0.016788
 Sum of electronic and zero-point Energies=           -152.979270
 Sum of electronic and thermal Energies=              -152.974540
 Sum of electronic and thermal Enthalpies=            -152.973595
 Sum of electronic and thermal Free Energies=         -153.006755

                     E (Thermal)             CV                S
                      KCal/Mol        Cal/Mol-Kelvin    Cal/Mol-Kelvin
 Total                   30.750             14.960             69.791
 Electronic               0.000              0.000              2.755
 Translational            0.889              2.981             37.712
 Rotational               0.889              2.981             23.033
 Vibrational             28.973              8.998              6.291
 Vibration     1          0.641              1.828              2.061
 Vibration     2          0.687              1.689              1.464
 Vibration     3          0.720              1.596              1.212
 Vibration     4          0.783              1.426              0.891

 Optimization completed.
    -- Stationary point found.
 Normal termination of Gaussian 09 at Tue Jul 19 11:04:22 2016.
