 Gaussian 09, Revision E.01,
 Gaussian 09:  EM64L-G09RevE.01 30-Nov-2015

 ---------------------------------------------
 #p b3lyp/6-311++G(3df,2p) freq symmetry=Loose
 ---------------------------------------------

 ---------
 b3lyp opt
 ---------
 Symbolic Z-matrix:
 Charge =  1 Multiplicity = 1

                         Standard orientation:
 ---------------------------------------------------------------------
 Center     Atomic      Atomic             Coordinates (Angstroms)
 Number     Number       Type             X           Y           Z
 ---------------------------------------------------------------------
      1          6           0        1.166319   -0.000000    0.000138
      2          1           0        1.747800    0.000119   -0.917856
      3          1           0        1.747584   -0.000119    0.918269
      4          6           0       -0.089624    0.779791    0.000090
      5          6           0       -1.191441    0.000000   -0.000141
      6          1           0       -2.269165    0.000000   -0.000268
      7          6           0       -0.089624   -0.779791   -0.000112
 ---------------------------------------------------------------------

 SCF Done:  E(RB3LYP) =  -153.801229994     A.U. after   10 cycles

 The electronic state is 1-A.
 Alpha  occ. eigenvalues --  -10.53761 -10.53742 -10.51434 -10.49846  -1.27059
 Alpha  occ. eigenvalues --   -1.01190  -0.83037  -0.81882  -0.75193  -0.73108
 Alpha  occ. eigenvalues --   -0.68065  -0.61407  -0.55948
 Alpha virt. eigenvalues --   -0.33536  -0.28993  -0.27330  -0.16587  -0.13724
 Alpha virt. eigenvalues --   -0.13395  -0.12486  -0.11953  -0.08755  -0.07894
 Alpha virt. eigenvalues --   -0.07343  -0.04967  -0.04455  -0.03297  -0.02412

 Mulliken charges:
               1
     1  C   -0.392752
     2  H    0.245448
     3  H    0.245449
     4  C    0.215911
     5  C    0.143217
     6  H    0.326815
     7  C    0.215911
 Sum of Mulliken charges =   1.00000

 Dipole moment (field-independent basis, Debye):
    X=             -0.0842    Y=             -0.0000    Z=             -0.0000  Tot=              0.0842
 Quadrupole moment (field-independent basis, Debye-Ang):
   XX=             -8.6354   YY=            -22.1855   ZZ=            -19.3431
   XY=             -0.0000   XZ=              0.0013   YZ=             -0.0004

  Exact polarizability:  41.330  -0.000  34.111   0.002   0.001  23.935
 Approx polarizability:  63.874  -0.000  78.860   0.003   0.006  36.025

                      1                      2                      3
                      A                      A                      A
 Frequencies --    454.6169               585.6021               823.1182
 Red. masses --      2.6392                 5.3484                 1.2754
 Frc consts  --      0.3214                 1.0806                 0.5091
 IR Inten    --      5.8974                77.9741                20.3948

                      4                      5                      6
                      A                      A                      A
 Frequencies --    865.5711              1023.0278              1047.1981
 Red. masses --      9.1242                 1.1143                 1.3718
 Frc consts  --      4.0276                 0.6871                 0.8864
 IR Inten    --      2.6737                 0.0000                 1.9355

                      7                      8                      9
                      A                      A                      A
 Frequencies --   1052.0598              1125.8063              1174.0330
 Red. masses --      1.4420                 1.6811                 2.4264
 Frc consts  --      0.9404                 1.2553                 1.9705
 IR Inten    --      0.9791                17.5388                 1.6096

                     10                     11                     12
                      A                      A                      A
 Frequencies --   1187.3141              1462.9931              1654.5591
 Red. masses --      5.1893                 1.1406                 6.3551
 Frc consts  --      4.3102                 1.4383                10.2503
 IR Inten    --      9.3253                10.0799                35.3545

                     13                     14                     15
                      A                      A                      A
 Frequencies --   3101.8204              3184.1104              3283.5103
 Red. masses --      1.0556                 1.1186                 1.1247
 Frc consts  --      5.9839                 6.6821                 7.1445
 IR Inten    --     42.7432                45.1534                92.7444

 - Thermochemistry -
 -------------------
 Temperature   298.150 Kelvin.  Pressure   1.00000 Atm.
 Atom     1 has atomic number  6 and mass  12.00000

 Molecular mass:    51.02348 amu.
 Principal axes and moments of inertia in atomic units:
                           1         2         3
     Eigenvalues --    58.18216 166.29262 212.34124
           X            1.00000  -0.00000  -0.00012
           Y           -0.00000   1.00000  -0.00013
           Z            0.00012   0.00013   1.00000
 This molecule is an asymmetric top.
 Rotational symmetry number  1.
 Rotational temperatures (Kelvin)      1.48867     0.52085     0.40790
 Rotational constants (GHZ):          31.01881    10.85280     8.49925
 Zero-point vibrational energy     131740.8 (Joules/Mol)
                                   31.48680 (Kcal/Mol)
 Warning -- explicit consideration of   2 degrees of freedom as
           vibrations may cause significant error
 Vibrational temperatures:    654.09   842.55  1184.28  1245.36  1471.91
          (Kelvin)           1506.68  1513.68  1619.78  1689.17  1708.28
                             2104.92  2380.54  4462.82  4581.22  4724.23

 Zero-point correction=                           0.050177 (Hartree/Particle)
 Thermal correction to Energy=                    0.053733
 Thermal correction to Enthalpy=                  0.054677
 Thermal correction to Gibbs Free Energy=         0.025234
 Sum of electronic and zero-point Energies=           -153.751053
 Sum of electronic and thermal Energies=              -153.747497
 Sum of electronic and thermal Enthalpies=            -153.746553
 Sum of electronic and thermal Free Energies=         -153.775996

                     E (Thermal)             CV                S
                      KCal/Mol        Cal/Mol-Kelvin    Cal/Mol-Kelvin
 Total                   33.718             11.365             61.968
 Electronic               0.000              0.000              0.000
 Translational            0.889              2.981             37.712
 Rotational               0.889              2.981             22.245
 Vibrational             31.940              5.403              2.010
 Vibration     1          0.813              1.351              0.782
 Vibration     2          0.943              1.063              0.475

 Optimization completed.
    -- Stationary point found.
 Normal termination of Gaussian 09 at Tue Jul 19 13:38:49 2016.
