 Gaussian 09, Revision E.01,
 Gaussian 09:  EM64L-G09RevE.01 30-Nov-2015

 ------------------------------------------------------
 #p b3lyp/6-311++G(3df,2p) freq IOp(2/17=3) IOp(2/18=3)
 ------------------------------------------------------

 ---------
 b3lyp opt
 ---------
 Symbolic Z-matrix:
 Charge =  0 Multiplicity = 2

                         Standard orientation:
 ---------------------------------------------------------------------
 Center     Atomic      Atomic             Coordinates (Angstroms)
 Number     Number       Type             X           Y           Z
 ---------------------------------------------------------------------
      1          6           0       -0.295389   -0.950403    0.000000
      2          6           0        0.175587   -0.087310   -1.044648
      3          6           0       -0.000000    0.865072   -0.000000
      4          1           0       -0.657964    1.733774   -0.000000
      5          6           0        0.175587   -0.087310    1.044648
      6          1           0        0.161933   -0.087038    2.119923
      7          1           0        0.161933   -0.087038   -2.119923
 ---------------------------------------------------------------------

 SCF Done:  E(UB3LYP) =  -154.061490012     A.U. after   15 cycles

 The electronic state is 2-A".
 Alpha  occ. eigenvalues --  -10.23586 -10.21571 -10.21566 -10.20719  -0.93797
 Alpha  occ. eigenvalues --   -0.68719  -0.62575  -0.55510  -0.47550  -0.42585
 Alpha  occ. eigenvalues --   -0.40269  -0.38134  -0.22947  -0.22065
 Alpha virt. eigenvalues --   -0.05136  -0.01102   0.00401   0.01069   0.01919
 Alpha virt. eigenvalues --    0.04331   0.06626   0.07324   0.08867   0.09269
 Alpha virt. eigenvalues --    0.09545   0.10314   0.11364   0.12490   0.12506

  Beta  occ. eigenvalues --  -10.23772 -10.20885 -10.20598 -10.20592  -0.92853
  Beta  occ. eigenvalues --   -0.66317  -0.62617  -0.54215  -0.46658  -0.41995
  Beta  occ. eigenvalues --   -0.39620  -0.35664  -0.23050
  Beta virt. eigenvalues --   -0.09597  -0.05213  -0.00580   0.01159   0.01851
  Beta virt. eigenvalues --    0.02149   0.04411   0.06990   0.07327   0.09418
  Beta virt. eigenvalues --    0.09620   0.09815   0.10488   0.11382   0.12733

 Mulliken charges and spin densities:
               1          2
     1  C   -0.195271  -0.145220
     2  C   -0.137386   0.654366
     3  C   -0.086350  -0.159776
     4  H    0.156113   0.006170
     5  C   -0.137386   0.654366
     6  H    0.200140  -0.004953
     7  H    0.200140  -0.004953
 Sum of Mulliken charges =  -0.00000   1.00000

 Dipole moment (field-independent basis, Debye):
    X=              0.4806    Y=              2.1877    Z=              0.0000  Tot=              2.2398
 Quadrupole moment (field-independent basis, Debye-Ang):
   XX=            -26.2196   YY=            -26.0248   ZZ=            -19.5711
   XY=             -2.7931   XZ=             -0.0000   YZ=             -0.0000

  Exact polarizability:  34.042   3.368  52.283   0.000   0.000  52.202
 Approx polarizability:  49.499   8.215  97.860  -0.000  -0.000  81.117

                      1                      2                      3
                     A"                     A'                     A'
 Frequencies --    523.8566               556.4880               619.6185
 Red. masses --      1.5569                 2.8989                 1.4088
 Frc consts  --      0.2517                 0.5289                 0.3187
 IR Inten    --     20.0277                21.0382                49.4274

                      4                      5                      6
                     A'                     A"                     A'
 Frequencies --    728.4498               824.4064               934.6915
 Red. masses --      2.2122                 3.8832                 2.4497
 Frc consts  --      0.6916                 1.5550                 1.2610
 IR Inten    --     76.9244                15.6720                30.9162

                      7                      8                      9
                     A'                     A"                     A"
 Frequencies --   1014.0026              1031.8661              1097.7700
 Red. masses --      1.3936                 1.3817                 1.4902
 Frc consts  --      0.8443                 0.8668                 1.0581
 IR Inten    --      6.7028                 7.2277                 1.3625

                     10                     11                     12
                     A'                     A"                     A'
 Frequencies --   1258.8347              1307.6711              1314.4928
 Red. masses --      2.5519                 2.2250                 4.8003
 Frc consts  --      2.3826                 2.2417                 4.8869
 IR Inten    --      8.5208                 2.8691                 4.5380

                     13                     14                     15
                     A'                     A"                     A'
 Frequencies --   3078.2243              3259.5766              3264.0963
 Red. masses --      1.0905                 1.0947                 1.1035
 Frc consts  --      6.0879                 6.8531                 6.9270
 IR Inten    --     21.4128                 0.7029                 0.0048

 - Thermochemistry -
 -------------------
 Temperature   298.150 Kelvin.  Pressure   1.00000 Atm.
 Atom     1 has atomic number  6 and mass  12.00000

 Molecular mass:    51.02348 amu.
 Principal axes and moments of inertia in atomic units:
                           1         2         3
     Eigenvalues --    90.25563 133.42418 208.58754
           X            0.00000   0.08742   0.99617
           Y            0.00000   0.99617  -0.08742
           Z            1.00000   0.00000   0.00000
 This molecule is an asymmetric top.
 Rotational symmetry number  1.
 Rotational temperatures (Kelvin)      0.95965     0.64916     0.41524
 Rotational constants (GHZ):          19.99589    13.52634     8.65220
 Zero-point vibrational energy     124495.6 (Joules/Mol)
                                   29.75517 (Kcal/Mol)
 Warning -- explicit consideration of   3 degrees of freedom as
           vibrations may cause significant error
 Vibrational temperatures:    753.71   800.66   891.49  1048.08  1186.14
          (Kelvin)           1344.81  1458.92  1484.62  1579.44  1811.18
                             1881.44  1891.26  4428.87  4689.80  4696.30

 Zero-point correction=                           0.047418 (Hartree/Particle)
 Thermal correction to Energy=                    0.051140
 Thermal correction to Enthalpy=                  0.052085
 Thermal correction to Gibbs Free Energy=         0.021683
 Sum of electronic and zero-point Energies=           -154.014072
 Sum of electronic and thermal Energies=              -154.010350
 Sum of electronic and thermal Enthalpies=            -154.009405
 Sum of electronic and thermal Free Energies=         -154.039807

                     E (Thermal)             CV                S
                      KCal/Mol        Cal/Mol-Kelvin    Cal/Mol-Kelvin
 Total                   32.091             12.559             63.986
 Electronic               0.000              0.000              1.377
 Translational            0.889              2.981             37.712
 Rotational               0.889              2.981             22.445
 Vibrational             30.314              6.597              2.451
 Vibration     1          0.879              1.197              0.601
 Vibration     2          0.912              1.126              0.531
 Vibration     3          0.980              0.990              0.417

 Optimization completed.
    -- Stationary point found.
 Normal termination of Gaussian 09 at Thu Jan 31 05:21:32 2019.
