 Gaussian 09, Revision E.01,
 Gaussian 09:  EM64L-G09RevE.01 30-Nov-2015

 ------------------------------------------------------
 #p b3lyp/6-311++G(3df,2p) freq IOp(2/17=3) IOp(2/18=3)
 ------------------------------------------------------

 ---------
 b3lyp opt
 ---------
 Symbolic Z-matrix:
 Charge =  3 Multiplicity = 1

                         Standard orientation:
 ---------------------------------------------------------------------
 Center     Atomic      Atomic             Coordinates (Angstroms)
 Number     Number       Type             X           Y           Z
 ---------------------------------------------------------------------
      1          6           0       -0.155966    1.721363    0.000000
      2          1           0       -1.182578    2.216788    0.000000
      3          1           0        0.394375    2.901975    0.000000
      4          1           0        1.055886    2.144676    0.000000
      5          6           0        0.000000    0.371955    0.000000
      6          6           0        0.042967   -0.884961    0.000000
      7          6           0        0.068385   -2.418931    0.000000
 ---------------------------------------------------------------------

 SCF Done:  E(RB3LYP) =  -152.186594676     A.U. after   13 cycles

 The electronic state is 1-A'.
 Alpha  occ. eigenvalues --  -11.12855 -11.08338 -11.01882 -11.01236  -1.59511
 Alpha  occ. eigenvalues --   -1.51766  -1.42022  -1.34051  -1.24543  -1.09906
 Alpha  occ. eigenvalues --   -1.05987  -1.05051
 Alpha virt. eigenvalues --   -0.93965  -0.86858  -0.82474  -0.72926  -0.69072
 Alpha virt. eigenvalues --   -0.65351  -0.63511  -0.57917  -0.51058  -0.49388
 Alpha virt. eigenvalues --   -0.43379  -0.43233  -0.41595  -0.39788  -0.39735

 Mulliken charges:
               1
     1  C   -0.122438
     2  H    0.393420
     3  H    0.429718
     4  H    0.353382
     5  C    0.640583
     6  C    0.741382
     7  C    0.563953
 Sum of Mulliken charges =   3.00000

 Dipole moment (field-independent basis, Debye):
    X=              1.0248    Y=              6.0664    Z=              0.0000  Tot=              6.1523
 Quadrupole moment (field-independent basis, Debye-Ang):
   XX=            -12.4779   YY=             45.6046   ZZ=            -16.9849
   XY=              1.3785   XZ=              0.0000   YZ=              0.0000

  Exact polarizability:  23.546  -1.642  81.651   0.005   0.002  19.205
 Approx polarizability:  35.163  -6.936 196.448  -0.000  -0.000  28.694

                      1                      2                      3
                     A"                     A"                     A"
 Frequencies --    165.8052               289.8074               344.7053
 Red. masses --      4.8655                 3.3561                 1.6265
 Frc consts  --      0.0788                 0.1661                 0.1139
 IR Inten    --     31.2725                43.6355                37.1347

                      4                      5                      6
                     A"                     A"                     A'
 Frequencies --    367.7312               387.7538               688.3124
 Red. masses --      3.6024                 1.9927                 6.7039
 Frc consts  --      0.2870                 0.1765                 1.8713
 IR Inten    --     22.4688                17.3324               281.9693

                      7                      8                      9
                     A'                     A"                     A'
 Frequencies --    714.5268               894.4130              1093.3545
 Red. masses --      2.0279                 1.4984                 2.2204
 Frc consts  --      0.6100                 0.7062                 1.5639
 IR Inten    --    119.6992                95.8670              1067.1432

                     10                     11                     12
                     A'                     A'                     A'
 Frequencies --   1289.4569              1434.4275              1483.5795
 Red. masses --      1.2056                 1.4390                 1.0461
 Frc consts  --      1.1811                 1.7445                 1.3566
 IR Inten    --     91.1150                58.8105               170.5616

                     13                     14                     15
                     A'                     A'                     A'
 Frequencies --   1998.3254              2263.6108              2668.9819
 Red. masses --     10.1840                 1.0500                 1.0966
 Frc consts  --     23.9609                 3.1700                 4.6023
 IR Inten    --      0.6183               831.6392               574.8101

 - Thermochemistry -
 -------------------
 Temperature   298.150 Kelvin.  Pressure   1.00000 Atm.
 Atom     1 has atomic number  6 and mass  12.00000

 Molecular mass:    51.02348 amu.
 Principal axes and moments of inertia in atomic units:
                           1         2         3
     Eigenvalues --    10.26615 478.77764 489.04380
           X           -0.03743   0.99930   0.00000
           Y            0.99930   0.03743   0.00000
           Z           -0.00000   0.00000   1.00000
 This molecule is an asymmetric top.
 Rotational symmetry number  1.
 Rotational temperatures (Kelvin)      8.43683     0.18091     0.17711
 Rotational constants (GHZ):         175.79525     3.76948     3.69035
 Zero-point vibrational energy      96208.4 (Joules/Mol)
                                   22.99436 (Kcal/Mol)
 Warning -- explicit consideration of   5 degrees of freedom as
           vibrations may cause significant error
 Vibrational temperatures:    238.56   416.97   495.95   529.08   557.89
          (Kelvin)            990.33  1028.04  1286.86  1573.09  1855.24
                             2063.82  2134.54  2875.14  3256.83  3840.06

 Zero-point correction=                           0.036644 (Hartree/Particle)
 Thermal correction to Energy=                    0.041886
 Thermal correction to Enthalpy=                  0.042830
 Thermal correction to Gibbs Free Energy=         0.010410
 Sum of electronic and zero-point Energies=           -152.149951
 Sum of electronic and thermal Energies=              -152.144709
 Sum of electronic and thermal Enthalpies=            -152.143765
 Sum of electronic and thermal Free Energies=         -152.176185

                     E (Thermal)             CV                S
                      KCal/Mol        Cal/Mol-Kelvin    Cal/Mol-Kelvin
 Total                   26.284             16.950             68.235
 Electronic               0.000              0.000              0.000
 Translational            0.889              2.981             37.712
 Rotational               0.889              2.981             22.401
 Vibrational             24.506             10.989              8.121
 Vibration     1          0.624              1.884              2.483
 Vibration     2          0.686              1.693              1.475
 Vibration     3          0.723              1.586              1.190
 Vibration     4          0.740              1.539              1.089
 Vibration     5          0.756              1.496              1.009

 Optimization completed.
    -- Stationary point found.
 Normal termination of Gaussian 09 at Thu Jan 31 05:29:35 2019.
