 Gaussian 09, Revision E.01,
 Gaussian 09:  EM64L-G09RevE.01 30-Nov-2015

 ---------------------------------------------
 #p b3lyp/6-311++G(3df,2p) freq symmetry=Loose
 ---------------------------------------------

 ---------
 b3lyp opt
 ---------
 Symbolic Z-matrix:
 Charge =  0 Multiplicity = 4

                         Standard orientation:
 ---------------------------------------------------------------------
 Center     Atomic      Atomic             Coordinates (Angstroms)
 Number     Number       Type             X           Y           Z
 ---------------------------------------------------------------------
      1          6           0        1.814485   -0.232060    0.007829
      2          1           0        2.827550   -0.548858   -0.017210
      3          6           0        0.644671    0.144546    0.010408
      4          6           0       -0.652133    0.535368   -0.013818
      5          1           0       -0.895076    1.573449    0.197123
      6          6           0       -1.753370   -0.447512   -0.139657
      7          1           0       -2.254393   -1.026643    0.631511
 ---------------------------------------------------------------------

 SCF Done:  E(UB3LYP) =  -154.008034711     A.U. after   16 cycles

 The electronic state is 4-A.
 Alpha  occ. eigenvalues --  -10.22383 -10.21931 -10.20288 -10.20099  -0.82665
 Alpha  occ. eigenvalues --   -0.75231  -0.64307  -0.55194  -0.49844  -0.46385
 Alpha  occ. eigenvalues --   -0.38075  -0.31185  -0.29627  -0.23842  -0.19533
 Alpha virt. eigenvalues --   -0.00684   0.00279   0.01527   0.01900   0.03901
 Alpha virt. eigenvalues --    0.05468   0.05905   0.07568   0.09091   0.09227
 Alpha virt. eigenvalues --    0.09894   0.10103   0.11080   0.11930   0.12832

  Beta  occ. eigenvalues --  -10.20986 -10.20367 -10.19531 -10.19284  -0.80310
  Beta  occ. eigenvalues --   -0.71639  -0.59233  -0.53788  -0.48265  -0.44164
  Beta  occ. eigenvalues --   -0.32867  -0.29388
  Beta virt. eigenvalues --   -0.15639  -0.06678  -0.05236  -0.00347   0.00532
  Beta virt. eigenvalues --    0.01789   0.02293   0.04944   0.05983   0.07194
  Beta virt. eigenvalues --    0.08133   0.10132   0.10320   0.10469   0.11422

 Mulliken charges and spin densities:
               1          2
     1  C    0.285472   0.560144
     2  H    0.322711  -0.019383
     3  C   -0.119024  -0.135680
     4  C   -0.422599   0.606168
     5  H    0.154363   0.015547
     6  C   -0.395844   1.945127
     7  H    0.174920   0.028077
 Sum of Mulliken charges =  -0.00000   3.00000

 Dipole moment (field-independent basis, Debye):
    X=              0.6611    Y=              0.1608    Z=              0.6670  Tot=              0.9528
 Quadrupole moment (field-independent basis, Debye-Ang):
   XX=            -20.2124   YY=            -23.7783   ZZ=            -25.6521
   XY=             -1.5214   XZ=             -1.6384   YZ=             -0.4993

  Exact polarizability:  82.415  -3.988  40.368   0.452  -0.060  33.887
 Approx polarizability: 127.866 -14.329  55.904   1.674  -0.439  45.495

                      1                      2                      3
                      A                      A                      A
 Frequencies --    196.8546               321.3846               359.1176
 Red. masses --      2.7918                 1.7292                 1.2534
 Frc consts  --      0.0637                 0.1052                 0.0952
 IR Inten    --      2.9243                17.5275                46.9025

                      4                      5                      6
                      A                      A                      A
 Frequencies --    446.5415               568.3974               574.6807
 Red. masses --      2.4844                 1.3803                 6.4945
 Frc consts  --      0.2919                 0.2627                 1.2637
 IR Inten    --      7.6761                19.9832                 8.0472

                      7                      8                      9
                      A                      A                      A
 Frequencies --    630.6570               940.3194               986.4600
 Red. masses --      1.2272                 1.6358                 3.2122
 Frc consts  --      0.2876                 0.8522                 1.8417
 IR Inten    --     51.3711                 2.9021                 4.4816

                     10                     11                     12
                      A                      A                      A
 Frequencies --   1171.5491              1346.3504              1948.9811
 Red. masses --      1.5825                 2.5766                 7.2548
 Frc consts  --      1.2797                 2.7518                16.2364
 IR Inten    --      1.2650                 1.2528                 3.9352

                     13                     14                     15
                      A                      A                      A
 Frequencies --   3104.6595              3114.1808              3448.9502
 Red. masses --      1.0834                 1.0876                 1.1309
 Frc consts  --      6.1526                 6.2146                 7.9258
 IR Inten    --      1.8333                37.2013                65.6430

 - Thermochemistry -
 -------------------
 Temperature   298.150 Kelvin.  Pressure   1.00000 Atm.
 Atom     1 has atomic number  6 and mass  12.00000

 Molecular mass:    51.02348 amu.
 Principal axes and moments of inertia in atomic units:
                           1         2         3
     Eigenvalues --    40.12442 361.16778 396.79199
           X            0.99984  -0.00770  -0.01622
           Y            0.00719   0.99947  -0.03165
           Z            0.01646   0.03153   0.99937
 This molecule is an asymmetric top.
 Rotational symmetry number  1.
 Rotational temperatures (Kelvin)      2.15863     0.23982     0.21829
 Rotational constants (GHZ):          44.97862     4.99696     4.54833
 Zero-point vibrational energy     114596.8 (Joules/Mol)
                                   27.38929 (Kcal/Mol)
 Warning -- explicit consideration of   6 degrees of freedom as
           vibrations may cause significant error
 Vibrational temperatures:    283.23   462.40   516.69   642.47   817.80
          (Kelvin)            826.84   907.37  1352.91  1419.29  1685.60
                             1937.10  2804.15  4466.91  4480.61  4962.26

 Zero-point correction=                           0.043648 (Hartree/Particle)
 Thermal correction to Energy=                    0.048668
 Thermal correction to Enthalpy=                  0.049613
 Thermal correction to Gibbs Free Energy=         0.015962
 Sum of electronic and zero-point Energies=           -153.964387
 Sum of electronic and thermal Energies=              -153.959366
 Sum of electronic and thermal Enthalpies=            -153.958422
 Sum of electronic and thermal Free Energies=         -153.992073

                     E (Thermal)             CV                S
                      KCal/Mol        Cal/Mol-Kelvin    Cal/Mol-Kelvin
 Total                   30.540             16.722             70.824
 Electronic               0.000              0.000              2.755
 Translational            0.889              2.981             37.712
 Rotational               0.889              2.981             23.268
 Vibrational             28.762             10.760              7.088
 Vibration     1          0.636              1.844              2.162
 Vibration     2          0.707              1.633              1.303
 Vibration     3          0.734              1.557              1.126
 Vibration     4          0.806              1.369              0.806
 Vibration     5          0.924              1.100              0.507
 Vibration     6          0.931              1.086              0.495

 Optimization completed.
    -- Stationary point found.
 Normal termination of Gaussian 09 at Sun Jun 19 05:58:31 2016.
