 Gaussian 09, Revision E.01,
 Gaussian 09:  EM64L-G09RevE.01 30-Nov-2015

 ---------------------------------------------
 #p b3lyp/6-311++G(3df,2p) freq symmetry=Loose
 ---------------------------------------------

 ---------
 b3lyp opt
 ---------
 Symbolic Z-matrix:
 Charge =  1 Multiplicity = 1

                         Standard orientation:
 ---------------------------------------------------------------------
 Center     Atomic      Atomic             Coordinates (Angstroms)
 Number     Number       Type             X           Y           Z
 ---------------------------------------------------------------------
      1          6           0       -0.000000   -0.000000   -1.846034
      2          1           0        0.000000    0.934533   -2.409971
      3          1           0       -0.000000   -0.934533   -2.409971
      4          6           0       -0.000000   -0.000000   -0.568569
      5          6           0        0.000000    0.000000    0.746185
      6          6           0        0.000000    0.000000    1.965468
      7          1           0        0.000000    0.000000    3.037641
 ---------------------------------------------------------------------

 SCF Done:  E(RB3LYP) =  -153.835382829     A.U. after   12 cycles

 The electronic state is 1-A1.
 Alpha  occ. eigenvalues --  -10.51301 -10.48284 -10.45087 -10.44545  -1.08131
 Alpha  occ. eigenvalues --   -1.01893  -0.91595  -0.77942  -0.74349  -0.70507
 Alpha  occ. eigenvalues --   -0.61980  -0.58325  -0.51415
 Alpha virt. eigenvalues --   -0.37926  -0.29374  -0.16024  -0.15856  -0.13142
 Alpha virt. eigenvalues --   -0.11806  -0.11346  -0.10914  -0.09160  -0.07245
 Alpha virt. eigenvalues --   -0.05921  -0.04966  -0.03856  -0.02839  -0.02017

 Mulliken charges:
               1
     1  C   -0.264047
     2  H    0.257700
     3  H    0.257700
     4  C    0.232417
     5  C   -0.319866
     6  C    0.454265
     7  H    0.381831
 Sum of Mulliken charges =   1.00000

 Dipole moment (field-independent basis, Debye):
    X=             -0.0000    Y=              0.0000    Z=              0.0033  Tot=              0.0033
 Quadrupole moment (field-independent basis, Debye-Ang):
   XX=            -22.9504   YY=            -19.0241   ZZ=              4.8077
   XY=              0.0000   XZ=              0.0000   YZ=             -0.0000

  Exact polarizability:  24.182  -0.000  25.528   0.000   0.000  86.629
 Approx polarizability:  32.608   0.000  35.884   0.000  -0.000 188.694

                      1                      2                      3
                     B2                     B1                     B2
 Frequencies --    190.7261               216.8900               425.8660
 Red. masses --      2.8272                 3.9838                 2.1189
 Frc consts  --      0.0606                 0.1104                 0.2264
 IR Inten    --     14.9257                14.8975                 0.4027

                      4                      5                      6
                     B1                     B1                     B2
 Frequencies --    522.3884               639.2838               867.4875
 Red. masses --      8.2879                 1.2386                 2.1161
 Frc consts  --      1.3325                 0.2983                 0.9382
 IR Inten    --      0.1243                46.8306                14.7433

                      7                      8                      9
                     B1                     B2                     A1
 Frequencies --    883.4511               884.4426               921.6734
 Red. masses --      1.3218                 1.3918                 4.3079
 Frc consts  --      0.6078                 0.6415                 2.1561
 IR Inten    --     55.3400                 5.8650                 7.0874

                     10                     11                     12
                     A1                     A1                     A1
 Frequencies --   1312.3106              1858.5451              2166.1943
 Red. masses --      1.1520                 7.9213                 7.2088
 Frc consts  --      1.1689                16.1210                19.9299
 IR Inten    --     53.4236                13.8570               468.2520

                     13                     14                     15
                     A1                     B2                     A1
 Frequencies --   3063.3495              3133.9339              3370.8334
 Red. masses --      1.0605                 1.1110                 1.1564
 Frc consts  --      5.8633                 6.4288                 7.7416
 IR Inten    --    244.8677               102.2791               151.3802

 - Thermochemistry -
 -------------------
 Temperature   298.150 Kelvin.  Pressure   1.00000 Atm.
 Atom     1 has atomic number  6 and mass  12.00000

 Molecular mass:    51.02348 amu.
 Principal axes and moments of inertia in atomic units:
                           1         2         3
     Eigenvalues --     6.28640 424.08758 430.37398
           X            0.00000  -0.00000   1.00000
           Y            0.00000   1.00000   0.00000
           Z            1.00000   0.00000   0.00000
 This molecule is an asymmetric top.
 Rotational symmetry number  2.
 Rotational temperatures (Kelvin)     13.77796     0.20424     0.20125
 Rotational constants (GHZ):         287.08649     4.25559     4.19343
 Zero-point vibrational energy     122362.3 (Joules/Mol)
                                   29.24529 (Kcal/Mol)
 Warning -- explicit consideration of   4 degrees of freedom as
           vibrations may cause significant error
 Vibrational temperatures:    274.41   312.06   612.73   751.60   919.79
          (Kelvin)           1248.12  1271.09  1272.51  1326.08  1888.12
                             2674.03  3116.67  4407.47  4509.03  4849.87

 Zero-point correction=                           0.046605 (Hartree/Particle)
 Thermal correction to Energy=                    0.051418
 Thermal correction to Enthalpy=                  0.052362
 Thermal correction to Gibbs Free Energy=         0.021629
 Sum of electronic and zero-point Energies=           -153.788777
 Sum of electronic and thermal Energies=              -153.783965
 Sum of electronic and thermal Enthalpies=            -153.783020
 Sum of electronic and thermal Free Energies=         -153.813754

                     E (Thermal)             CV                S
                      KCal/Mol        Cal/Mol-Kelvin    Cal/Mol-Kelvin
 Total                   32.265             15.425             64.685
 Electronic               0.000              0.000              0.000
 Translational            0.889              2.981             37.712
 Rotational               0.889              2.981             20.289
 Vibrational             30.488              9.463              6.683
 Vibration     1          0.634              1.853              2.221
 Vibration     2          0.646              1.815              1.985
 Vibration     3          0.788              1.414              0.872
 Vibration     4          0.877              1.200              0.604

 Optimization completed.
    -- Stationary point found.
 Normal termination of Gaussian 09 at Tue Jul 19 13:31:12 2016.
