 Gaussian 09, Revision E.01,
 Gaussian 09:  EM64L-G09RevE.01 30-Nov-2015

 ---------------------------------------------
 #p b3lyp/6-311++G(3df,2p) freq symmetry=Loose
 ---------------------------------------------

 ---------
 b3lyp opt
 ---------
 Symbolic Z-matrix:
 Charge =  3 Multiplicity = 1

                         Standard orientation:
 ---------------------------------------------------------------------
 Center     Atomic      Atomic             Coordinates (Angstroms)
 Number     Number       Type             X           Y           Z
 ---------------------------------------------------------------------
      1          6           0       -0.935194    1.553287    0.000000
      2          1           0       -1.615244    2.466127    0.000000
      3          6           0       -0.000000    0.623186    0.000000
      4          1           0        0.971267    1.264611    0.000000
      5          6           0       -0.037082   -0.789482    0.000000
      6          1           0       -1.000851   -1.368715    0.000000
      7          6           0        1.246414   -1.780661    0.000000
 ---------------------------------------------------------------------

 SCF Done:  E(RB3LYP) =  -152.220204709     A.U. after   13 cycles

 The electronic state is 1-A'.
 Alpha  occ. eigenvalues --  -11.16937 -11.12228 -11.04849 -10.99722  -1.60735
 Alpha  occ. eigenvalues --   -1.50874  -1.36627  -1.28950  -1.24649  -1.17673
 Alpha  occ. eigenvalues --   -1.10098  -1.06429
 Alpha virt. eigenvalues --   -0.95305  -0.88748  -0.87484  -0.83555  -0.69587
 Alpha virt. eigenvalues --   -0.62468  -0.57134  -0.54565  -0.50422  -0.47403
 Alpha virt. eigenvalues --   -0.46335  -0.43529  -0.41840  -0.41010  -0.39849

 Mulliken charges:
               1
     1  C    0.590739
     2  H    0.530014
     3  C    0.205483
     4  H    0.295249
     5  C    0.302692
     6  H    0.311017
     7  C    0.764807
 Sum of Mulliken charges =   3.00000

 Dipole moment (field-independent basis, Debye):
    X=             -1.1545    Y=              1.6038    Z=              0.0000  Tot=              1.9761
 Quadrupole moment (field-independent basis, Debye-Ang):
   XX=             -0.3051   YY=             21.5824   ZZ=            -17.2006
   XY=            -16.0666   XZ=              0.0000   YZ=              0.0000

  Exact polarizability:  35.007 -15.700  57.442  -0.000  -0.000  19.732
 Approx polarizability:  65.573 -41.502 122.022  -0.000  -0.000  29.573

                      1                      2                      3
                     A"                     A'                     A'
 Frequencies --    177.9062               218.6192               335.1103
 Red. masses --      3.2586                 3.1398                 4.6644
 Frc consts  --      0.0608                 0.0884                 0.3086
 IR Inten    --      8.5088                21.8062                28.0903

                      4                      5                      6
                     A'                     A"                     A"
 Frequencies --    636.3408               662.0340               770.3916
 Red. masses --      5.6671                 1.6349                 1.1982
 Frc consts  --      1.3520                 0.4222                 0.4190
 IR Inten    --    372.7674                76.9827                32.3431

                      7                      8                      9
                     A"                     A'                     A'
 Frequencies --    872.3518               873.0650              1041.6322
 Red. masses --      1.4790                 1.4393                 1.4283
 Frc consts  --      0.6631                 0.6464                 0.9130
 IR Inten    --     21.3917                77.8805                13.9323

                     10                     11                     12
                     A'                     A'                     A'
 Frequencies --   1133.1530              1220.6598              1641.4373
 Red. masses --      2.4030                 1.3721                 5.2049
 Frc consts  --      1.8180                 1.2046                 8.2625
 IR Inten    --     48.7978               152.9622               637.6641

                     13                     14                     15
                     A'                     A'                     A'
 Frequencies --   2439.5919              2745.1253              2783.9379
 Red. masses --      1.0738                 1.1591                 1.0882
 Frc consts  --      3.7653                 5.1464                 4.9692
 IR Inten    --    489.5124               545.9020               278.5448

 - Thermochemistry -
 -------------------
 Temperature   298.150 Kelvin.  Pressure   1.00000 Atm.
 Atom     1 has atomic number  6 and mass  12.00000

 Molecular mass:    51.02348 amu.
 Principal axes and moments of inertia in atomic units:
                           1         2         3
     Eigenvalues --    30.05987 406.87538 436.93525
           X           -0.48941   0.87205   0.00000
           Y            0.87205   0.48941   0.00000
           Z           -0.00000   0.00000   1.00000
 This molecule is an asymmetric top.
 Rotational symmetry number  1.
 Rotational temperatures (Kelvin)      2.88138     0.21288     0.19823
 Rotational constants (GHZ):          60.03822     4.43561     4.13045
 Zero-point vibrational energy     104980.4 (Joules/Mol)
                                   25.09092 (Kcal/Mol)
 Warning -- explicit consideration of   3 degrees of freedom as
           vibrations may cause significant error
 Vibrational temperatures:    255.97   314.54   482.15   915.55   952.52
          (Kelvin)           1108.42  1255.12  1256.14  1498.67  1630.35
                             1756.25  2361.66  3510.02  3949.62  4005.46

 Zero-point correction=                           0.039985 (Hartree/Particle)
 Thermal correction to Energy=                    0.044872
 Thermal correction to Enthalpy=                  0.045817
 Thermal correction to Gibbs Free Energy=         0.013540
 Sum of electronic and zero-point Energies=           -152.180220
 Sum of electronic and thermal Energies=              -152.175332
 Sum of electronic and thermal Enthalpies=            -152.174388
 Sum of electronic and thermal Free Energies=         -152.206665

                     E (Thermal)             CV                S
                      KCal/Mol        Cal/Mol-Kelvin    Cal/Mol-Kelvin
 Total                   28.158             15.713             67.932
 Electronic               0.000              0.000              0.000
 Translational            0.889              2.981             37.712
 Rotational               0.889              2.981             23.195
 Vibrational             26.380              9.752              7.024
 Vibration     1          0.628              1.870              2.350
 Vibration     2          0.646              1.813              1.971
 Vibration     3          0.716              1.605              1.235

 Normal termination of Gaussian 09 at Sun Jun 19 06:49:44 2016.
