 Gaussian 09, Revision E.01,
 Gaussian 09:  EM64L-G09RevE.01 30-Nov-2015

 ---------------------------------------------
 #p b3lyp/6-311++G(3df,2p) freq symmetry=Loose
 ---------------------------------------------

 ---------
 b3lyp opt
 ---------
 Symbolic Z-matrix:
 Charge =  3 Multiplicity = 3

                         Standard orientation:
 ---------------------------------------------------------------------
 Center     Atomic      Atomic             Coordinates (Angstroms)
 Number     Number       Type             X           Y           Z
 ---------------------------------------------------------------------
      1          6           0        1.024922    1.463805    0.000000
      2          1           0        1.784288    2.308211    0.000000
      3          6           0        0.000000    0.618822    0.000000
      4          1           0       -0.921977    1.319397   -0.000000
      5          6           0       -0.115011   -0.802334   -0.000000
      6          1           0        0.782633   -1.534538   -0.000000
      7          6           0       -1.184068   -1.629139   -0.000000
 ---------------------------------------------------------------------

 SCF Done:  E(UB3LYP) =  -152.229528406     A.U. after   16 cycles

 The electronic state is 3-A".
 Alpha  occ. eigenvalues --  -11.17931 -11.11235 -11.03997 -11.01751  -1.63176
 Alpha  occ. eigenvalues --   -1.57105  -1.38864  -1.28795  -1.25426  -1.20067
 Alpha  occ. eigenvalues --   -1.15740  -1.14088  -1.07310
 Alpha virt. eigenvalues --   -0.91112  -0.87499  -0.84824  -0.69943  -0.59097
 Alpha virt. eigenvalues --   -0.57117  -0.51975  -0.48262  -0.46774  -0.45396
 Alpha virt. eigenvalues --   -0.43568  -0.41679  -0.41526  -0.39389  -0.36503

  Beta  occ. eigenvalues --  -11.14742 -11.10431 -11.03737 -11.01651  -1.61148
  Beta  occ. eigenvalues --   -1.53628  -1.36790  -1.27661  -1.24947  -1.17139
  Beta  occ. eigenvalues --   -1.09680
  Beta virt. eigenvalues --   -0.95018  -0.94221  -0.87728  -0.85035  -0.77990
  Beta virt. eigenvalues --   -0.66365  -0.58415  -0.56579  -0.51387  -0.48151
  Beta virt. eigenvalues --   -0.46452  -0.44041  -0.43200  -0.41011  -0.40843

 Mulliken charges and spin densities:
               1          2
     1  C    0.559231   0.429838
     2  H    0.529118  -0.009521
     3  C    0.238697   0.065024
     4  H    0.306141  -0.006821
     5  C    0.450303   0.131949
     6  H    0.322361  -0.006734
     7  C    0.594149   1.396265
 Sum of Mulliken charges =   3.00000   2.00000

 Dipole moment (field-independent basis, Debye):
    X=              0.6742    Y=              0.6158    Z=              0.0000  Tot=              0.9131
 Quadrupole moment (field-independent basis, Debye-Ang):
   XX=              2.9297   YY=             21.0582   ZZ=            -18.0765
   XY=             17.8092   XZ=              0.0000   YZ=              0.0000

  Exact polarizability:  37.463  18.134  56.196   0.000  -0.000  17.648
 Approx polarizability:  75.759  43.036  98.818   0.000   0.000  24.263

                      1                      2                      3
                     A"                     A'                     A'
 Frequencies --    202.2384               260.4343               387.5124
 Red. masses --      3.2921                 3.4500                 4.2030
 Frc consts  --      0.0793                 0.1379                 0.3719
 IR Inten    --     12.8795                28.5819                 1.4962

                      4                      5                      6
                     A"                     A"                     A"
 Frequencies --    680.8608               699.4955               770.7620
 Red. masses --      1.1183                 1.5001                 1.9713
 Frc consts  --      0.3054                 0.4325                 0.6900
 IR Inten    --    127.3074                 3.9515                 5.3787

                      7                      8                      9
                     A'                     A'                     A'
 Frequencies --    827.6101               903.6516              1031.9190
 Red. masses --      1.9475                 1.7068                 1.7299
 Frc consts  --      0.7859                 0.8212                 1.0853
 IR Inten    --     19.6478                33.3632                31.2203

                     10                     11                     12
                     A'                     A'                     A'
 Frequencies --   1102.6760              1328.5826              1623.9691
 Red. masses --      1.2354                 4.4813                 5.5654
 Frc consts  --      0.8850                 4.6604                 8.6478
 IR Inten    --      1.1702               486.3523               198.4513

                     13                     14                     15
                     A'                     A'                     A'
 Frequencies --   2482.0573              2487.9446              2756.1668
 Red. masses --      1.0793                 1.0786                 1.1424
 Frc consts  --      3.9175                 3.9337                 5.1128
 IR Inten    --    727.4469               296.4083               656.8488

 - Thermochemistry -
 -------------------
 Temperature   298.150 Kelvin.  Pressure   1.00000 Atm.
 Atom     1 has atomic number  6 and mass  12.00000

 Molecular mass:    51.02348 amu.
 Principal axes and moments of inertia in atomic units:
                           1         2         3
     Eigenvalues --    26.43761 378.92664 405.36425
           X            0.52122   0.85342   0.00000
           Y            0.85342  -0.52122   0.00000
           Z           -0.00000  -0.00000   1.00000
 This molecule is an asymmetric top.
 Rotational symmetry number  1.
 Rotational temperatures (Kelvin)      3.27616     0.22858     0.21367
 Rotational constants (GHZ):          68.26415     4.76277     4.45215
 Zero-point vibrational energy     104947.7 (Joules/Mol)
                                   25.08310 (Kcal/Mol)
 Warning -- explicit consideration of   3 degrees of freedom as
           vibrations may cause significant error
 Vibrational temperatures:    290.98   374.71   557.54   979.61  1006.42
          (Kelvin)           1108.95  1190.74  1300.15  1484.70  1586.50
                             1911.53  2336.53  3571.12  3579.59  3965.50

 Zero-point correction=                           0.039972 (Hartree/Particle)
 Thermal correction to Energy=                    0.044671
 Thermal correction to Enthalpy=                  0.045615
 Thermal correction to Gibbs Free Energy=         0.012847
 Sum of electronic and zero-point Energies=           -152.189556
 Sum of electronic and thermal Energies=              -152.184857
 Sum of electronic and thermal Enthalpies=            -152.183913
 Sum of electronic and thermal Free Energies=         -152.216682

                     E (Thermal)             CV                S
                      KCal/Mol        Cal/Mol-Kelvin    Cal/Mol-Kelvin
 Total                   28.031             15.347             68.967
 Electronic               0.000              0.000              2.183
 Translational            0.889              2.981             37.712
 Rotational               0.889              2.981             22.922
 Vibrational             26.254              9.385              6.149
 Vibration     1          0.639              1.837              2.113
 Vibration     2          0.668              1.745              1.659
 Vibration     3          0.756              1.497              1.010

 Optimization completed.
    -- Stationary point found.
 Normal termination of Gaussian 09 at Sun Jun 19 06:58:42 2016.
