 Gaussian 09, Revision E.01,
 Gaussian 09:  EM64L-G09RevE.01 30-Nov-2015

 ---------------------------------------------
 #p b3lyp/6-311++G(3df,2p) freq symmetry=Loose
 ---------------------------------------------

 ---------
 b3lyp opt
 ---------
 Symbolic Z-matrix:
 Charge =  0 Multiplicity = 4

                         Standard orientation:
 ---------------------------------------------------------------------
 Center     Atomic      Atomic             Coordinates (Angstroms)
 Number     Number       Type             X           Y           Z
 ---------------------------------------------------------------------
      1          6           0       -0.000000   -0.000000   -1.764115
      2          1           0        0.000000    1.018799   -2.161965
      3          1           0        0.882306   -0.509400   -2.161965
      4          1           0       -0.882306   -0.509400   -2.161965
      5          6           0       -0.000000   -0.000000   -0.317028
      6          6           0       -0.000000   -0.000000    0.937564
      7          6           0       -0.000000   -0.000000    2.224562
 ---------------------------------------------------------------------

 SCF Done:  E(UB3LYP) =  -154.007740900     A.U. after   14 cycles

 The electronic state is 4-A1.
 Alpha  occ. eigenvalues --  -10.24928 -10.20815 -10.20451 -10.19685  -0.82115
 Alpha  occ. eigenvalues --   -0.76609  -0.67799  -0.49128  -0.45331  -0.45331
 Alpha  occ. eigenvalues --   -0.41186  -0.35319  -0.35319  -0.21905  -0.21905
 Alpha virt. eigenvalues --   -0.01217   0.02825   0.02825   0.03240   0.05288
 Alpha virt. eigenvalues --    0.05895   0.05895   0.08745   0.08745   0.09070
 Alpha virt. eigenvalues --    0.09763   0.09763   0.10908   0.12976   0.12976

  Beta  occ. eigenvalues --  -10.21116 -10.20558 -10.20020 -10.19146  -0.79555
  Beta  occ. eigenvalues --   -0.74515  -0.62901  -0.47598  -0.44168  -0.44168
  Beta  occ. eigenvalues --   -0.31329  -0.31329
  Beta virt. eigenvalues --   -0.17820  -0.07722  -0.07722  -0.01114   0.03029
  Beta virt. eigenvalues --    0.03029   0.03909   0.06311   0.06438   0.06438
  Beta virt. eigenvalues --    0.08940   0.08940   0.09263   0.11146   0.12873

 Mulliken charges and spin densities:
               1          2
     1  C   -0.443904  -0.081841
     2  H    0.154665   0.035775
     3  H    0.154665   0.035775
     4  H    0.154665   0.035775
     5  C   -0.081110   1.007480
     6  C    0.270709  -0.233160
     7  C   -0.209689   2.200197
 Sum of Mulliken charges =  -0.00000   3.00000

 Dipole moment (field-independent basis, Debye):
    X=             -0.0000    Y=             -0.0000    Z=             -1.8817  Tot=              1.8817
 Quadrupole moment (field-independent basis, Debye-Ang):
   XX=            -24.5599   YY=            -24.5599   ZZ=            -20.4776
   XY=             -0.0000   XZ=              0.0000   YZ=              0.0000

  Exact polarizability:  33.665   0.000  33.665  -0.000  -0.000  82.259
 Approx polarizability:  45.046  -0.000  45.046   0.000   0.000 129.225

                      1                      2                      3
                      E                      E                      E
 Frequencies --    141.3104               141.3185               406.7040
 Red. masses --      4.0131                 4.0131                11.4123
 Frc consts  --      0.0472                 0.0472                 1.1122
 IR Inten    --      5.7324                 5.7323                 0.0671

                      4                      5                      6
                      E                     A1                      E
 Frequencies --    406.7067               798.6978              1022.0156
 Red. masses --     11.4122                 4.9898                 1.3264
 Frc consts  --      1.1122                 1.8754                 0.8163
 IR Inten    --      0.0671                 0.4593                 0.7814

                      7                      8                      9
                      E                     A1                     A1
 Frequencies --   1022.0180              1400.6477              1445.8326
 Red. masses --      1.3264                 1.3421                 5.6128
 Frc consts  --      0.8163                 1.5513                 6.9130
 IR Inten    --      0.7817                 5.0487                 0.9612

                     10                     11                     12
                      E                      E                     A1
 Frequencies --   1464.7418              1464.7420              1857.6856
 Red. masses --      1.0401                 1.0401                11.2893
 Frc consts  --      1.3148                 1.3148                22.9542
 IR Inten    --      8.4421                 8.4434                 4.2691

                     13                     14                     15
                     A1                      E                      E
 Frequencies --   2993.0881              3044.4267              3044.4270
 Red. masses --      1.0327                 1.0999                 1.0999
 Frc consts  --      5.4507                 6.0064                 6.0064
 IR Inten    --     26.3118                 7.3012                 7.2986

 - Thermochemistry -
 -------------------
 Temperature   298.150 Kelvin.  Pressure   1.00000 Atm.
 Atom     1 has atomic number  6 and mass  12.00000

 Molecular mass:    51.02348 amu.
 Principal axes and moments of inertia in atomic units:
                           1         2         3
     Eigenvalues --    11.20679 440.57382 440.57382
           X            0.00000   0.30770   0.95148
           Y            0.00000   0.95148  -0.30770
           Z            1.00000  -0.00000  -0.00000
 This molecule is a prolate symmetric top.
 Rotational symmetry number  3.
 Rotational temperatures (Kelvin)      7.72869     0.19659     0.19659
 Rotational constants (GHZ):         161.03999     4.09634     4.09634
 Zero-point vibrational energy     123540.5 (Joules/Mol)
                                   29.52689 (Kcal/Mol)
 Warning -- explicit consideration of   4 degrees of freedom as
           vibrations may cause significant error
 Vibrational temperatures:    203.31   203.33   585.16   585.16  1149.15
          (Kelvin)           1470.45  1470.45  2015.22  2080.23  2107.43
                             2107.43  2672.79  4306.38  4380.25  4380.25

 Zero-point correction=                           0.047054 (Hartree/Particle)
 Thermal correction to Energy=                    0.051982
 Thermal correction to Enthalpy=                  0.052926
 Thermal correction to Gibbs Free Energy=         0.020391
 Sum of electronic and zero-point Energies=           -153.960687
 Sum of electronic and thermal Energies=              -153.955759
 Sum of electronic and thermal Enthalpies=            -153.954815
 Sum of electronic and thermal Free Energies=         -153.987350

                     E (Thermal)             CV                S
                      KCal/Mol        Cal/Mol-Kelvin    Cal/Mol-Kelvin
 Total                   32.619             14.444             68.477
 Electronic               0.000              0.000              2.755
 Translational            0.889              2.981             37.712
 Rotational               0.889              2.981             20.119
 Vibrational             30.842              8.482              7.891
 Vibration     1          0.615              1.912              2.786
 Vibration     2          0.615              1.912              2.786
 Vibration     3          0.771              1.456              0.938
 Vibration     4          0.771              1.456              0.938

 Optimization completed.
    -- Stationary point found.
 Normal termination of Gaussian 09 at Sun Jun 19 05:55:59 2016.
