 Gaussian 09, Revision E.01,
 Gaussian 09:  EM64L-G09RevE.01 30-Nov-2015

 ---------------------------------------------
 #p b3lyp/6-311++G(3df,2p) freq symmetry=Loose
 ---------------------------------------------

 ---------
 b3lyp opt
 ---------
 Symbolic Z-matrix:
 Charge =  1 Multiplicity = 1

                         Standard orientation:
 ---------------------------------------------------------------------
 Center     Atomic      Atomic             Coordinates (Angstroms)
 Number     Number       Type             X           Y           Z
 ---------------------------------------------------------------------
      1          6           0       -0.303552   -0.014923   -0.000589
      2          6           0       -0.373040    1.326953    0.000157
      3          6           0       -1.379476   -0.812779    0.000212
      4          6           0        1.267067   -0.315861    0.000097
      5          1           0        1.814084    0.630707    0.000092
      6          1           0        1.459514   -0.865293    0.918315
      7          1           0        1.460406   -0.865749   -0.917666
 ---------------------------------------------------------------------

 SCF Done:  E(RB3LYP) =  -153.642102447     A.U. after   12 cycles

 The electronic state is 1-A.
 Alpha  occ. eigenvalues --  -10.58933 -10.58212 -10.48525 -10.46933  -1.14713
 Alpha  occ. eigenvalues --   -0.98223  -0.94249  -0.71719  -0.70457  -0.67242
 Alpha  occ. eigenvalues --   -0.61113  -0.60756  -0.58207
 Alpha virt. eigenvalues --   -0.41000  -0.40810  -0.37375  -0.21610  -0.16801
 Alpha virt. eigenvalues --   -0.12061  -0.11562  -0.11051  -0.10554  -0.09485
 Alpha virt. eigenvalues --   -0.08401  -0.07007  -0.06596  -0.05602  -0.04328

 Mulliken charges:
               1
     1  C    0.929844
     2  C   -0.111695
     3  C   -0.030808
     4  C   -0.474049
     5  H    0.217752
     6  H    0.234475
     7  H    0.234481
 Sum of Mulliken charges =   1.00000

 Dipole moment (field-independent basis, Debye):
    X=              1.2421    Y=             -0.4762    Z=             -0.0007  Tot=              1.3303
 Quadrupole moment (field-independent basis, Debye-Ang):
   XX=            -15.2154   YY=            -19.9988   ZZ=            -20.5193
   XY=             -1.6880   XZ=              0.0010   YZ=             -0.0003

  Exact polarizability:  46.835   2.285  45.348  -0.001   0.003  29.292
 Approx polarizability:  79.641  15.487 102.254  -0.006   0.004  43.912

                      1                      2                      3
                      A                      A                      A
 Frequencies --    130.3531               169.0582               265.8638
 Red. masses --      4.9103                 1.2071                 9.2174
 Frc consts  --      0.0492                 0.0203                 0.3839
 IR Inten    --      6.4308                 0.2974                 5.7844

                      4                      5                      6
                      A                      A                      A
 Frequencies --    295.9059               677.1412               977.3708
 Red. masses --      4.6005                 8.9943                 1.2116
 Frc consts  --      0.2373                 2.4298                 0.6819
 IR Inten    --      4.0250                19.6208                 6.7585

                      7                      8                      9
                      A                      A                      A
 Frequencies --   1010.8044              1217.1674              1416.3824
 Red. masses --      1.2125                 2.9963                 1.4737
 Frc consts  --      0.7299                 2.6154                 1.7419
 IR Inten    --     27.3504                74.8625                 7.7322

                     10                     11                     12
                      A                      A                      A
 Frequencies --   1423.6902              1449.2697              1686.8687
 Red. masses --      1.0833                 1.0469                10.8514
 Frc consts  --      1.2937                 1.2956                18.1928
 IR Inten    --     24.0112                13.7891               567.6342

                     13                     14                     15
                      A                      A                      A
 Frequencies --   3022.3942              3119.1434              3178.3473
 Red. masses --      1.0306                 1.0975                 1.1131
 Frc consts  --      5.5470                 6.2911                 6.6248
 IR Inten    --     32.0634                19.4848                24.4953

 - Thermochemistry -
 -------------------
 Temperature   298.150 Kelvin.  Pressure   1.00000 Atm.
 Atom     1 has atomic number  6 and mass  12.00000

 Molecular mass:    51.02348 amu.
 Principal axes and moments of inertia in atomic units:
                           1         2         3
     Eigenvalues --   120.46861 192.35223 300.68917
           X            0.99731  -0.07336   0.00001
           Y            0.07336   0.99731  -0.00000
           Z           -0.00001   0.00000   1.00000
 This molecule is an asymmetric top.
 Rotational symmetry number  1.
 Rotational temperatures (Kelvin)      0.71897     0.45029     0.28805
 Rotational constants (GHZ):          14.98101     9.38248     6.00202
 Zero-point vibrational energy     119864.4 (Joules/Mol)
                                   28.64828 (Kcal/Mol)
 Warning -- explicit consideration of   4 degrees of freedom as
           vibrations may cause significant error
 Vibrational temperatures:    187.55   243.24   382.52   425.74   974.25
          (Kelvin)           1406.22  1454.32  1751.23  2037.86  2048.37
                             2085.17  2427.02  4348.55  4487.75  4572.93

 Zero-point correction=                           0.045654 (Hartree/Particle)
 Thermal correction to Energy=                    0.050901
 Thermal correction to Enthalpy=                  0.051845
 Thermal correction to Gibbs Free Energy=         0.018472
 Sum of electronic and zero-point Energies=           -153.596449
 Sum of electronic and thermal Energies=              -153.591202
 Sum of electronic and thermal Enthalpies=            -153.590258
 Sum of electronic and thermal Free Energies=         -153.623630

                     E (Thermal)             CV                S
                      KCal/Mol        Cal/Mol-Kelvin    Cal/Mol-Kelvin
 Total                   31.941             15.344             70.239
 Electronic               0.000              0.000              0.000
 Translational            0.889              2.981             37.712
 Rotational               0.889              2.981             23.459
 Vibrational             30.163              9.382              9.068
 Vibration     1          0.612              1.923              2.941
 Vibration     2          0.625              1.881              2.446
 Vibration     3          0.672              1.736              1.623
 Vibration     4          0.690              1.681              1.440

 Optimization completed.
    -- Stationary point found.
 Normal termination of Gaussian 09 at Sun Jun 19 06:03:42 2016.
