 Gaussian 09, Revision E.01,
 Gaussian 09:  EM64L-G09RevE.01 30-Nov-2015

 ---------------------------------------------
 #p b3lyp/6-311++G(3df,2p) freq symmetry=Loose
 ---------------------------------------------

 ---------
 b3lyp opt
 ---------
 Symbolic Z-matrix:
 Charge =  1 Multiplicity = 3

                         Standard orientation:
 ---------------------------------------------------------------------
 Center     Atomic      Atomic             Coordinates (Angstroms)
 Number     Number       Type             X           Y           Z
 ---------------------------------------------------------------------
      1          6           0        1.383772    0.775953    0.000000
      2          1           0        1.982346   -0.126719    0.000000
      3          1           0        1.893935    1.731654    0.000000
      4          6           0        0.000000    0.721258    0.000000
      5          1           0       -0.592504    1.631376   -0.000000
      6          6           0       -0.660566   -0.484324   -0.000000
      7          6           0       -1.270502   -1.552272   -0.000000
 ---------------------------------------------------------------------

 SCF Done:  E(UB3LYP) =  -153.723715845     A.U. after   18 cycles

 The electronic state is 3-A".
 Alpha  occ. eigenvalues --  -10.52852 -10.47998 -10.47922 -10.47304  -1.09294
 Alpha  occ. eigenvalues --   -1.02841  -0.89722  -0.77202  -0.71732  -0.66382
 Alpha  occ. eigenvalues --   -0.64233  -0.62911  -0.56134  -0.54053
 Alpha virt. eigenvalues --   -0.32714  -0.23261  -0.16544  -0.15595  -0.13435
 Alpha virt. eigenvalues --   -0.12258  -0.09996  -0.08608  -0.07904  -0.07496
 Alpha virt. eigenvalues --   -0.05639  -0.05372  -0.04576  -0.04035  -0.01610

  Beta  occ. eigenvalues --  -10.49875 -10.47745 -10.47380 -10.47138  -1.07875
  Beta  occ. eigenvalues --   -0.99009  -0.88197  -0.76649  -0.71177  -0.64624
  Beta  occ. eigenvalues --   -0.58992  -0.53956
  Beta virt. eigenvalues --   -0.42838  -0.42462  -0.27513  -0.20674  -0.15313
  Beta virt. eigenvalues --   -0.13226  -0.12774  -0.11925  -0.09441  -0.08450
  Beta virt. eigenvalues --   -0.07360  -0.06848  -0.04998  -0.04991  -0.04269

 Mulliken charges and spin densities:
               1          2
     1  C   -0.286034   0.410848
     2  H    0.230633  -0.010255
     3  H    0.239208  -0.011533
     4  C   -0.189610   0.224216
     5  H    0.210949  -0.008390
     6  C    0.528947   0.118955
     7  C    0.265907   1.276159
 Sum of Mulliken charges =   1.00000   2.00000

 Dipole moment (field-independent basis, Debye):
    X=              0.8986    Y=              0.5571    Z=              0.0000  Tot=              1.0573
 Quadrupole moment (field-independent basis, Debye-Ang):
   XX=            -11.5403   YY=            -11.3413   ZZ=            -21.5769
   XY=              6.2207   XZ=             -0.0000   YZ=              0.0000

  Exact polarizability:  56.898  18.377  53.346   0.001  -0.000  23.744
 Approx polarizability:  85.751  40.370  90.320   0.000   0.000  33.318

                      1                      2                      3
                     A'                     A"                     A'
 Frequencies --    147.8591               292.9948               474.4954
 Red. masses --      5.5395                 1.9933                 3.6347
 Frc consts  --      0.0714                 0.1008                 0.4821
 IR Inten    --      0.3571                 5.5355                 3.4733

                      4                      5                      6
                     A"                     A"                     A'
 Frequencies --    548.8686               890.2252               941.4342
 Red. masses --      2.0228                 1.2248                 2.1021
 Frc consts  --      0.3590                 0.5719                 1.0977
 IR Inten    --      0.3396                27.7509                 1.4237

                      7                      8                      9
                     A"                     A'                     A'
 Frequencies --   1076.8595              1117.9754              1280.3394
 Red. masses --      1.4263                 1.7910                 1.6525
 Frc consts  --      0.9745                 1.3189                 1.5961
 IR Inten    --      7.6117                 4.4041                31.3101

                     10                     11                     12
                     A'                     A'                     A'
 Frequencies --   1428.9598              1536.3159              2119.3753
 Red. masses --      1.6532                 1.6687                11.8687
 Frc consts  --      1.9889                 2.3206                31.4100
 IR Inten    --     77.6061                31.1885                44.0091

                     13                     14                     15
                     A'                     A'                     A'
 Frequencies --   3139.9371              3152.7143              3250.3823
 Red. masses --      1.0556                 1.0913                 1.1222
 Frc consts  --      6.1320                 6.3912                 6.9852
 IR Inten    --     19.9916                25.4622                18.1011

 - Thermochemistry -
 -------------------
 Temperature   298.150 Kelvin.  Pressure   1.00000 Atm.
 Atom     1 has atomic number  6 and mass  12.00000

 Molecular mass:    51.02348 amu.
 Principal axes and moments of inertia in atomic units:
                           1         2         3
     Eigenvalues --    38.15795 340.45015 378.60811
           X            0.72602  -0.68767   0.00000
           Y            0.68767   0.72602   0.00000
           Z           -0.00000   0.00000   1.00000
 This molecule is an asymmetric top.
 Rotational symmetry number  1.
 Rotational temperatures (Kelvin)      2.26988     0.25441     0.22877
 Rotational constants (GHZ):          47.29659     5.30104     4.76678
 Zero-point vibrational energy     127992.9 (Joules/Mol)
                                   30.59103 (Kcal/Mol)
 Warning -- explicit consideration of   4 degrees of freedom as
           vibrations may cause significant error
 Vibrational temperatures:    212.74   421.55   682.69   789.70  1280.83
          (Kelvin)           1354.51  1549.36  1608.52  1842.12  2055.95
                             2210.41  3049.30  4517.66  4536.05  4676.57

 Zero-point correction=                           0.048750 (Hartree/Particle)
 Thermal correction to Energy=                    0.053269
 Thermal correction to Enthalpy=                  0.054213
 Thermal correction to Gibbs Free Energy=         0.021484
 Sum of electronic and zero-point Energies=           -153.674966
 Sum of electronic and thermal Energies=              -153.670447
 Sum of electronic and thermal Enthalpies=            -153.669503
 Sum of electronic and thermal Free Energies=         -153.702231

                     E (Thermal)             CV                S
                      KCal/Mol        Cal/Mol-Kelvin    Cal/Mol-Kelvin
 Total                   33.427             13.854             68.883
 Electronic               0.000              0.000              2.183
 Translational            0.889              2.981             37.712
 Rotational               0.889              2.981             23.113
 Vibrational             31.649              7.893              5.874
 Vibration     1          0.617              1.905              2.700
 Vibration     2          0.688              1.687              1.457
 Vibration     3          0.831              1.307              0.725
 Vibration     4          0.904              1.142              0.547

 Optimization completed.
    -- Stationary point found.
 Normal termination of Gaussian 09 at Sun Jun 19 06:17:05 2016.
