 Gaussian 09, Revision E.01,
 Gaussian 09:  EM64L-G09RevE.01 30-Nov-2015

 ---------------------------------------------
 #p b3lyp/6-311++G(3df,2p) freq symmetry=Loose
 ---------------------------------------------

 ---------
 b3lyp opt
 ---------
 Symbolic Z-matrix:
 Charge =  0 Multiplicity = 4

                         Standard orientation:
 ---------------------------------------------------------------------
 Center     Atomic      Atomic             Coordinates (Angstroms)
 Number     Number       Type             X           Y           Z
 ---------------------------------------------------------------------
      1          6           0       -0.635585   -0.678826    0.000000
      2          1           0       -1.273146   -0.790173    0.884137
      3          1           0       -1.273146   -0.790173   -0.884137
      4          6           0        0.364726   -1.828279   -0.000000
      5          6           0       -0.000000    0.625306    0.000000
      6          6           0        0.529520    1.702331   -0.000000
      7          1           0        0.994324    2.657150   -0.000000
 ---------------------------------------------------------------------

 SCF Done:  E(UB3LYP) =  -153.961678755     A.U. after   16 cycles

 The electronic state is 4-A".
 Alpha  occ. eigenvalues --  -10.24574 -10.23885 -10.19455 -10.18382  -0.83097
 Alpha  occ. eigenvalues --   -0.74728  -0.60675  -0.54682  -0.49340  -0.47892
 Alpha  occ. eigenvalues --   -0.38169  -0.29797  -0.29769  -0.23446  -0.22976
 Alpha virt. eigenvalues --   -0.00856   0.00783   0.00810   0.01909   0.03620
 Alpha virt. eigenvalues --    0.04381   0.05619   0.07979   0.08282   0.08565
 Alpha virt. eigenvalues --    0.09471   0.09682   0.10759   0.12285   0.13254

  Beta  occ. eigenvalues --  -10.24271 -10.19666 -10.19380 -10.18249  -0.81310
  Beta  occ. eigenvalues --   -0.73287  -0.55705  -0.51070  -0.48033  -0.46468
  Beta  occ. eigenvalues --   -0.30008  -0.29418
  Beta virt. eigenvalues --   -0.17230  -0.04834  -0.04318  -0.00535   0.00901
  Beta virt. eigenvalues --    0.00976   0.02627   0.03798   0.05265   0.06200
  Beta virt. eigenvalues --    0.08350   0.08394   0.08917   0.10446   0.11264

 Mulliken charges and spin densities:
               1          2
     1  C   -0.434648   0.114373
     2  H    0.176030   0.048629
     3  H    0.176030   0.048629
     4  C   -0.331131   2.797869
     5  C   -0.292972  -0.026757
     6  C    0.392332   0.019194
     7  H    0.314359  -0.001938
 Sum of Mulliken charges =  -0.00000   3.00000

 Dipole moment (field-independent basis, Debye):
    X=             -0.9658    Y=              0.9358    Z=             -0.0000  Tot=              1.3448
 Quadrupole moment (field-independent basis, Debye-Ang):
   XX=            -23.2447   YY=            -23.1442   ZZ=            -24.9634
   XY=              3.2229   XZ=              0.0000   YZ=              0.0000

  Exact polarizability:  41.466   4.162  78.096   0.000   0.000  35.113
 Approx polarizability:  59.317  11.050 112.892   0.000   0.000  47.557

                      1                      2                      3
                     A'                     A"                     A'
 Frequencies --    219.5212               324.8099               530.6988
 Red. masses --      5.1011                 2.8638                 6.7960
 Frc consts  --      0.1448                 0.1780                 1.1277
 IR Inten    --      2.9984                 9.4635                 4.6585

                      4                      5                      6
                     A"                     A'                     A'
 Frequencies --    670.5324               695.4760               877.8409
 Red. masses --      1.2551                 1.2882                 9.2171
 Frc consts  --      0.3325                 0.3671                 4.1848
 IR Inten    --     48.6239                39.8038                72.3387

                      7                      8                      9
                     A"                     A'                     A"
 Frequencies --    901.2451               948.3624              1179.0138
 Red. masses --      1.6552                 4.7572                 1.0779
 Frc consts  --      0.7921                 2.5209                 0.8828
 IR Inten    --      0.8477                73.5900                 2.8291

                     10                     11                     12
                     A'                     A'                     A'
 Frequencies --   1256.7477              1437.3434              2194.0751
 Red. masses --      1.1975                 1.0983                 5.9764
 Frc consts  --      1.1143                 1.3368                16.9508
 IR Inten    --     29.0790                 2.9438                29.7462

                     13                     14                     15
                     A'                     A"                     A'
 Frequencies --   2979.5442              3012.0407              3461.2209
 Red. masses --      1.0542                 1.1037                 1.1596
 Frc consts  --      5.5140                 5.8997                 8.1851
 IR Inten    --      6.1491                 0.2330                50.3468

 - Thermochemistry -
 -------------------
 Temperature   298.150 Kelvin.  Pressure   1.00000 Atm.
 Atom     1 has atomic number  6 and mass  12.00000

 Molecular mass:    51.02348 amu.
 Principal axes and moments of inertia in atomic units:
                           1         2         3
     Eigenvalues --    48.62230 346.46959 383.83853
           X            0.15430   0.98802   0.00000
           Y            0.98802  -0.15430   0.00000
           Z           -0.00000  -0.00000   1.00000
 This molecule is an asymmetric top.
 Rotational symmetry number  1.
 Rotational temperatures (Kelvin)      1.78136     0.24999     0.22565
 Rotational constants (GHZ):          37.11756     5.20895     4.70182
 Zero-point vibrational energy     123744.5 (Joules/Mol)
                                   29.57566 (Kcal/Mol)
 Warning -- explicit consideration of   3 degrees of freedom as
           vibrations may cause significant error
 Vibrational temperatures:    315.84   467.33   763.56   964.75  1000.63
          (Kelvin)           1263.02  1296.69  1364.48  1696.34  1808.18
                             2068.01  3156.78  4286.89  4333.65  4979.92

 Zero-point correction=                           0.047132 (Hartree/Particle)
 Thermal correction to Energy=                    0.051523
 Thermal correction to Enthalpy=                  0.052467
 Thermal correction to Gibbs Free Energy=         0.019758
 Sum of electronic and zero-point Energies=           -153.914547
 Sum of electronic and thermal Energies=              -153.910156
 Sum of electronic and thermal Enthalpies=            -153.909212
 Sum of electronic and thermal Free Energies=         -153.941921

                     E (Thermal)             CV                S
                      KCal/Mol        Cal/Mol-Kelvin    Cal/Mol-Kelvin
 Total                   32.331             14.261             68.841
 Electronic               0.000              0.000              2.755
 Translational            0.889              2.981             37.712
 Rotational               0.889              2.981             23.385
 Vibrational             30.554              8.299              4.989
 Vibration     1          0.647              1.811              1.963
 Vibration     2          0.709              1.626              1.286
 Vibration     3          0.886              1.182              0.586

 Optimization completed.
    -- Stationary point found.
 Normal termination of Gaussian 09 at Tue Jul 19 10:48:07 2016.
