 Gaussian 09, Revision E.01,
 Gaussian 09:  EM64L-G09RevE.01 30-Nov-2015

 ---------------------------------------------
 #p b3lyp/6-311++G(3df,2p) freq symmetry=Loose
 ---------------------------------------------

 ---------
 b3lyp opt
 ---------
 Symbolic Z-matrix:
 Charge =  3 Multiplicity = 1

                         Standard orientation:
 ---------------------------------------------------------------------
 Center     Atomic      Atomic             Coordinates (Angstroms)
 Number     Number       Type             X           Y           Z
 ---------------------------------------------------------------------
      1          6           0        0.216095   -0.016477   -0.000006
      2          6           0        0.998629   -1.315209   -0.000383
      3          6           0        0.916519    1.339988    0.000319
      4          6           0       -1.175293    0.079423   -0.000009
      5          1           0       -2.377227   -0.479444   -0.001365
      6          1           0       -1.621250   -1.104793    0.003783
      7          1           0       -1.737220    1.057883   -0.001941
 ---------------------------------------------------------------------

 SCF Done:  E(RB3LYP) =  -152.071692539     A.U. after   13 cycles

 The electronic state is 1-A.
 Alpha  occ. eigenvalues --  -11.14870 -11.14391 -11.09470 -11.01551  -1.63299
 Alpha  occ. eigenvalues --   -1.50010  -1.42576  -1.33469  -1.24554  -1.11734
 Alpha  occ. eigenvalues --   -1.09205  -1.05179
 Alpha virt. eigenvalues --   -0.91384  -0.90847  -0.88483  -0.87204  -0.73760
 Alpha virt. eigenvalues --   -0.71479  -0.69001  -0.57133  -0.53410  -0.49756
 Alpha virt. eigenvalues --   -0.45331  -0.45016  -0.42540  -0.41929  -0.40644

 Mulliken charges:
               1
     1  C    0.979009
     2  C    0.590421
     3  C    0.581078
     4  C   -0.226390
     5  H    0.429533
     6  H    0.293768
     7  H    0.352581
 Sum of Mulliken charges =   3.00000

 Dipole moment (field-independent basis, Debye):
    X=             -4.9777    Y=             -1.0717    Z=              0.0008  Tot=              5.0918
 Quadrupole moment (field-independent basis, Debye-Ang):
   XX=             13.5838   YY=             -3.0469   ZZ=            -17.7491
   XY=              2.7261   XZ=              0.0023   YZ=             -0.0097

  Exact polarizability:  47.145   0.309  43.438   0.001  -0.003  21.419
 Approx polarizability:  90.130  -1.082  95.923   0.002   0.001  33.543

                      1                      2                      3
                      A                      A                      A
 Frequencies --    175.7607               260.5201               361.5745
 Red. masses --      1.0307                 3.5035                 8.6573
 Frc consts  --      0.0188                 0.1401                 0.6669
 IR Inten    --      2.1764                 1.1439                28.2552

                      4                      5                      6
                      A                      A                      A
 Frequencies --    372.0326               408.5637               668.9639
 Red. masses --      1.1245                 5.5928                 1.4784
 Frc consts  --      0.0917                 0.5500                 0.3898
 IR Inten    --     51.5806                 7.0713               145.2605

                      7                      8                      9
                      A                      A                      A
 Frequencies --    734.1864               923.2827               963.1540
 Red. masses --      7.9714                 1.4660                 8.4403
 Frc consts  --      2.5316                 0.7363                 4.6132
 IR Inten    --     94.4173                91.3576               548.0638

                     10                     11                     12
                      A                      A                      A
 Frequencies --   1195.7384              1353.7314              1435.5143
 Red. masses --      1.6058                 1.2196                 1.8552
 Frc consts  --      1.3527                 1.3168                 2.2524
 IR Inten    --    681.7583               105.3546                21.5109

                     13                     14                     15
                      A                      A                      A
 Frequencies --   1536.5332              2410.1601              2777.4119
 Red. masses --      1.0589                 1.0401                 1.1022
 Frc consts  --      1.4729                 3.5597                 5.0095
 IR Inten    --    192.6793               430.2275               309.3029

 - Thermochemistry -
 -------------------
 Temperature   298.150 Kelvin.  Pressure   1.00000 Atm.
 Atom     1 has atomic number  6 and mass  12.00000

 Molecular mass:    51.02348 amu.
 Principal axes and moments of inertia in atomic units:
                           1         2         3
     Eigenvalues --   159.68761 179.21364 338.90109
           X            0.97684   0.21396   0.00001
           Y           -0.21396   0.97684  -0.00012
           Z           -0.00003   0.00012   1.00000
 This molecule is an asymmetric top.
 Rotational symmetry number  1.
 Rotational temperatures (Kelvin)      0.54240     0.48330     0.25557
 Rotational constants (GHZ):          11.30170    10.07033     5.32527
 Zero-point vibrational energy      93171.9 (Joules/Mol)
                                   22.26862 (Kcal/Mol)
 Warning -- explicit consideration of   5 degrees of freedom as
           vibrations may cause significant error
 Vibrational temperatures:    252.88   374.83   520.22   535.27   587.83
          (Kelvin)            962.49  1056.33  1328.40  1385.76  1720.40
                             1947.72  2065.38  2210.73  3467.68  3996.07

 Zero-point correction=                           0.035487 (Hartree/Particle)
 Thermal correction to Energy=                    0.040733
 Thermal correction to Enthalpy=                  0.041677
 Thermal correction to Gibbs Free Energy=         0.008614
 Sum of electronic and zero-point Energies=           -152.036205
 Sum of electronic and thermal Energies=              -152.030960
 Sum of electronic and thermal Enthalpies=            -152.030015
 Sum of electronic and thermal Free Energies=         -152.063079

                     E (Thermal)             CV                S
                      KCal/Mol        Cal/Mol-Kelvin    Cal/Mol-Kelvin
 Total                   25.560             17.149             69.588
 Electronic               0.000              0.000              0.000
 Translational            0.889              2.981             37.712
 Rotational               0.889              2.981             23.788
 Vibrational             23.783             11.187              8.088
 Vibration     1          0.628              1.872              2.373
 Vibration     2          0.669              1.745              1.658
 Vibration     3          0.736              1.551              1.115
 Vibration     4          0.744              1.530              1.071
 Vibration     5          0.773              1.452              0.932

 Normal termination of Gaussian 09 at Sun Jun 19 06:44:54 2016.
