 Gaussian 09, Revision E.01,
 Gaussian 09:  EM64L-G09RevE.01 30-Nov-2015

 ---------------------------------------------
 #p b3lyp/6-311++G(3df,2p) freq symmetry=Loose
 ---------------------------------------------

 ---------
 b3lyp opt
 ---------
 Symbolic Z-matrix:
 Charge =  3 Multiplicity = 3

                         Standard orientation:
 ---------------------------------------------------------------------
 Center     Atomic      Atomic             Coordinates (Angstroms)
 Number     Number       Type             X           Y           Z
 ---------------------------------------------------------------------
      1          6           0        0.000000   -0.000000   -1.135042
      2          6           0       -0.000000    0.807021    0.081758
      3          1           0       -0.839164   -0.000333   -2.032945
      4          1           0        0.839164    0.000333   -2.032945
      5          6           0       -0.000000   -0.807021    0.081758
      6          6           0       -0.000000    0.000000    1.251347
      7          1           0       -0.000000    0.000000    2.386959
 ---------------------------------------------------------------------

 SCF Done:  E(UB3LYP) =  -152.186076029     A.U. after   13 cycles

 The electronic state is 3-B.
 Alpha  occ. eigenvalues --  -11.18367 -11.18352 -11.11217 -11.09764  -1.83498
 Alpha  occ. eigenvalues --   -1.56643  -1.40740  -1.36217  -1.27785  -1.26484
 Alpha  occ. eigenvalues --   -1.25201  -1.16979  -1.13171
 Alpha virt. eigenvalues --   -0.91783  -0.88169  -0.84187  -0.65224  -0.61611
 Alpha virt. eigenvalues --   -0.59795  -0.57316  -0.54285  -0.53611  -0.50836
 Alpha virt. eigenvalues --   -0.45716  -0.44709  -0.43253  -0.42238  -0.39705

  Beta  occ. eigenvalues --  -11.17046 -11.17039 -11.10809 -11.09287  -1.81757
  Beta  occ. eigenvalues --   -1.54606  -1.35967  -1.33280  -1.25099  -1.24319
  Beta  occ. eigenvalues --   -1.23285
  Beta virt. eigenvalues --   -1.01805  -1.00757  -0.88416  -0.81042  -0.79649
  Beta virt. eigenvalues --   -0.63118  -0.60567  -0.55994  -0.55422  -0.53129
  Beta virt. eigenvalues --   -0.52292  -0.48585  -0.45126  -0.43935  -0.42573

 Mulliken charges and spin densities:
               1          2
     1  C   -0.328926   0.264461
     2  C    1.017033   0.570515
     3  H    0.408318   0.171951
     4  H    0.408318   0.171951
     5  C    1.017033   0.570515
     6  C    0.016782   0.240415
     7  H    0.461443   0.010192
 Sum of Mulliken charges =   3.00000   2.00000

 Dipole moment (field-independent basis, Debye):
    X=             -0.0000    Y=             -0.0000    Z=             -2.0539  Tot=              2.0539
 Quadrupole moment (field-independent basis, Debye-Ang):
   XX=            -13.7323   YY=            -11.2978   ZZ=             15.9001
   XY=              0.0013   XZ=              0.0000   YZ=              0.0000

  Exact polarizability:  19.592   0.001  25.279  -0.000  -0.000  44.493
 Approx polarizability:  30.007   0.002  61.101  -0.000   0.000  77.444

                      1                      2                      3
                      B                      A                      B
 Frequencies --    386.3818               563.9430               573.0257
 Red. masses --      1.8188                 1.0910                 3.9786
 Frc consts  --      0.1600                 0.2044                 0.7697
 IR Inten    --     71.1964                 0.0000                16.5670

                      4                      5                      6
                      B                      B                      B
 Frequencies --    690.6113               735.9984               806.5236
 Red. masses --      1.9719                 3.6271                 1.4057
 Frc consts  --      0.5541                 1.1576                 0.5387
 IR Inten    --     74.6147                 9.1067                21.2155

                      7                      8                      9
                      A                      B                      A
 Frequencies --    865.9122               932.7914               946.6923
 Red. masses --      5.7700                 1.5778                 1.1075
 Frc consts  --      2.5490                 0.8088                 0.5848
 IR Inten    --     34.3350               176.9680               489.2231

                     10                     11                     12
                      B                      A                      A
 Frequencies --    988.6471              1166.1591              1305.2435
 Red. masses --      1.3603                 6.7823                 4.9642
 Frc consts  --      0.7834                 5.4343                 4.9829
 IR Inten    --     28.1438                 0.0085               240.2644

                     13                     14                     15
                      B                      A                      A
 Frequencies --   1589.2462              2137.0331              2719.8495
 Red. masses --      1.0490                 1.1616                 1.1276
 Frc consts  --      1.5610                 3.1256                 4.9147
 IR Inten    --    779.5312              1285.8097               623.6628

 - Thermochemistry -
 -------------------
 Temperature   298.150 Kelvin.  Pressure   1.00000 Atm.
 Atom     1 has atomic number  6 and mass  12.00000

 Molecular mass:    51.02348 amu.
 Principal axes and moments of inertia in atomic units:
                           1         2         3
     Eigenvalues --    60.88738 178.01158 228.76134
           X            0.00000   0.00004   1.00000
           Y            0.00000   1.00000  -0.00004
           Z            1.00000   0.00000   0.00000
 This molecule is an asymmetric top.
 Rotational symmetry number  2.
 Rotational temperatures (Kelvin)      1.42252     0.48656     0.37862
 Rotational constants (GHZ):          29.64064    10.13834     7.88919
 Zero-point vibrational energy      98142.0 (Joules/Mol)
                                   23.45650 (Kcal/Mol)
 Warning -- explicit consideration of   3 degrees of freedom as
           vibrations may cause significant error
 Vibrational temperatures:    555.92   811.39   824.46   993.63  1058.94
          (Kelvin)           1160.41  1245.85  1342.08  1362.08  1422.44
                             1677.84  1877.95  2286.57  3074.71  3913.25

 Zero-point correction=                           0.037380 (Hartree/Particle)
 Thermal correction to Energy=                    0.041411
 Thermal correction to Enthalpy=                  0.042355
 Thermal correction to Gibbs Free Energy=         0.011783
 Sum of electronic and zero-point Energies=           -152.148696
 Sum of electronic and thermal Energies=              -152.144665
 Sum of electronic and thermal Enthalpies=            -152.143721
 Sum of electronic and thermal Free Energies=         -152.174293

                     E (Thermal)             CV                S
                      KCal/Mol        Cal/Mol-Kelvin    Cal/Mol-Kelvin
 Total                   25.986             14.179             64.344
 Electronic               0.000              0.000              2.183
 Translational            0.889              2.981             37.712
 Rotational               0.889              2.981             21.055
 Vibrational             24.208              8.217              3.394
 Vibration     1          0.755              1.499              1.014
 Vibration     2          0.920              1.109              0.516
 Vibration     3          0.929              1.090              0.498

 Optimization completed.
    -- Stationary point found.
 Normal termination of Gaussian 09 at Tue Jul 19 13:14:47 2016.
