 Gaussian 09, Revision E.01,
 Gaussian 09:  EM64L-G09RevE.01 30-Nov-2015

 ------------------------------------------------------
 #p b3lyp/6-311++G(3df,2p) freq IOp(2/17=3) IOp(2/18=3)
 ------------------------------------------------------

 ---------
 b3lyp opt
 ---------
 Symbolic Z-matrix:
 Charge =  1 Multiplicity = 1

                         Standard orientation:
 ---------------------------------------------------------------------
 Center     Atomic      Atomic             Coordinates (Angstroms)
 Number     Number       Type             X           Y           Z
 ---------------------------------------------------------------------
      1          6           0        0.910171    1.202994    0.000000
      2          1           0        1.295106    1.599428   -0.936520
      3          6           0        0.000000    0.230646    0.000000
      4          1           0        1.295106    1.599428    0.936520
      5          6           0       -0.156852   -1.175348    0.000000
      6          1           0        0.512675   -2.024864    0.000000
      7          6           0       -1.270424   -0.453929    0.000000
 ---------------------------------------------------------------------

 SCF Done:  E(RB3LYP) =  -153.779770618     A.U. after   11 cycles

 The electronic state is 1-A'.
 Alpha  occ. eigenvalues --  -10.52918 -10.50971 -10.48864 -10.48847  -1.20850
 Alpha  occ. eigenvalues --   -1.03279  -0.84612  -0.79548  -0.73177  -0.70606
 Alpha  occ. eigenvalues --   -0.64824  -0.62635  -0.51400
 Alpha virt. eigenvalues --   -0.36500  -0.30837  -0.25681  -0.16819  -0.14652
 Alpha virt. eigenvalues --   -0.11966  -0.11896  -0.10650  -0.09108  -0.08106
 Alpha virt. eigenvalues --   -0.07575  -0.05131  -0.04093  -0.03441  -0.02957

 Mulliken charges:
               1
     1  C   -0.403991
     2  H    0.259382
     3  C    0.396284
     4  H    0.259382
     5  C    0.255673
     6  H    0.321958
     7  C   -0.088689
 Sum of Mulliken charges =   1.00000

 Dipole moment (field-independent basis, Debye):
    X=              3.2263    Y=              0.0720    Z=              0.0000  Tot=              3.2271
 Quadrupole moment (field-independent basis, Debye-Ang):
   XX=            -19.1923   YY=             -9.7944   ZZ=            -19.2550
   XY=              3.6978   XZ=              0.0000   YZ=              0.0000

  Exact polarizability:  49.944  17.710  49.697   0.000   0.000  25.332
 Approx polarizability: 121.805  59.849 103.659  -0.000   0.000  37.805

                      1                      2                      3
                     A'                     A"                     A"
 Frequencies --    286.9083               386.6407               460.7340
 Red. masses --      3.5892                 2.4508                 1.1565
 Frc consts  --      0.1741                 0.2159                 0.1446
 IR Inten    --      5.2618                 2.8398                 1.2697

                      4                      5                      6
                     A'                     A"                     A'
 Frequencies --    795.9112               842.5463               881.3255
 Red. masses --      7.1947                 1.2607                 2.6601
 Frc consts  --      2.6853                 0.5273                 1.2174
 IR Inten    --     69.9267                19.6272                26.6283

                      7                      8                      9
                     A'                     A"                     A'
 Frequencies --    982.0096               982.2100               998.0315
 Red. masses --      1.6753                 1.6732                 1.3606
 Frc consts  --      0.9518                 0.9511                 0.7985
 IR Inten    --     11.9952                 6.3997                29.2185

                     10                     11                     12
                     A'                     A'                     A'
 Frequencies --   1340.4888              1446.6410              1725.8942
 Red. masses --      1.7125                 2.2942                 7.5675
 Frc consts  --      1.8131                 2.8288                13.2810
 IR Inten    --     52.4642                 3.6694                 6.4631

                     13                     14                     15
                     A'                     A"                     A'
 Frequencies --   3100.6053              3196.5202              3240.8704
 Red. masses --      1.0552                 1.1174                 1.1213
 Frc consts  --      5.9767                 6.7267                 6.9388
 IR Inten    --    117.4862                63.8547               112.5877

 - Thermochemistry -
 -------------------
 Temperature   298.150 Kelvin.  Pressure   1.00000 Atm.
 Atom     1 has atomic number  6 and mass  12.00000

 Molecular mass:    51.02348 amu.
 Principal axes and moments of inertia in atomic units:
                           1         2         3
     Eigenvalues --    54.54923 241.55014 283.47306
           X            0.61111   0.79154   0.00000
           Y            0.79154  -0.61111   0.00000
           Z            0.00000  -0.00000   1.00000
 This molecule is an asymmetric top.
 Rotational symmetry number  1.
 Rotational temperatures (Kelvin)      1.58781     0.35857     0.30555
 Rotational constants (GHZ):          33.08463     7.47150     6.36654
 Zero-point vibrational energy     123618.1 (Joules/Mol)
                                   29.54544 (Kcal/Mol)
 Warning -- explicit consideration of   3 degrees of freedom as
           vibrations may cause significant error
 Vibrational temperatures:    412.80   556.29   662.89  1145.14  1212.23
          (Kelvin)           1268.03  1412.89  1413.18  1435.94  1928.66
                             2081.39  2483.17  4461.07  4599.07  4662.88

 Zero-point correction=                           0.047084 (Hartree/Particle)
 Thermal correction to Energy=                    0.051269
 Thermal correction to Enthalpy=                  0.052213
 Thermal correction to Gibbs Free Energy=         0.021474
 Sum of electronic and zero-point Energies=           -153.732687
 Sum of electronic and thermal Energies=              -153.728502
 Sum of electronic and thermal Enthalpies=            -153.727558
 Sum of electronic and thermal Free Energies=         -153.758297

                     E (Thermal)             CV                S
                      KCal/Mol        Cal/Mol-Kelvin    Cal/Mol-Kelvin
 Total                   32.171             13.689             64.695
 Electronic               0.000              0.000              0.000
 Translational            0.889              2.981             37.712
 Rotational               0.889              2.981             22.839
 Vibrational             30.394              7.728              4.143
 Vibration     1          0.684              1.698              1.492
 Vibration     2          0.755              1.499              1.013
 Vibration     3          0.819              1.337              0.764

 Optimization completed.
    -- Stationary point found.
 Normal termination of Gaussian 09 at Thu Jan 31 05:20:00 2019.
