 Gaussian 09, Revision E.01,
 Gaussian 09:  EM64L-G09RevE.01 30-Nov-2015

 ---------------------------------------------
 #p b3lyp/6-311++G(3df,2p) freq symmetry=Loose
 ---------------------------------------------

 ---------
 b3lyp opt
 ---------
 Symbolic Z-matrix:
 Charge =  3 Multiplicity = 1

                         Standard orientation:
 ---------------------------------------------------------------------
 Center     Atomic      Atomic             Coordinates (Angstroms)
 Number     Number       Type             X           Y           Z
 ---------------------------------------------------------------------
      1          6           0        0.690183   -0.973652   -0.000000
      2          1           0        1.748696   -1.381124   -0.000000
      3          6           0       -0.688778   -0.976350   -0.000000
      4          1           0       -1.747679   -1.382998   -0.000000
      5          6           0       -0.000000    0.306437    0.000000
      6          6           0       -0.001125    1.638834    0.000000
      7          1           0       -0.002695    2.792511    0.000000
 ---------------------------------------------------------------------

 SCF Done:  E(RB3LYP) =  -152.307771179     A.U. after   12 cycles

 The electronic state is 1-A'.
 Alpha  occ. eigenvalues --  -11.19497 -11.08597 -11.08525 -11.06343  -1.73804
 Alpha  occ. eigenvalues --   -1.58289  -1.34754  -1.33432  -1.28120  -1.19496
 Alpha  occ. eigenvalues --   -1.18025  -1.15512
 Alpha virt. eigenvalues --   -0.99173  -0.93541  -0.78857  -0.75079  -0.64199
 Alpha virt. eigenvalues --   -0.59638  -0.55736  -0.55602  -0.53345  -0.50072
 Alpha virt. eigenvalues --   -0.44868  -0.44079  -0.43213  -0.41195  -0.39823

 Mulliken charges:
               1
     1  C    0.374034
     2  H    0.459830
     3  C    0.372089
     4  H    0.460129
     5  C    0.256521
     6  C    0.533713
     7  H    0.543684
 Sum of Mulliken charges =   3.00000

 Dipole moment (field-independent basis, Debye):
    X=             -0.0089    Y=              2.9441    Z=              0.0000  Tot=              2.9441
 Quadrupole moment (field-independent basis, Debye-Ang):
   XX=             -3.7941   YY=             20.6598   ZZ=            -16.3583
   XY=             -0.0113   XZ=             -0.0000   YZ=              0.0000

  Exact polarizability:  25.782  -0.010  51.117  -0.000   0.000  16.576
 Approx polarizability:  39.598  -0.018 135.951  -0.000   0.000  24.836

                      1                      2                      3
                     A'                     A"                     A'
 Frequencies --    219.4550               288.1025               636.4012
 Red. masses --      2.4301                 3.1585                 5.4322
 Frc consts  --      0.0690                 0.1545                 1.2962
 IR Inten    --     65.8887                53.5294               134.0988

                      4                      5                      6
                     A"                     A"                     A'
 Frequencies --    768.3551               803.1736               805.6543
 Red. masses --      1.1514                 1.4846                 2.9488
 Frc consts  --      0.4005                 0.5643                 1.1277
 IR Inten    --     41.4943                 0.0016                 1.5482

                      7                      8                      9
                     A'                     A'                     A"
 Frequencies --    889.0495               894.0713               904.5267
 Red. masses --      1.3816                 1.3680                 1.4879
 Frc consts  --      0.6434                 0.6443                 0.7173
 IR Inten    --      1.3153                 8.0075                23.2235

                     10                     11                     12
                     A'                     A'                     A'
 Frequencies --    972.2500              1310.9400              1597.6730
 Red. masses --      1.4968                 4.9647                 5.2225
 Frc consts  --      0.8336                 5.0270                 7.8542
 IR Inten    --      0.0587                 2.0696              1526.7773

                     13                     14                     15
                     A'                     A'                     A'
 Frequencies --   2614.0968              2700.7080              2764.0598
 Red. masses --      1.1824                 1.0955                 1.1584
 Frc consts  --      4.7606                 4.7079                 5.2144
 IR Inten    --    598.3478               902.8424               254.4780

 - Thermochemistry -
 -------------------
 Temperature   298.150 Kelvin.  Pressure   1.00000 Atm.
 Atom     1 has atomic number  6 and mass  12.00000

 Molecular mass:    51.02348 amu.
 Principal axes and moments of inertia in atomic units:
                           1         2         3
     Eigenvalues --    62.74137 242.40556 305.14693
           X           -0.00044   1.00000   0.00000
           Y            1.00000   0.00044   0.00000
           Z           -0.00000  -0.00000   1.00000
 This molecule is an asymmetric top.
 Rotational symmetry number  1.
 Rotational temperatures (Kelvin)      1.38049     0.35731     0.28384
 Rotational constants (GHZ):          28.76477     7.44513     5.91434
 Zero-point vibrational energy     108671.9 (Joules/Mol)
                                   25.97320 (Kcal/Mol)
 Warning -- explicit consideration of   2 degrees of freedom as
           vibrations may cause significant error
 Vibrational temperatures:    315.75   414.51   915.64  1105.49  1155.59
          (Kelvin)           1159.16  1279.14  1286.37  1301.41  1398.85
                             1886.15  2298.69  3761.10  3885.71  3976.86

 Zero-point correction=                           0.041391 (Hartree/Particle)
 Thermal correction to Energy=                    0.045793
 Thermal correction to Enthalpy=                  0.046737
 Thermal correction to Gibbs Free Energy=         0.015466
 Sum of electronic and zero-point Energies=           -152.266380
 Sum of electronic and thermal Energies=              -152.261979
 Sum of electronic and thermal Enthalpies=            -152.261034
 Sum of electronic and thermal Free Energies=         -152.292305

                     E (Thermal)             CV                S
                      KCal/Mol        Cal/Mol-Kelvin    Cal/Mol-Kelvin
 Total                   28.735             14.540             65.814
 Electronic               0.000              0.000              0.000
 Translational            0.889              2.981             37.712
 Rotational               0.889              2.981             23.055
 Vibrational             26.958              8.578              5.047
 Vibration     1          0.647              1.811              1.964
 Vibration     2          0.685              1.696              1.485

 Optimization completed.
    -- Stationary point found.
 Normal termination of Gaussian 09 at Sun Jun 19 06:49:55 2016.
