 Gaussian 09, Revision E.01,
 Gaussian 09:  EM64L-G09RevE.01 30-Nov-2015

 ------------------------------------------------------
 #p b3lyp/6-311++G(3df,2p) freq IOp(2/17=3) IOp(2/18=3)
 ------------------------------------------------------

 ---------
 b3lyp opt
 ---------
 Symbolic Z-matrix:
 Charge =  2 Multiplicity = 2

                         Standard orientation:
 ---------------------------------------------------------------------
 Center     Atomic      Atomic             Coordinates (Angstroms)
 Number     Number       Type             X           Y           Z
 ---------------------------------------------------------------------
      1          6           0       -0.257699   -0.791526    0.000000
      2          1           0       -0.799513   -1.234724    0.917403
      3          1           0       -0.799513   -1.234724   -0.917403
      4          6           0        0.730260   -1.792092    0.000000
      5          6           0       -0.140882    0.629623    0.000000
      6          6           0       -0.065148    1.872131    0.000000
      7          1           0        0.000000    2.960632    0.000000
 ---------------------------------------------------------------------

 SCF Done:  E(UB3LYP) =  -153.084326797     A.U. after   23 cycles

 The electronic state is 2-A'.
 Alpha  occ. eigenvalues --  -10.87358 -10.76583 -10.75973 -10.75064  -1.37849
 Alpha  occ. eigenvalues --   -1.30090  -1.14032  -1.01657  -0.99283  -0.98502
 Alpha  occ. eigenvalues --   -0.86325  -0.81809  -0.80842
 Alpha virt. eigenvalues --   -0.63432  -0.61457  -0.51156  -0.48377  -0.37053
 Alpha virt. eigenvalues --   -0.33133  -0.32117  -0.30531  -0.28416  -0.26472
 Alpha virt. eigenvalues --   -0.25483  -0.23862  -0.21068  -0.20144  -0.19849

  Beta  occ. eigenvalues --  -10.87189 -10.75844 -10.75224 -10.75094  -1.37040
  Beta  occ. eigenvalues --   -1.26785  -1.13054  -1.00867  -0.98754  -0.98301
  Beta  occ. eigenvalues --   -0.83142  -0.79806
  Beta virt. eigenvalues --   -0.70110  -0.63045  -0.61309  -0.47629  -0.46023
  Beta virt. eigenvalues --   -0.36437  -0.31977  -0.31861  -0.29897  -0.28173
  Beta virt. eigenvalues --   -0.25975  -0.25361  -0.23494  -0.20917  -0.20017

 Mulliken charges and spin densities:
               1          2
     1  C   -0.226086  -0.080234
     2  H    0.348779   0.016250
     3  H    0.348779   0.016250
     4  C    0.210196   0.098964
     5  C    0.252935   0.540398
     6  C    0.613170   0.421388
     7  H    0.452227  -0.013017
 Sum of Mulliken charges =   2.00000   1.00000

 Dipole moment (field-independent basis, Debye):
    X=             -0.8357    Y=              0.2696    Z=             -0.0000  Tot=              0.8781
 Quadrupole moment (field-independent basis, Debye-Ang):
   XX=            -15.7240   YY=             10.8903   ZZ=            -17.2818
   XY=              0.3089   XZ=              0.0000   YZ=              0.0000

  Exact polarizability:  27.206  -5.678  67.564   0.000  -0.000  25.088
 Approx polarizability:  47.385 -14.752 114.601  -0.000  -0.000  37.249

                      1                      2                      3
                     A'                     A"                     A"
 Frequencies --    208.8396               268.3940               404.5600
 Red. masses --      5.2023                 2.3078                 2.0915
 Frc consts  --      0.1337                 0.0979                 0.2017
 IR Inten    --      7.2018                28.4648                 0.0003

                      4                      5                      6
                     A'                     A"                     A'
 Frequencies --    430.5109               740.5973               749.9415
 Red. masses --      3.6475                 1.2490                 2.1645
 Frc consts  --      0.3983                 0.4036                 0.7173
 IR Inten    --     10.4888                39.9195                14.0866

                      7                      8                      9
                     A'                     A'                     A"
 Frequencies --    780.4576               928.1626               948.1382
 Red. masses --      1.6086                 1.7140                 1.1800
 Frc consts  --      0.5773                 0.8700                 0.6250
 IR Inten    --      4.4204                 5.7562                 2.5842

                     10                     11                     12
                     A'                     A'                     A'
 Frequencies --   1197.7450              1380.8668              2049.0510
 Red. masses --      1.2073                 4.3476                 5.9188
 Frc consts  --      1.0205                 4.8843                14.6416
 IR Inten    --    124.2765               328.8249                87.3812

                     13                     14                     15
                     A"                     A'                     A'
 Frequencies --   2553.9670              2555.4118              3195.1658
 Red. masses --      1.0865                 1.0554                 1.1691
 Frc consts  --      4.1757                 4.0607                 7.0322
 IR Inten    --    297.1201               297.8177               349.4462

 - Thermochemistry -
 -------------------
 Temperature   298.150 Kelvin.  Pressure   1.00000 Atm.
 Atom     1 has atomic number  6 and mass  12.00000

 Molecular mass:    51.02348 amu.
 Principal axes and moments of inertia in atomic units:
                           1         2         3
     Eigenvalues --    30.29378 387.13657 405.31423
           X           -0.13926   0.99026   0.00000
           Y            0.99026   0.13926   0.00000
           Z           -0.00000   0.00000   1.00000
 This molecule is an asymmetric top.
 Rotational symmetry number  1.
 Rotational temperatures (Kelvin)      2.85913     0.22373     0.21370
 Rotational constants (GHZ):          59.57464     4.66177     4.45270
 Zero-point vibrational energy     110007.4 (Joules/Mol)
                                   26.29241 (Kcal/Mol)
 Warning -- explicit consideration of   4 degrees of freedom as
           vibrations may cause significant error
 Vibrational temperatures:    300.47   386.16   582.07   619.41  1065.55
          (Kelvin)           1079.00  1122.90  1335.42  1364.16  1723.29
                             1986.76  2948.12  3674.58  3676.66  4597.13

 Zero-point correction=                           0.041900 (Hartree/Particle)
 Thermal correction to Energy=                    0.046721
 Thermal correction to Enthalpy=                  0.047665
 Thermal correction to Gibbs Free Energy=         0.015037
 Sum of electronic and zero-point Energies=           -153.042427
 Sum of electronic and thermal Energies=              -153.037606
 Sum of electronic and thermal Enthalpies=            -153.036662
 Sum of electronic and thermal Free Energies=         -153.069290

                     E (Thermal)             CV                S
                      KCal/Mol        Cal/Mol-Kelvin    Cal/Mol-Kelvin
 Total                   29.318             15.790             68.672
 Electronic               0.000              0.000              1.377
 Translational            0.889              2.981             37.712
 Rotational               0.889              2.981             23.079
 Vibrational             27.540              9.829              6.503
 Vibration     1          0.642              1.827              2.054
 Vibration     2          0.673              1.731              1.607
 Vibration     3          0.770              1.460              0.946
 Vibration     4          0.792              1.404              0.857

 Optimization completed.
    -- Stationary point found.
 Normal termination of Gaussian 09 at Thu Jan 31 05:31:17 2019.
