 Gaussian 09, Revision E.01,
 Gaussian 09:  EM64L-G09RevE.01 30-Nov-2015

 ---------------------------------------------
 #p b3lyp/6-311++G(3df,2p) freq symmetry=Loose
 ---------------------------------------------

 ---------
 b3lyp opt
 ---------
 Symbolic Z-matrix:
 Charge =  0 Multiplicity = 4

                         Standard orientation:
 ---------------------------------------------------------------------
 Center     Atomic      Atomic             Coordinates (Angstroms)
 Number     Number       Type             X           Y           Z
 ---------------------------------------------------------------------
      1          6           0        1.198181   -0.654842    0.105585
      2          6           0        1.196552    0.655210    0.105734
      3          6           0       -0.050679   -0.000122   -0.430573
      4          6           0       -1.440705   -0.000350    0.103618
      5          1           0       -1.462405   -0.009551    1.199598
      6          1           0       -1.974939    0.884725   -0.245435
      7          1           0       -1.982752   -0.874547   -0.260341
 ---------------------------------------------------------------------

 SCF Done:  E(UB3LYP) =  -153.954347205     A.U. after   15 cycles

 The electronic state is 4-A.
 Alpha  occ. eigenvalues --  -10.25971 -10.25870 -10.24143 -10.19120  -0.93049
 Alpha  occ. eigenvalues --   -0.75573  -0.55764  -0.51555  -0.45342  -0.43976
 Alpha  occ. eigenvalues --   -0.42636  -0.37277  -0.34698  -0.26112  -0.19988
 Alpha virt. eigenvalues --   -0.03579  -0.00418   0.02689   0.02812   0.03766
 Alpha virt. eigenvalues --    0.05029   0.05577   0.07372   0.08190   0.08916
 Alpha virt. eigenvalues --    0.11178   0.11203   0.12223   0.12367   0.12829

  Beta  occ. eigenvalues --  -10.24266 -10.24182 -10.22255 -10.19018  -0.89367
  Beta  occ. eigenvalues --   -0.74215  -0.51494  -0.45523  -0.43642  -0.40204
  Beta  occ. eigenvalues --   -0.39151  -0.33046
  Beta virt. eigenvalues --   -0.19269  -0.12011  -0.05975  -0.00131  -0.00008
  Beta virt. eigenvalues --    0.02815   0.02947   0.04521   0.05463   0.06116
  Beta virt. eigenvalues --    0.07511   0.08609   0.09578   0.11353   0.12133

 Mulliken charges and spin densities:
               1          2
     1  C   -0.034790   0.992168
     2  C   -0.032471   0.988346
     3  C    0.073035   0.940065
     4  C   -0.445792  -0.023685
     5  H    0.133426   0.060941
     6  H    0.153459   0.021280
     7  H    0.153133   0.020885
 Sum of Mulliken charges =  -0.00000   3.00000

 Dipole moment (field-independent basis, Debye):
    X=             -1.5593    Y=             -0.0011    Z=              0.5880  Tot=              1.6664
 Quadrupole moment (field-independent basis, Debye-Ang):
   XX=            -24.2825   YY=            -24.1705   ZZ=            -25.5279
   XY=             -0.0039   XZ=              0.0424   YZ=             -0.0001

  Exact polarizability:  59.173  -0.008  44.412   1.275  -0.012  39.415
 Approx polarizability:  77.828  -0.058  84.048   5.509  -0.017  55.695

                      1                      2                      3
                      A                      A                      A
 Frequencies --    125.0942               349.5325               372.7369
 Red. masses --      1.2011                 4.3477                 3.6043
 Frc consts  --      0.0111                 0.3130                 0.2950
 IR Inten    --      0.1483                 0.7931                 1.4354

                      4                      5                      6
                      A                      A                      A
 Frequencies --    509.6965               771.8893              1017.1481
 Red. masses --      8.6639                 4.1894                 1.4050
 Frc consts  --      1.3261                 1.4707                 0.8564
 IR Inten    --     24.2100                 2.1795                 4.0500

                      7                      8                      9
                      A                      A                      A
 Frequencies --   1036.9249              1191.9630              1387.2482
 Red. masses --      1.6749                 6.2221                 1.1936
 Frc consts  --      1.0611                 5.2085                 1.3534
 IR Inten    --      0.8458                21.2329                 1.4305

                     10                     11                     12
                      A                      A                      A
 Frequencies --   1464.9654              1469.2683              1632.6834
 Red. masses --      1.0430                 1.0495                11.7438
 Frc consts  --      1.3189                 1.3348                18.4444
 IR Inten    --      7.9069                11.6019                26.5809

                     13                     14                     15
                      A                      A                      A
 Frequencies --   2980.2397              3060.3546              3083.6159
 Red. masses --      1.0458                 1.0856                 1.1001
 Frc consts  --      5.4726                 5.9906                 6.1630
 IR Inten    --     25.4466                 8.6669                 8.0974

 - Thermochemistry -
 -------------------
 Temperature   298.150 Kelvin.  Pressure   1.00000 Atm.
 Atom     1 has atomic number  6 and mass  12.00000

 Molecular mass:    51.02348 amu.
 Principal axes and moments of inertia in atomic units:
                           1         2         3
     Eigenvalues --    57.27384 260.75898 288.17075
           X            0.99992   0.00001  -0.01268
           Y           -0.00001   1.00000  -0.00012
           Z            0.01268   0.00012   0.99992
 This molecule is an asymmetric top.
 Rotational symmetry number  1.
 Rotational temperatures (Kelvin)      1.51228     0.33216     0.30056
 Rotational constants (GHZ):          31.51074     6.92111     6.26275
 Zero-point vibrational energy     122338.3 (Joules/Mol)
                                   29.23955 (Kcal/Mol)
 Warning -- explicit consideration of   4 degrees of freedom as
           vibrations may cause significant error
 Vibrational temperatures:    179.98   502.90   536.28   733.34  1110.58
          (Kelvin)           1463.45  1491.90  1714.97  1995.94  2107.76
                             2113.95  2349.06  4287.89  4403.16  4436.63

 Zero-point correction=                           0.046596 (Hartree/Particle)
 Thermal correction to Energy=                    0.051225
 Thermal correction to Enthalpy=                  0.052169
 Thermal correction to Gibbs Free Energy=         0.018989
 Sum of electronic and zero-point Energies=           -153.907751
 Sum of electronic and thermal Energies=              -153.903123
 Sum of electronic and thermal Enthalpies=            -153.902178
 Sum of electronic and thermal Free Energies=         -153.935358

                     E (Thermal)             CV                S
                      KCal/Mol        Cal/Mol-Kelvin    Cal/Mol-Kelvin
 Total                   32.144             14.154             69.833
 Electronic               0.000              0.000              2.755
 Translational            0.889              2.981             37.712
 Rotational               0.889              2.981             22.980
 Vibrational             30.367              8.192              6.386
 Vibration     1          0.610              1.928              3.020
 Vibration     2          0.727              1.576              1.168
 Vibration     3          0.744              1.528              1.069
 Vibration     4          0.865              1.229              0.634

 Normal termination of Gaussian 09 at Sun Jun 19 05:51:23 2016.
