 Gaussian 09, Revision E.01,
 Gaussian 09:  EM64L-G09RevE.01 30-Nov-2015

 ---------------------------------------------
 #p b3lyp/6-311++G(3df,2p) freq symmetry=Loose
 ---------------------------------------------

 ---------
 b3lyp opt
 ---------
 Symbolic Z-matrix:
 Charge =  0 Multiplicity = 4

                         Standard orientation:
 ---------------------------------------------------------------------
 Center     Atomic      Atomic             Coordinates (Angstroms)
 Number     Number       Type             X           Y           Z
 ---------------------------------------------------------------------
      1          6           0       -0.593624    1.621117    0.000000
      2          1           0       -0.854721    2.130270    0.923409
      3          1           0       -0.854721    2.130270   -0.923409
      4          6           0        0.000000    0.466177    0.000000
      5          6           0        0.618814   -0.715627   -0.000000
      6          1           0        1.710650   -0.736428   -0.000000
      7          6           0       -0.025392   -1.959019   -0.000000
 ---------------------------------------------------------------------

 SCF Done:  E(UB3LYP) =  -153.985954422     A.U. after   17 cycles

 The electronic state is 4-A".
 Alpha  occ. eigenvalues --  -10.24416 -10.22288 -10.21127 -10.19687  -0.83586
 Alpha  occ. eigenvalues --   -0.76159  -0.63459  -0.52797  -0.48755  -0.46748
 Alpha  occ. eigenvalues --   -0.39590  -0.34415  -0.29526  -0.23771  -0.21050
 Alpha virt. eigenvalues --   -0.01846  -0.00335   0.00785   0.01883   0.03227
 Alpha virt. eigenvalues --    0.04373   0.05980   0.07577   0.07613   0.08769
 Alpha virt. eigenvalues --    0.10851   0.11208   0.11213   0.12455   0.13197

  Beta  occ. eigenvalues --  -10.22335 -10.20385 -10.20295 -10.19688  -0.81421
  Beta  occ. eigenvalues --   -0.74179  -0.58025  -0.50399  -0.47526  -0.45544
  Beta  occ. eigenvalues --   -0.31093  -0.29393
  Beta virt. eigenvalues --   -0.17690  -0.07426  -0.05191  -0.00799  -0.00043
  Beta virt. eigenvalues --    0.02233   0.02681   0.04310   0.05416   0.06397
  Beta virt. eigenvalues --    0.08024   0.08253   0.09653   0.11318   0.11679

 Mulliken charges and spin densities:
               1          2
     1  C   -0.534714  -0.081475
     2  H    0.167478   0.036253
     3  H    0.167478   0.036253
     4  C    0.494804   0.425154
     5  C   -0.178987  -0.126875
     6  H    0.145450   0.075195
     7  C   -0.261511   2.635495
 Sum of Mulliken charges =  -0.00000   3.00000

 Dipole moment (field-independent basis, Debye):
    X=              0.2589    Y=              1.2730    Z=             -0.0000  Tot=              1.2991
 Quadrupole moment (field-independent basis, Debye-Ang):
   XX=            -23.3682   YY=            -23.5055   ZZ=            -24.6400
   XY=             -1.8553   XZ=              0.0000   YZ=             -0.0000

  Exact polarizability:  42.352 -10.698  90.761   0.000  -0.000  34.954
 Approx polarizability:  60.611 -18.031 145.240   0.000  -0.000  46.949

                      1                      2                      3
                     A'                     A"                     A"
 Frequencies --    225.1618               230.0172               557.4696
 Red. masses --      5.0232                 2.6084                 1.3762
 Frc consts  --      0.1500                 0.0813                 0.2520
 IR Inten    --      1.8002                 7.6767                 1.2577

                      4                      5                      6
                     A'                     A"                     A'
 Frequencies --    600.0761               786.9463               907.4128
 Red. masses --      7.1220                 1.3008                 1.3228
 Frc consts  --      1.5110                 0.4746                 0.6418
 IR Inten    --      4.6328                10.7857                46.9655

                      7                      8                      9
                     A"                     A'                     A'
 Frequencies --    992.1936              1006.7461              1116.9315
 Red. masses --      1.4062                 3.9635                 4.3205
 Frc consts  --      0.8156                 2.3668                 3.1757
 IR Inten    --      0.8833                 2.2088                88.4861

                     10                     11                     12
                     A'                     A'                     A'
 Frequencies --   1277.3004              1449.6131              1894.5030
 Red. masses --      1.3238                 1.1861                10.0308
 Frc consts  --      1.2725                 1.4686                21.2117
 IR Inten    --     28.4847                 7.6098                10.5318

                     13                     14                     15
                     A'                     A'                     A"
 Frequencies --   3040.7033              3081.8196              3144.1205
 Red. masses --      1.0829                 1.0554                 1.1139
 Frc consts  --      5.8991                 5.9058                 6.4876
 IR Inten    --      0.5824                 8.2951                 2.2304

 - Thermochemistry -
 -------------------
 Temperature   298.150 Kelvin.  Pressure   1.00000 Atm.
 Atom     1 has atomic number  6 and mass  12.00000

 Molecular mass:    51.02348 amu.
 Principal axes and moments of inertia in atomic units:
                           1         2         3
     Eigenvalues --    35.15100 366.54914 389.42486
           X           -0.23509   0.97197   0.00000
           Y            0.97197   0.23509   0.00000
           Z           -0.00000  -0.00000   1.00000
 This molecule is an asymmetric top.
 Rotational symmetry number  1.
 Rotational temperatures (Kelvin)      2.46405     0.23630     0.22241
 Rotational constants (GHZ):          51.34254     4.92360     4.63438
 Zero-point vibrational energy     121486.8 (Joules/Mol)
                                   29.03605 (Kcal/Mol)
 Warning -- explicit consideration of   4 degrees of freedom as
           vibrations may cause significant error
 Vibrational temperatures:    323.96   330.94   802.07   863.37  1132.24
          (Kelvin)           1305.56  1427.54  1448.48  1607.01  1837.75
                             2085.67  2725.76  4374.89  4434.05  4523.68

 Zero-point correction=                           0.046272 (Hartree/Particle)
 Thermal correction to Energy=                    0.050738
 Thermal correction to Enthalpy=                  0.051682
 Thermal correction to Gibbs Free Energy=         0.018888
 Sum of electronic and zero-point Energies=           -153.939683
 Sum of electronic and thermal Energies=              -153.935216
 Sum of electronic and thermal Enthalpies=            -153.934272
 Sum of electronic and thermal Free Energies=         -153.967066

                     E (Thermal)             CV                S
                      KCal/Mol        Cal/Mol-Kelvin    Cal/Mol-Kelvin
 Total                   31.839             14.166             69.021
 Electronic               0.000              0.000              2.755
 Translational            0.889              2.981             37.712
 Rotational               0.889              2.981             23.133
 Vibrational             30.061              8.204              5.421
 Vibration     1          0.650              1.803              1.917
 Vibration     2          0.652              1.795              1.879
 Vibration     3          0.913              1.123              0.529
 Vibration     4          0.958              1.032              0.450

 Optimization completed.
    -- Stationary point found.
 Normal termination of Gaussian 09 at Tue Jul 19 10:47:13 2016.
