 Gaussian 09, Revision E.01,
 Gaussian 09:  EM64L-G09RevE.01 30-Nov-2015

 ---------------------------------------------
 #p b3lyp/6-311++G(3df,2p) freq symmetry=Loose
 ---------------------------------------------

 ---------
 b3lyp opt
 ---------
 Symbolic Z-matrix:
 Charge =  1 Multiplicity = 3

                         Standard orientation:
 ---------------------------------------------------------------------
 Center     Atomic      Atomic             Coordinates (Angstroms)
 Number     Number       Type             X           Y           Z
 ---------------------------------------------------------------------
      1          6           0        1.043629   -0.008656    0.101869
      2          6           0       -0.074890   -0.899663   -0.279017
      3          6           0       -1.167359   -0.211508    0.197847
      4          1           0        1.441245   -0.138504    1.103055
      5          1           0        1.788264    0.220333   -0.660614
      6          6           0       -0.274845    0.810993   -0.009059
      7          1           0       -0.388724    1.771173   -0.512285
 ---------------------------------------------------------------------

 SCF Done:  E(UB3LYP) =  -153.703509508     A.U. after   15 cycles

 The electronic state is 3-A.
 Alpha  occ. eigenvalues --  -10.54859 -10.52626 -10.52528 -10.47747  -1.23469
 Alpha  occ. eigenvalues --   -0.97069  -0.90077  -0.77125  -0.75428  -0.70630
 Alpha  occ. eigenvalues --   -0.68061  -0.61341  -0.56880  -0.53604
 Alpha virt. eigenvalues --   -0.31537  -0.29178  -0.16612  -0.15380  -0.13216
 Alpha virt. eigenvalues --   -0.12143  -0.10154  -0.08510  -0.07624  -0.07157
 Alpha virt. eigenvalues --   -0.06478  -0.05956  -0.04007  -0.02515  -0.01894

  Beta  occ. eigenvalues --  -10.53283 -10.52222 -10.50811 -10.47483  -1.21258
  Beta  occ. eigenvalues --   -0.95306  -0.87777  -0.74815  -0.71859  -0.69105
  Beta  occ. eigenvalues --   -0.65892  -0.58746
  Beta virt. eigenvalues --   -0.41222  -0.38155  -0.29057  -0.25563  -0.16160
  Beta virt. eigenvalues --   -0.14728  -0.12925  -0.11434  -0.09842  -0.08076
  Beta virt. eigenvalues --   -0.07322  -0.06984  -0.05933  -0.05229  -0.03276

 Mulliken charges and spin densities:
               1          2
     1  C   -0.319403   0.089225
     2  C    0.345937   0.788676
     3  C    0.132726   0.931259
     4  H    0.248988  -0.008560
     5  H    0.193862   0.038717
     6  C    0.141178   0.119509
     7  H    0.256712   0.041174
 Sum of Mulliken charges =   1.00000   2.00000

 Dipole moment (field-independent basis, Debye):
    X=              0.7717    Y=              1.1624    Z=             -0.3513  Tot=              1.4388
 Quadrupole moment (field-independent basis, Debye-Ang):
   XX=            -15.5931   YY=            -16.6162   ZZ=            -19.6581
   XY=             -0.4412   XZ=              0.4364   YZ=             -1.1515

  Exact polarizability:  40.563   0.441  36.462  -1.733   0.255  26.201
 Approx polarizability:  65.301   0.970  68.445  -5.321   3.357  39.543

                      1                      2                      3
                      A                      A                      A
 Frequencies --    460.0892               642.1352               683.4862
 Red. masses --      3.3474                 4.0278                 3.3269
 Frc consts  --      0.4175                 0.9785                 0.9157
 IR Inten    --      1.3425                 3.2891                 5.5753

                      4                      5                      6
                      A                      A                      A
 Frequencies --    888.6334               974.6538              1002.1499
 Red. masses --      1.5991                 1.3591                 1.3114
 Frc consts  --      0.7440                 0.7607                 0.7760
 IR Inten    --     33.0753                21.2999                10.4521

                      7                      8                      9
                      A                      A                      A
 Frequencies --   1057.6098              1090.2554              1166.0748
 Red. masses --      1.5141                 1.5412                 2.3789
 Frc consts  --      0.9978                 1.0794                 1.9058
 IR Inten    --      1.3266                12.4304                 7.7758

                     10                     11                     12
                      A                      A                      A
 Frequencies --   1247.3736              1424.3474              1497.3212
 Red. masses --      3.6517                 1.6186                 2.5310
 Frc consts  --      3.3476                 1.9348                 3.3433
 IR Inten    --     16.7079                 6.4912                 5.4767

                     13                     14                     15
                      A                      A                      A
 Frequencies --   3071.3665              3120.2593              3173.6247
 Red. masses --      1.0568                 1.0948                 1.1120
 Frc consts  --      5.8737                 6.2803                 6.5988
 IR Inten    --     42.8267                77.7943                30.5360

 - Thermochemistry -
 -------------------
 Temperature   298.150 Kelvin.  Pressure   1.00000 Atm.
 Atom     1 has atomic number  6 and mass  12.00000

 Molecular mass:    51.02348 amu.
 Principal axes and moments of inertia in atomic units:
                           1         2         3
     Eigenvalues --    88.36970 139.61995 203.93690
           X            0.99952  -0.02423   0.01928
           Y            0.02547   0.99742  -0.06708
           Z           -0.01761   0.06754   0.99756
 This molecule is an asymmetric top.
 Rotational symmetry number  1.
 Rotational temperatures (Kelvin)      0.98013     0.62035     0.42471
 Rotational constants (GHZ):          20.42262    12.92610     8.84951
 Zero-point vibrational energy     128594.9 (Joules/Mol)
                                   30.73491 (Kcal/Mol)
 Warning -- explicit consideration of   1 degrees of freedom as
           vibrations may cause significant error
 Vibrational temperatures:    661.96   923.89   983.38  1278.54  1402.31
          (Kelvin)           1441.87  1521.66  1568.63  1677.72  1794.69
                             2049.32  2154.31  4419.01  4489.35  4566.13

 Zero-point correction=                           0.048979 (Hartree/Particle)
 Thermal correction to Energy=                    0.052558
 Thermal correction to Enthalpy=                  0.053503
 Thermal correction to Gibbs Free Energy=         0.022900
 Sum of electronic and zero-point Energies=           -153.654530
 Sum of electronic and thermal Energies=              -153.650951
 Sum of electronic and thermal Enthalpies=            -153.650007
 Sum of electronic and thermal Free Energies=         -153.680609

                     E (Thermal)             CV                S
                      KCal/Mol        Cal/Mol-Kelvin    Cal/Mol-Kelvin
 Total                   32.981             11.586             64.408
 Electronic               0.000              0.000              2.183
 Translational            0.889              2.981             37.712
 Rotational               0.889              2.981             22.447
 Vibrational             31.203              5.624              2.066
 Vibration     1          0.818              1.339              0.766

 Optimization completed.
    -- Stationary point found.
 Normal termination of Gaussian 09 at Sun Jun 19 06:18:00 2016.
