 Gaussian 09, Revision E.01,
 Gaussian 09:  EM64L-G09RevE.01 30-Nov-2015

 ---------------------------------------------
 #p b3lyp/6-311++G(3df,2p) freq symmetry=Loose
 ---------------------------------------------

 ---------
 b3lyp opt
 ---------
 Symbolic Z-matrix:
 Charge =  0 Multiplicity = 2

                         Standard orientation:
 ---------------------------------------------------------------------
 Center     Atomic      Atomic             Coordinates (Angstroms)
 Number     Number       Type             X           Y           Z
 ---------------------------------------------------------------------
      1          6           0       -0.046684    1.762019   -0.000000
      2          1           0       -1.097699    2.069021   -0.000000
      3          1           0        0.417318    2.191848    0.891639
      4          1           0        0.417318    2.191848   -0.891639
      5          6           0        0.000000    0.325557   -0.000000
      6          6           0        0.027582   -0.920384    0.000000
      7          6           0        0.062945   -2.242645    0.000000
 ---------------------------------------------------------------------

 SCF Done:  E(UB3LYP) =  -154.065284891     A.U. after   19 cycles

 The electronic state is 2-A".
 Alpha  occ. eigenvalues --  -10.25181 -10.23206 -10.22502 -10.18900  -0.84258
 Alpha  occ. eigenvalues --   -0.77502  -0.67930  -0.51816  -0.48213  -0.47770
 Alpha  occ. eigenvalues --   -0.35538  -0.33985  -0.30273  -0.21265
 Alpha virt. eigenvalues --   -0.13374  -0.02434   0.01801   0.01855   0.02796
 Alpha virt. eigenvalues --    0.05907   0.05930   0.06276   0.07571   0.07795
 Alpha virt. eigenvalues --    0.09148   0.09495   0.09875   0.10484   0.13022

  Beta  occ. eigenvalues --  -10.24375 -10.23265 -10.21537 -10.19170  -0.83207
  Beta  occ. eigenvalues --   -0.76919  -0.65930  -0.51168  -0.47621  -0.47226
  Beta  occ. eigenvalues --   -0.33789  -0.32525  -0.28567
  Beta virt. eigenvalues --   -0.12213  -0.09634  -0.02395   0.01868   0.01986
  Beta virt. eigenvalues --    0.02874   0.05902   0.06326   0.06413   0.07581
  Beta virt. eigenvalues --    0.07871   0.09148   0.09968   0.10758   0.11672

 Mulliken charges and spin densities:
               1          2
     1  C   -0.417286  -0.039673
     2  H    0.171054  -0.000263
     3  H    0.166260   0.027831
     4  H    0.166260   0.027831
     5  C   -0.038492   0.504519
     6  C    0.702072  -0.113041
     7  C   -0.749868   0.592795
 Sum of Mulliken charges =  -0.00000   1.00000

 Dipole moment (field-independent basis, Debye):
    X=             -0.2418    Y=              5.3698    Z=             -0.0000  Tot=              5.3752
 Quadrupole moment (field-independent basis, Debye-Ang):
   XX=            -23.1715   YY=            -29.9200   ZZ=            -24.9005
   XY=             -0.0139   XZ=             -0.0000   YZ=             -0.0000

  Exact polarizability:  34.654  -1.420  85.624   0.000   0.000  36.703
 Approx polarizability:  50.343  -3.059 149.786   0.000  -0.000  48.290

                      1                      2                      3
                     A"                     A'                     A"
 Frequencies --     33.7695               165.6095               349.7072
 Red. masses --      4.7200                 5.6526                10.6708
 Frc consts  --      0.0032                 0.0913                 0.7689
 IR Inten    --      0.1530                 3.2101                 1.4292

                      4                      5                      6
                     A'                     A"                     A'
 Frequencies --    431.5125               526.9979               792.2971
 Red. masses --      3.8279                 1.2862                 4.8662
 Frc consts  --      0.4199                 0.2105                 1.7998
 IR Inten    --      2.4024                52.0230                 4.6440

                      7                      8                      9
                     A'                     A'                     A'
 Frequencies --   1013.8268              1366.2181              1402.2032
 Red. masses --      1.5440                 2.7140                 1.7139
 Frc consts  --      0.9350                 2.9847                 1.9855
 IR Inten    --      6.9412                43.4613                10.3240

                     10                     11                     12
                     A"                     A'                     A'
 Frequencies --   1421.3215              1472.1043              1995.2916
 Red. masses --      1.0257                 1.0700                11.6469
 Frc consts  --      1.2208                 1.3662                27.3194
 IR Inten    --     16.3915                15.7119               288.7593

                     13                     14                     15
                     A'                     A"                     A'
 Frequencies --   2997.0883              3053.7827              3055.4365
 Red. masses --      1.0329                 1.1052                 1.0967
 Frc consts  --      5.4666                 6.0723                 6.0323
 IR Inten    --      5.3178                 4.4598                12.2581

 - Thermochemistry -
 -------------------
 Temperature   298.150 Kelvin.  Pressure   1.00000 Atm.
 Atom     1 has atomic number  6 and mass  12.00000

 Molecular mass:    51.02348 amu.
 Principal axes and moments of inertia in atomic units:
                           1         2         3
     Eigenvalues --    11.26207 442.41429 442.59736
           X           -0.02814   0.00000   0.99960
           Y            0.99960   0.00000   0.02814
           Z           -0.00000   1.00000  -0.00000
 This molecule is an asymmetric top.
 Rotational symmetry number  1.
 Rotational temperatures (Kelvin)      7.69075     0.19578     0.19569
 Rotational constants (GHZ):         160.24946     4.07930     4.07761
 Zero-point vibrational energy     120088.1 (Joules/Mol)
                                   28.70175 (Kcal/Mol)
 Warning -- explicit consideration of   5 degrees of freedom as
           vibrations may cause significant error
 Vibrational temperatures:     48.59   238.27   503.15   620.85   758.23
          (Kelvin)           1139.94  1458.67  1965.68  2017.46  2044.96
                             2118.03  2870.78  4312.14  4393.71  4396.09

 Zero-point correction=                           0.045739 (Hartree/Particle)
 Thermal correction to Energy=                    0.051049
 Thermal correction to Enthalpy=                  0.051993
 Thermal correction to Gibbs Free Energy=         0.017559
 Sum of electronic and zero-point Energies=           -154.019546
 Sum of electronic and thermal Energies=              -154.014236
 Sum of electronic and thermal Enthalpies=            -154.013292
 Sum of electronic and thermal Free Energies=         -154.047726

                     E (Thermal)             CV                S
                      KCal/Mol        Cal/Mol-Kelvin    Cal/Mol-Kelvin
 Total                   32.033             15.440             72.472
 Electronic               0.000              0.000              1.377
 Translational            0.889              2.981             37.712
 Rotational               0.889              2.981             22.316
 Vibrational             30.256              9.478             11.066
 Vibration     1          0.594              1.983              5.595
 Vibration     2          0.624              1.885              2.485
 Vibration     3          0.727              1.576              1.168
 Vibration     4          0.793              1.402              0.854
 Vibration     5          0.882              1.190              0.594

 Optimization completed.
    -- Stationary point found.
 Normal termination of Gaussian 09 at Tue Jul 19 10:19:24 2016.
