 Gaussian 09, Revision E.01,
 Gaussian 09:  EM64L-G09RevE.01 30-Nov-2015

 ---------------------------------------------
 #p b3lyp/6-311++G(3df,2p) freq symmetry=Loose
 ---------------------------------------------

 ---------
 b3lyp opt
 ---------
 Symbolic Z-matrix:
 Charge =  3 Multiplicity = 3

                         Standard orientation:
 ---------------------------------------------------------------------
 Center     Atomic      Atomic             Coordinates (Angstroms)
 Number     Number       Type             X           Y           Z
 ---------------------------------------------------------------------
      1          6           0       -0.000022   -0.994049    0.359618
      2          6           0       -1.079969   -0.080908   -0.163194
      3          6           0       -0.000003    0.914324    0.055879
      4          1           0       -0.000047    1.824962    0.784646
      5          6           0        1.079988   -0.080908   -0.163064
      6          1           0        2.096878   -0.187860   -0.659914
      7          1           0       -2.096799   -0.187860   -0.660167
 ---------------------------------------------------------------------

 SCF Done:  E(UB3LYP) =  -152.191489829     A.U. after   13 cycles

 The electronic state is 3-A.
 Alpha  occ. eigenvalues --  -11.17239 -11.13479 -11.13478 -11.12526  -1.78427
 Alpha  occ. eigenvalues --   -1.49673  -1.46389  -1.32747  -1.28966  -1.24362
 Alpha  occ. eigenvalues --   -1.22945  -1.18997  -1.12626
 Alpha virt. eigenvalues --   -0.93050  -0.90398  -0.84814  -0.65337  -0.62438
 Alpha virt. eigenvalues --   -0.61841  -0.59256  -0.55687  -0.52601  -0.51165
 Alpha virt. eigenvalues --   -0.45912  -0.44481  -0.43097  -0.42460  -0.41078

  Beta  occ. eigenvalues --  -11.14789 -11.13126 -11.13124 -11.11836  -1.75676
  Beta  occ. eigenvalues --   -1.47988  -1.42030  -1.31644  -1.25065  -1.23125
  Beta  occ. eigenvalues --   -1.21907
  Beta virt. eigenvalues --   -1.07412  -0.94485  -0.89966  -0.82973  -0.79728
  Beta virt. eigenvalues --   -0.63600  -0.60103  -0.59869  -0.57116  -0.54322
  Beta virt. eigenvalues --   -0.51605  -0.50779  -0.44815  -0.44041  -0.42300

 Mulliken charges and spin densities:
               1          2
     1  C    0.646207   1.189759
     2  C    0.395706   0.177039
     3  C    0.301264   0.393265
     4  H    0.372876   0.056256
     5  C    0.395706   0.177039
     6  H    0.444121   0.003321
     7  H    0.444121   0.003321
 Sum of Mulliken charges =   3.00000   2.00000

 Dipole moment (field-independent basis, Debye):
    X=              0.0000    Y=              0.9863    Z=             -0.3830  Tot=              1.0581
 Quadrupole moment (field-independent basis, Debye-Ang):
   XX=              4.7785   YY=             -4.4820   ZZ=            -13.0513
   XY=             -0.0001   XZ=              0.0011   YZ=              2.0250

  Exact polarizability:  33.731   0.000  31.672   0.001   0.288  18.458
 Approx polarizability:  53.347   0.000  60.637   0.001  -2.535  28.531

                      1                      2                      3
                      A                      A                      A
 Frequencies --    402.9921               472.5898               564.3511
 Red. masses --      1.7728                 2.1364                 3.3496
 Frc consts  --      0.1696                 0.2811                 0.6286
 IR Inten    --     16.7668                10.8055                 1.6095

                      4                      5                      6
                      A                      A                      A
 Frequencies --    732.4706               825.4854               931.2121
 Red. masses --      1.6201                 1.9006                 1.6274
 Frc consts  --      0.5121                 0.7631                 0.8315
 IR Inten    --     11.2839                29.8407                 0.4344

                      7                      8                      9
                      A                      A                      A
 Frequencies --    940.2422               973.2534               974.6057
 Red. masses --      2.3026                 1.2004                 1.9642
 Frc consts  --      1.1993                 0.6699                 1.0992
 IR Inten    --     39.0749                 5.1031                30.4207

                     10                     11                     12
                      A                      A                      A
 Frequencies --   1035.1505              1083.8008              1113.7009
 Red. masses --      2.5624                 4.2701                 2.1563
 Frc consts  --      1.6177                 2.9552                 1.5758
 IR Inten    --    108.2015                11.1805               114.6690

                     13                     14                     15
                      A                      A                      A
 Frequencies --   2306.4587              2662.2493              2715.5307
 Red. masses --      1.0738                 1.0955                 1.1120
 Frc consts  --      3.3656                 4.5747                 4.8313
 IR Inten    --   1017.8059              1169.0947               126.6309

 - Thermochemistry -
 -------------------
 Temperature   298.150 Kelvin.  Pressure   1.00000 Atm.
 Atom     1 has atomic number  6 and mass  12.00000

 Molecular mass:    51.02348 amu.
 Principal axes and moments of inertia in atomic units:
                           1         2         3
     Eigenvalues --   104.11385 144.45289 222.88245
           X            1.00000   0.00000  -0.00006
           Y           -0.00000   0.99715   0.07543
           Z            0.00006  -0.07543   0.99715
 This molecule is an asymmetric top.
 Rotational symmetry number  1.
 Rotational temperatures (Kelvin)      0.83191     0.59960     0.38861
 Rotational constants (GHZ):          17.33430    12.49363     8.09728
 Zero-point vibrational energy     106073.4 (Joules/Mol)
                                   25.35216 (Kcal/Mol)
 Warning -- explicit consideration of   3 degrees of freedom as
           vibrations may cause significant error
 Vibrational temperatures:    579.81   679.95   811.97  1053.86  1187.69
          (Kelvin)           1339.80  1352.80  1400.29  1402.24  1489.35
                             1559.35  1602.37  3318.48  3830.38  3907.04

 Zero-point correction=                           0.040401 (Hartree/Particle)
 Thermal correction to Energy=                    0.044396
 Thermal correction to Enthalpy=                  0.045340
 Thermal correction to Gibbs Free Energy=         0.014010
 Sum of electronic and zero-point Energies=           -152.151089
 Sum of electronic and thermal Energies=              -152.147094
 Sum of electronic and thermal Enthalpies=            -152.146150
 Sum of electronic and thermal Free Energies=         -152.177479

                     E (Thermal)             CV                S
                      KCal/Mol        Cal/Mol-Kelvin    Cal/Mol-Kelvin
 Total                   27.859             13.850             65.939
 Electronic               0.000              0.000              2.183
 Translational            0.889              2.981             37.712
 Rotational               0.889              2.981             22.732
 Vibrational             26.082              7.888              3.312
 Vibration     1          0.768              1.464              0.952
 Vibration     2          0.829              1.311              0.730
 Vibration     3          0.920              1.108              0.515

 Optimization completed.
    -- Stationary point found.
 Normal termination of Gaussian 09 at Tue Jul 19 13:29:05 2016.
