 Gaussian 09, Revision E.01,
 Gaussian 09:  EM64L-G09RevE.01 30-Nov-2015

 ---------------------------------------------
 #p b3lyp/6-311++G(3df,2p) freq symmetry=Loose
 ---------------------------------------------

 ---------
 b3lyp opt
 ---------
 Symbolic Z-matrix:
 Charge =  1 Multiplicity = 3

                         Standard orientation:
 ---------------------------------------------------------------------
 Center     Atomic      Atomic             Coordinates (Angstroms)
 Number     Number       Type             X           Y           Z
 ---------------------------------------------------------------------
      1          6           0       -0.095615    1.736353    0.000000
      2          1           0       -1.180739    1.961754   -0.000000
      3          1           0        0.319092    2.184937    0.909184
      4          1           0        0.319092    2.184937   -0.909184
      5          6           0        0.000000    0.332762    0.000000
      6          6           0        0.059601   -0.933416    0.000000
      7          6           0        0.126440   -2.190970   -0.000000
 ---------------------------------------------------------------------

 SCF Done:  E(UB3LYP) =  -153.697633679     A.U. after   16 cycles

 The electronic state is 3-A".
 Alpha  occ. eigenvalues --  -10.55872 -10.52267 -10.46420 -10.42768  -1.09172
 Alpha  occ. eigenvalues --   -1.02828  -0.93861  -0.73064  -0.68978  -0.67648
 Alpha  occ. eigenvalues --   -0.67577  -0.61394  -0.59670  -0.48063
 Alpha virt. eigenvalues --   -0.39975  -0.17258  -0.16841  -0.16086  -0.12279
 Alpha virt. eigenvalues --   -0.10896  -0.10712  -0.08466  -0.07154  -0.06893
 Alpha virt. eigenvalues --   -0.06137  -0.05930  -0.05645  -0.03352  -0.01506

  Beta  occ. eigenvalues --  -10.52524 -10.51427 -10.46553 -10.42819  -1.07562
  Beta  occ. eigenvalues --   -1.00676  -0.91371  -0.72236  -0.67736  -0.67228
  Beta  occ. eigenvalues --   -0.58464  -0.57454
  Beta virt. eigenvalues --   -0.43656  -0.36676  -0.34227  -0.16680  -0.14469
  Beta virt. eigenvalues --   -0.13280  -0.11802  -0.10924  -0.10666  -0.07693
  Beta virt. eigenvalues --   -0.06828  -0.05943  -0.05672  -0.05204  -0.05170

 Mulliken charges and spin densities:
               1          2
     1  C   -0.265784  -0.052462
     2  H    0.226230  -0.015042
     3  H    0.219637   0.030853
     4  H    0.219637   0.030853
     5  C   -0.032627   0.424797
     6  C    0.485497  -0.055849
     7  C    0.147410   1.636849
 Sum of Mulliken charges =   1.00000   2.00000

 Dipole moment (field-independent basis, Debye):
    X=             -0.2043    Y=              0.2231    Z=             -0.0000  Tot=              0.3025
 Quadrupole moment (field-independent basis, Debye-Ang):
   XX=            -19.6298   YY=             -1.3884   ZZ=            -21.0749
   XY=             -1.4548   XZ=             -0.0000   YZ=             -0.0000

  Exact polarizability:  26.787  -3.486  75.375  -0.000   0.000  27.607
 Approx polarizability:  38.041  -8.307 150.036  -0.000  -0.000  36.020

                      1                      2                      3
                     A"                     A'                     A"
 Frequencies --    168.4060               193.4490               363.9478
 Red. masses --      3.6128                 5.0533                11.4238
 Frc consts  --      0.0604                 0.1114                 0.8915
 IR Inten    --      8.6698                 5.6475                 1.8175

                      4                      5                      6
                     A'                     A"                     A'
 Frequencies --    450.8001               549.2306               813.0412
 Red. masses --      3.0147                 1.3805                 4.3693
 Frc consts  --      0.3610                 0.2454                 1.7017
 IR Inten    --      0.3145                80.6770                11.7433

                      7                      8                      9
                     A'                     A"                     A'
 Frequencies --    934.5362              1270.8901              1318.3324
 Red. masses --      1.8645                 1.0411                 1.1374
 Frc consts  --      0.9594                 0.9907                 1.1647
 IR Inten    --     25.0673                31.5343                67.9361

                     10                     11                     12
                     A'                     A'                     A'
 Frequencies --   1424.2450              1559.8967              1980.6230
 Red. masses --      1.1017                11.0249                11.6003
 Frc consts  --      1.3167                15.8058                26.8116
 IR Inten    --      7.5765                13.9673               551.1576

                     13                     14                     15
                     A'                     A'                     A"
 Frequencies --   2918.2781              3008.0084              3046.5320
 Red. masses --      1.0564                 1.0656                 1.0942
 Frc consts  --      5.3009                 5.6809                 5.9833
 IR Inten    --    163.2000                33.9673                39.7891

 - Thermochemistry -
 -------------------
 Temperature   298.150 Kelvin.  Pressure   1.00000 Atm.
 Atom     1 has atomic number  6 and mass  12.00000

 Molecular mass:    51.02348 amu.
 Principal axes and moments of inertia in atomic units:
                           1         2         3
     Eigenvalues --    11.47522 429.39821 429.82298
           X           -0.05855   0.00000   0.99828
           Y            0.99828   0.00000   0.05855
           Z           -0.00000   1.00000  -0.00000
 This molecule is an asymmetric top.
 Rotational symmetry number  1.
 Rotational temperatures (Kelvin)      7.54790     0.20171     0.20151
 Rotational constants (GHZ):         157.27287     4.20295     4.19880
 Zero-point vibrational energy     119627.9 (Joules/Mol)
                                   28.59174 (Kcal/Mol)
 Warning -- explicit consideration of   5 degrees of freedom as
           vibrations may cause significant error
 Vibrational temperatures:    242.30   278.33   523.64   648.60   790.22
          (Kelvin)           1169.78  1344.59  1828.53  1896.78  2049.17
                             2244.34  2849.67  4198.75  4327.85  4383.27

 Zero-point correction=                           0.045564 (Hartree/Particle)
 Thermal correction to Energy=                    0.050535
 Thermal correction to Enthalpy=                  0.051479
 Thermal correction to Gibbs Free Energy=         0.018379
 Sum of electronic and zero-point Energies=           -153.652070
 Sum of electronic and thermal Energies=              -153.647099
 Sum of electronic and thermal Enthalpies=            -153.646154
 Sum of electronic and thermal Free Energies=         -153.679254

                     E (Thermal)             CV                S
                      KCal/Mol        Cal/Mol-Kelvin    Cal/Mol-Kelvin
 Total                   31.711             15.297             69.665
 Electronic               0.000              0.000              2.183
 Translational            0.889              2.981             37.712
 Rotational               0.889              2.981             22.276
 Vibrational             29.934              9.335              7.494
 Vibration     1          0.625              1.881              2.453
 Vibration     2          0.635              1.849              2.195
 Vibration     3          0.737              1.546              1.105
 Vibration     4          0.810              1.359              0.793
 Vibration     5          0.904              1.141              0.546

 Optimization completed.
    -- Stationary point found.
 Normal termination of Gaussian 09 at Tue Jul 19 14:08:46 2016.
