 Gaussian 09, Revision E.01,
 Gaussian 09:  EM64L-G09RevE.01 30-Nov-2015

 ---------------------------------------------
 #p b3lyp/6-311++G(3df,2p) freq symmetry=Loose
 ---------------------------------------------

 ---------
 b3lyp opt
 ---------
 Symbolic Z-matrix:
 Charge =  0 Multiplicity = 2

                         Standard orientation:
 ---------------------------------------------------------------------
 Center     Atomic      Atomic             Coordinates (Angstroms)
 Number     Number       Type             X           Y           Z
 ---------------------------------------------------------------------
      1          6           0       -1.548751   -0.366197   -0.010379
      2          1           0       -1.374631   -1.432032    0.038799
      3          1           0       -2.571951   -0.019780   -0.064685
      4          6           0       -0.508151    0.510868   -0.004036
      5          1           0       -0.715249    1.575707   -0.062251
      6          6           0        0.813010    0.101161    0.085443
      7          6           0        2.020864   -0.266481   -0.056338
 ---------------------------------------------------------------------

 SCF Done:  E(UB3LYP) =  -154.079975295     A.U. after   22 cycles

 The electronic state is 2-A.
 Alpha  occ. eigenvalues --  -10.24227 -10.24162 -10.20348 -10.20175  -0.85384
 Alpha  occ. eigenvalues --   -0.76346  -0.66011  -0.55073  -0.49800  -0.43405
 Alpha  occ. eigenvalues --   -0.38694  -0.29889  -0.28720  -0.28537
 Alpha virt. eigenvalues --   -0.08569  -0.01992   0.00499   0.01690   0.02837
 Alpha virt. eigenvalues --    0.04573   0.05085   0.06429   0.06699   0.07708
 Alpha virt. eigenvalues --    0.08954   0.09891   0.10943   0.10994   0.11700

  Beta  occ. eigenvalues --  -10.24373 -10.23598 -10.19789 -10.19640  -0.84548
  Beta  occ. eigenvalues --   -0.73839  -0.65044  -0.54763  -0.49401  -0.43119
  Beta  occ. eigenvalues --   -0.35926  -0.27954  -0.27842
  Beta virt. eigenvalues --   -0.18670  -0.05853  -0.01884   0.00538   0.01875
  Beta virt. eigenvalues --    0.03281   0.05081   0.06153   0.06459   0.06956
  Beta virt. eigenvalues --    0.07966   0.09256   0.10131   0.11017   0.11697

 Mulliken charges and spin densities:
               1          2
     1  C   -0.400103   0.433263
     2  H    0.184275  -0.011699
     3  H    0.172213  -0.014876
     4  C   -0.164312  -0.162326
     5  H    0.151018   0.001736
     6  C    0.566278   0.354720
     7  C   -0.509369   0.399181
 Sum of Mulliken charges =  -0.00000   1.00000

 Dipole moment (field-independent basis, Debye):
    X=             -4.9535    Y=              0.7222    Z=              0.3392  Tot=              5.0173
 Quadrupole moment (field-independent basis, Debye-Ang):
   XX=            -29.4512   YY=            -22.9759   ZZ=            -24.9862
   XY=              1.6312   XZ=              1.2215   YZ=             -0.2870

  Exact polarizability: 104.721  -3.408  42.598   4.829  -0.651  34.107
 Approx polarizability: 150.166  -3.280  60.647   0.091   0.246  47.488

                      1                      2                      3
                      A                      A                      A
 Frequencies --    196.8298               223.3617               522.0915
 Red. masses --      4.8376                 3.5995                 2.9842
 Frc consts  --      0.1104                 0.1058                 0.4793
 IR Inten    --      3.8133                56.1694                10.8588

                      4                      5                      6
                      A                      A                      A
 Frequencies --    564.6297               915.0106               949.1659
 Red. masses --      1.6565                 2.5796                 1.1207
 Frc consts  --      0.3112                 1.2725                 0.5949
 IR Inten    --     48.2271                 0.5096                41.3936

                      7                      8                      9
                      A                      A                      A
 Frequencies --    996.7529              1110.6636              1291.9340
 Red. masses --      1.4605                 1.6966                 1.6873
 Frc consts  --      0.8549                 1.2331                 1.6593
 IR Inten    --      2.1988                 1.9038                26.5235

                     10                     11                     12
                      A                      A                      A
 Frequencies --   1416.7192              1540.5609              1871.8628
 Red. masses --      1.4912                 1.7707                11.5709
 Frc consts  --      1.7634                 2.4760                23.8873
 IR Inten    --     40.4009                38.5650               123.6364

                     13                     14                     15
                      A                      A                      A
 Frequencies --   3123.8162              3144.5474              3244.3637
 Red. masses --      1.0856                 1.0582                 1.1187
 Frc consts  --      6.2417                 6.1647                 6.9377
 IR Inten    --      4.0788                 4.1071                 0.5123

 - Thermochemistry -
 -------------------
 Temperature   298.150 Kelvin.  Pressure   1.00000 Atm.
 Atom     1 has atomic number  6 and mass  12.00000

 Molecular mass:    51.02348 amu.
 Principal axes and moments of inertia in atomic units:
                           1         2         3
     Eigenvalues --    37.18463 348.64766 384.87398
           X            0.99995   0.01005   0.00155
           Y           -0.01003   0.99984  -0.01478
           Z           -0.00170   0.01476   0.99989
 This molecule is an asymmetric top.
 Rotational symmetry number  1.
 Rotational temperatures (Kelvin)      2.32929     0.24843     0.22504
 Rotational constants (GHZ):          48.53460     5.17640     4.68917
 Zero-point vibrational energy     126279.7 (Joules/Mol)
                                   30.18156 (Kcal/Mol)
 Warning -- explicit consideration of   4 degrees of freedom as
           vibrations may cause significant error
 Vibrational temperatures:    283.19   321.37   751.17   812.38  1316.49
          (Kelvin)           1365.64  1434.10  1598.00  1858.80  2038.34
                             2216.52  2693.19  4494.47  4524.30  4667.91

 Zero-point correction=                           0.048097 (Hartree/Particle)
 Thermal correction to Energy=                    0.052590
 Thermal correction to Enthalpy=                  0.053534
 Thermal correction to Gibbs Free Energy=         0.021278
 Sum of electronic and zero-point Energies=           -154.031878
 Sum of electronic and thermal Energies=              -154.027385
 Sum of electronic and thermal Enthalpies=            -154.026441
 Sum of electronic and thermal Free Energies=         -154.058697

                     E (Thermal)             CV                S
                      KCal/Mol        Cal/Mol-Kelvin    Cal/Mol-Kelvin
 Total                   33.001             13.825             67.889
 Electronic               0.000              0.000              1.377
 Translational            0.889              2.981             37.712
 Rotational               0.889              2.981             23.127
 Vibrational             31.223              7.863              5.672
 Vibration     1          0.636              1.844              2.163
 Vibration     2          0.649              1.805              1.932
 Vibration     3          0.877              1.201              0.605
 Vibration     4          0.920              1.108              0.515

 Optimization completed.
    -- Stationary point found.
 Normal termination of Gaussian 09 at Sun Jun 19 05:51:39 2016.
