 Gaussian 09, Revision E.01,
 Gaussian 09:  EM64L-G09RevE.01 30-Nov-2015

 ---------------------------------------------
 #p b3lyp/6-311++G(3df,2p) freq symmetry=Loose
 ---------------------------------------------

 ---------
 b3lyp opt
 ---------
 Symbolic Z-matrix:
 Charge =  1 Multiplicity = 3

                         Standard orientation:
 ---------------------------------------------------------------------
 Center     Atomic      Atomic             Coordinates (Angstroms)
 Number     Number       Type             X           Y           Z
 ---------------------------------------------------------------------
      1          6           0        0.000121   -0.619329    0.756379
      2          6           0        0.866383   -0.211812   -0.284380
      3          1           0        1.636804   -0.498020   -0.983137
      4          6           0        0.000013    0.887003    0.081406
      5          1           0        0.000056    1.931739    0.349937
      6          6           0       -0.866474   -0.211812   -0.284103
      7          1           0       -1.637119   -0.498020   -0.982612
 ---------------------------------------------------------------------

 SCF Done:  E(UB3LYP) =  -153.689160329     A.U. after   13 cycles

 The electronic state is 3-A.
 Alpha  occ. eigenvalues --  -10.53366 -10.51425 -10.50659 -10.50654  -1.28418
 Alpha  occ. eigenvalues --   -0.91134  -0.89455  -0.84621  -0.77346  -0.71249
 Alpha  occ. eigenvalues --   -0.66394  -0.61380  -0.57902  -0.46177
 Alpha virt. eigenvalues --   -0.25132  -0.22443  -0.15949  -0.14795  -0.13867
 Alpha virt. eigenvalues --   -0.12790  -0.10811  -0.09975  -0.08556  -0.08072
 Alpha virt. eigenvalues --   -0.06621  -0.06084  -0.05125  -0.04747  -0.03435

  Beta  occ. eigenvalues --  -10.51323 -10.50827 -10.50131 -10.50130  -1.26620
  Beta  occ. eigenvalues --   -0.89243  -0.86979  -0.82198  -0.74048  -0.70036
  Beta  occ. eigenvalues --   -0.63119  -0.59821
  Beta virt. eigenvalues --   -0.41115  -0.34611  -0.22311  -0.18361  -0.15257
  Beta virt. eigenvalues --   -0.14120  -0.13156  -0.11455  -0.10085  -0.09153
  Beta virt. eigenvalues --   -0.08057  -0.07882  -0.06266  -0.05396  -0.04442

 Mulliken charges and spin densities:
               1          2
     1  C    0.073026   1.116166
     2  C    0.012384   0.277728
     3  H    0.307773   0.004069
     4  C   -0.021284   0.328426
     5  H    0.307946  -0.008185
     6  C    0.012383   0.277728
     7  H    0.307773   0.004069
 Sum of Mulliken charges =   1.00000   2.00000

 Dipole moment (field-independent basis, Debye):
    X=             -0.0002    Y=              0.4733    Z=             -1.1059  Tot=              1.2029
 Quadrupole moment (field-independent basis, Debye-Ang):
   XX=            -15.0283   YY=            -15.9178   ZZ=            -18.8644
   XY=              0.0002   XZ=             -0.0006   YZ=              1.2808

  Exact polarizability:  36.714  -0.001  32.539  -0.002  -0.046  29.284
 Approx polarizability:  61.428  -0.001  52.836  -0.002  -3.792  46.134

                      1                      2                      3
                      A                      A                      A
 Frequencies --    472.4472               576.9609               633.3388
 Red. masses --      7.4452                 9.2233                 1.6888
 Frc consts  --      0.9791                 1.8090                 0.3991
 IR Inten    --     10.5488                 3.2000                 6.9641

                      4                      5                      6
                      A                      A                      A
 Frequencies --    675.4054               730.9389               750.0814
 Red. masses --      2.0102                 1.3344                 1.2348
 Frc consts  --      0.5403                 0.4200                 0.4093
 IR Inten    --     42.8697                52.3403                10.2080

                      7                      8                      9
                      A                      A                      A
 Frequencies --    906.9610               960.9137              1006.7474
 Red. masses --      1.0897                 1.2578                 1.2838
 Frc consts  --      0.5281                 0.6843                 0.7666
 IR Inten    --      5.7876                35.3515                10.0681

                     10                     11                     12
                      A                      A                      A
 Frequencies --   1200.9900              1266.8724              1439.4935
 Red. masses --      4.8938                 4.7998                 6.5676
 Frc consts  --      4.1589                 4.5388                 8.0182
 IR Inten    --     20.1334                 1.4167                 1.1311

                     13                     14                     15
                      A                      A                      A
 Frequencies --   3243.0945              3244.4653              3266.8073
 Red. masses --      1.0930                 1.1009                 1.1209
 Frc consts  --      6.7731                 6.8277                 7.0480
 IR Inten    --    136.5780               166.4772                31.1275

 - Thermochemistry -
 -------------------
 Temperature   298.150 Kelvin.  Pressure   1.00000 Atm.
 Atom     1 has atomic number  6 and mass  12.00000

 Molecular mass:    51.02348 amu.
 Principal axes and moments of inertia in atomic units:
                           1         2         3
     Eigenvalues --   108.09189 121.50578 153.84049
           X            1.00000  -0.00003   0.00016
           Y           -0.00000   0.98346   0.18112
           Z           -0.00016  -0.18112   0.98346
 This molecule is an asymmetric top.
 Rotational symmetry number  1.
 Rotational temperatures (Kelvin)      0.80130     0.71284     0.56301
 Rotational constants (GHZ):          16.69636    14.85313    11.73125
 Zero-point vibrational energy     121872.7 (Joules/Mol)
                                   29.12826 (Kcal/Mol)
 Warning -- explicit consideration of   2 degrees of freedom as
           vibrations may cause significant error
 Vibrational temperatures:    679.75   830.12   911.23   971.76  1051.66
          (Kelvin)           1079.20  1304.91  1382.54  1448.48  1727.95
                             1822.74  2071.11  4666.08  4668.06  4700.20

 Zero-point correction=                           0.046419 (Hartree/Particle)
 Thermal correction to Energy=                    0.050297
 Thermal correction to Enthalpy=                  0.051241
 Thermal correction to Gibbs Free Energy=         0.020346
 Sum of electronic and zero-point Energies=           -153.642741
 Sum of electronic and thermal Energies=              -153.638863
 Sum of electronic and thermal Enthalpies=            -153.637919
 Sum of electronic and thermal Free Energies=         -153.668815

                     E (Thermal)             CV                S
                      KCal/Mol        Cal/Mol-Kelvin    Cal/Mol-Kelvin
 Total                   31.562             13.445             65.026
 Electronic               0.000              0.000              2.183
 Translational            0.889              2.981             37.712
 Rotational               0.889              2.981             22.229
 Vibrational             29.785              7.483              2.902
 Vibration     1          0.829              1.311              0.731
 Vibration     2          0.933              1.081              0.491

 Optimization completed.
    -- Stationary point found.
 Normal termination of Gaussian 09 at Tue Jul 19 14:17:30 2016.
