 Gaussian 09, Revision E.01,
 Gaussian 09:  EM64L-G09RevE.01 30-Nov-2015

 ---------------------------------------------
 #p b3lyp/6-311++G(3df,2p) freq symmetry=Loose
 ---------------------------------------------

 ---------
 b3lyp opt
 ---------
 Symbolic Z-matrix:
 Charge =  1 Multiplicity = 1

                         Standard orientation:
 ---------------------------------------------------------------------
 Center     Atomic      Atomic             Coordinates (Angstroms)
 Number     Number       Type             X           Y           Z
 ---------------------------------------------------------------------
      1          6           0       -0.000016   -1.032163   -0.408632
      2          6           0       -0.893268   -0.081124    0.200432
      3          1           0       -1.794626   -0.171026    0.795439
      4          6           0       -0.000006    0.935292   -0.149860
      5          1           0       -0.000026    1.896762   -0.644538
      6          6           0        0.893284   -0.081124    0.200361
      7          1           0        1.794689   -0.171026    0.795296
 ---------------------------------------------------------------------

 SCF Done:  E(RB3LYP) =  -153.780915347     A.U. after   11 cycles

 The electronic state is 1-A.
 Alpha  occ. eigenvalues --  -10.52272 -10.52270 -10.51017 -10.48983  -1.24568
 Alpha  occ. eigenvalues --   -0.92125  -0.92037  -0.81824  -0.77008  -0.68426
 Alpha  occ. eigenvalues --   -0.65372  -0.64161  -0.51336
 Alpha virt. eigenvalues --   -0.32087  -0.30773  -0.28657  -0.15325  -0.14689
 Alpha virt. eigenvalues --   -0.14172  -0.11313  -0.11200  -0.08979  -0.08396
 Alpha virt. eigenvalues --   -0.07241  -0.05336  -0.05272  -0.04237  -0.03504

 Mulliken charges:
               1
     1  C   -0.152893
     2  C    0.190299
     3  H    0.284114
     4  C   -0.085015
     5  H    0.289083
     6  C    0.190299
     7  H    0.284114
 Sum of Mulliken charges =   1.00000

 Dipole moment (field-independent basis, Debye):
    X=              0.0001    Y=              2.2544    Z=              1.5183  Tot=              2.7180
 Quadrupole moment (field-independent basis, Debye-Ang):
   XX=            -13.0623   YY=            -18.5453   ZZ=            -19.8231
   XY=             -0.0001   XZ=             -0.0003   YZ=             -3.1493

  Exact polarizability:  35.958  -0.002  42.486  -0.001   1.690  25.670
 Approx polarizability:  60.059   0.000  87.206  -0.001   5.820  39.839

                      1                      2                      3
                      A                      A                      A
 Frequencies --    523.0636               572.8787               750.0442
 Red. masses --      2.5471                 2.3267                 5.5698
 Frc consts  --      0.4106                 0.4499                 1.8461
 IR Inten    --      4.4053                23.3748                 0.1661

                      4                      5                      6
                      A                      A                      A
 Frequencies --    856.1841               944.2949              1000.4931
 Red. masses --      1.7183                 1.4729                 1.6350
 Frc consts  --      0.7421                 0.7738                 0.9643
 IR Inten    --     42.3620                 0.0214                42.3709

                      7                      8                      9
                      A                      A                      A
 Frequencies --   1044.3072              1056.0611              1109.9530
 Red. masses --      1.1072                 1.3249                 1.3280
 Frc consts  --      0.7114                 0.8706                 0.9639
 IR Inten    --      9.0161                10.2848                 3.8379

                     10                     11                     12
                      A                      A                      A
 Frequencies --   1283.8600              1346.3791              1439.4283
 Red. masses --      3.9695                 4.2547                 4.9693
 Frc consts  --      3.8550                 4.5441                 6.0664
 IR Inten    --     28.4191                37.2427                 9.8141

                     13                     14                     15
                      A                      A                      A
 Frequencies --   3201.4641              3203.4065              3233.3382
 Red. masses --      1.0942                 1.1020                 1.1206
 Frc consts  --      6.6075                 6.6630                 6.9027
 IR Inten    --     56.0588                97.1607                47.1611

 - Thermochemistry -
 -------------------
 Temperature   298.150 Kelvin.  Pressure   1.00000 Atm.
 Atom     1 has atomic number  6 and mass  12.00000

 Molecular mass:    51.02348 amu.
 Principal axes and moments of inertia in atomic units:
                           1         2         3
     Eigenvalues --   108.77869 114.24297 188.60699
           X            0.00000   1.00000   0.00004
           Y            0.99787   0.00000  -0.06521
           Z            0.06521  -0.00004   0.99787
 This molecule is an asymmetric top.
 Rotational symmetry number  1.
 Rotational temperatures (Kelvin)      0.79624     0.75815     0.45923
 Rotational constants (GHZ):          16.59094    15.79739     9.56879
 Zero-point vibrational energy     128988.3 (Joules/Mol)
                                   30.82894 (Kcal/Mol)
 Warning -- explicit consideration of   2 degrees of freedom as
           vibrations may cause significant error
 Vibrational temperatures:    752.57   824.24  1079.14  1231.86  1358.63
          (Kelvin)           1439.48  1502.52  1519.43  1596.97  1847.19
                             1937.14  2071.01  4606.19  4608.98  4652.05

 Zero-point correction=                           0.049129 (Hartree/Particle)
 Thermal correction to Energy=                    0.052697
 Thermal correction to Enthalpy=                  0.053641
 Thermal correction to Gibbs Free Energy=         0.024136
 Sum of electronic and zero-point Energies=           -153.731786
 Sum of electronic and thermal Energies=              -153.728218
 Sum of electronic and thermal Enthalpies=            -153.727274
 Sum of electronic and thermal Free Energies=         -153.756779

                     E (Thermal)             CV                S
                      KCal/Mol        Cal/Mol-Kelvin    Cal/Mol-Kelvin
 Total                   33.068             11.667             62.098
 Electronic               0.000              0.000              0.000
 Translational            0.889              2.981             37.712
 Rotational               0.889              2.981             22.376
 Vibrational             31.290              5.705              2.010
 Vibration     1          0.878              1.199              0.603
 Vibration     2          0.929              1.090              0.499

 Optimization completed.
    -- Stationary point found.
 Normal termination of Gaussian 09 at Tue Jul 19 13:40:02 2016.
