 Gaussian 09, Revision E.01,
 Gaussian 09:  EM64L-G09RevE.01 30-Nov-2015

 ---------------------------------------------
 #p b3lyp/6-311++G(3df,2p) freq symmetry=Loose
 ---------------------------------------------

 ---------
 b3lyp opt
 ---------
 Symbolic Z-matrix:
 Charge =  3 Multiplicity = 1

                         Standard orientation:
 ---------------------------------------------------------------------
 Center     Atomic      Atomic             Coordinates (Angstroms)
 Number     Number       Type             X           Y           Z
 ---------------------------------------------------------------------
      1          6           0        0.000000   -0.000000   -0.818772
      2          6           0       -0.000000    1.183818   -0.142292
      3          1           0       -0.000000    2.321021   -0.133795
      4          6           0       -0.000000    0.000000    0.818709
      5          1           0       -0.000000    0.000000    1.975476
      6          6           0       -0.000000   -1.183818   -0.142292
      7          1           0       -0.000000   -2.321021   -0.133795
 ---------------------------------------------------------------------

 SCF Done:  E(RB3LYP) =  -152.304012979     A.U. after   10 cycles

 The electronic state is 1-A1.
 Alpha  occ. eigenvalues --  -11.17065 -11.14662 -11.14191 -11.14186  -1.83480
 Alpha  occ. eigenvalues --   -1.56507  -1.43037  -1.33423  -1.28226  -1.24263
 Alpha  occ. eigenvalues --   -1.24231  -1.23838
 Alpha virt. eigenvalues --   -0.96104  -0.91280  -0.90106  -0.75237  -0.66781
 Alpha virt. eigenvalues --   -0.64666  -0.61194  -0.54363  -0.54309  -0.50588
 Alpha virt. eigenvalues --   -0.48419  -0.46973  -0.43406  -0.42930  -0.42872

 Mulliken charges:
               1
     1  C    0.851347
     2  C    0.232682
     3  H    0.487570
     4  C    0.290562
     5  H    0.417586
     6  C    0.232682
     7  H    0.487570
 Sum of Mulliken charges =   3.00000

 Dipole moment (field-independent basis, Debye):
    X=             -0.0000    Y=              0.0000    Z=              1.2056  Tot=              1.2056
 Quadrupole moment (field-independent basis, Debye-Ang):
   XX=            -16.2936   YY=             10.3119   ZZ=             -4.8919
   XY=              0.0000   XZ=              0.0000   YZ=              0.0000

  Exact polarizability:  15.963   0.000  35.264  -0.000   0.000  28.460
 Approx polarizability:  24.709   0.000  62.324  -0.000  -0.000  60.321

                      1                      2                      3
                     B1                     A1                     B2
 Frequencies --    335.7050               660.1864               666.7757
 Red. masses --      2.6762                 5.7970                 3.0385
 Frc consts  --      0.1777                 1.4886                 0.7959
 IR Inten    --      8.9869                 2.5146               160.9422

                      4                      5                      6
                     B1                     A1                     B1
 Frequencies --    744.9763               810.8479               877.2916
 Red. masses --      1.2331                 1.9629                 1.5433
 Frc consts  --      0.4032                 0.7604                 0.6998
 IR Inten    --    105.7053                28.7818                 0.9710

                      7                      8                      9
                     B2                     A2                     B2
 Frequencies --    886.4802               937.1884              1010.8943
 Red. masses --      1.3725                 1.2980                 1.2883
 Frc consts  --      0.6355                 0.6717                 0.7756
 IR Inten    --      7.6990                 0.0000                22.0137

                     10                     11                     12
                     A1                     A1                     B2
 Frequencies --   1050.4650              1270.1472              1535.8887
 Red. masses --      1.8606                 5.7715                 5.7756
 Frc consts  --      1.2097                 5.4859                 8.0273
 IR Inten    --    119.9751                 3.1845               434.8683

                     13                     14                     15
                     A1                     B2                     A1
 Frequencies --   2505.4122              2715.2189              2744.0162
 Red. masses --      1.1066                 1.1450                 1.1409
 Frc consts  --      4.0925                 4.9734                 5.0614
 IR Inten    --    899.0971              1071.1600                 0.1768

 - Thermochemistry -
 -------------------
 Temperature   298.150 Kelvin.  Pressure   1.00000 Atm.
 Atom     1 has atomic number  6 and mass  12.00000

 Molecular mass:    51.02348 amu.
 Principal axes and moments of inertia in atomic units:
                           1         2         3
     Eigenvalues --    73.15985 158.88675 232.04660
           X            0.00000   0.00000   1.00000
           Y            1.00000   0.00000   0.00000
           Z           -0.00000   1.00000  -0.00000
 This molecule is an asymmetric top.
 Rotational symmetry number  2.
 Rotational temperatures (Kelvin)      1.18390     0.54513     0.37326
 Rotational constants (GHZ):          24.66846    11.35866     7.77749
 Zero-point vibrational energy     112158.8 (Joules/Mol)
                                   26.80661 (Kcal/Mol)
 Warning -- explicit consideration of   1 degrees of freedom as
           vibrations may cause significant error
 Vibrational temperatures:    483.00   949.86   959.34  1071.85  1166.63
          (Kelvin)           1262.23  1275.45  1348.40  1454.45  1511.38
                             1827.46  2209.80  3604.72  3906.59  3948.02

 Zero-point correction=                           0.042719 (Hartree/Particle)
 Thermal correction to Energy=                    0.046602
 Thermal correction to Enthalpy=                  0.047546
 Thermal correction to Gibbs Free Energy=         0.018149
 Sum of electronic and zero-point Energies=           -152.261294
 Sum of electronic and thermal Energies=              -152.257411
 Sum of electronic and thermal Enthalpies=            -152.256467
 Sum of electronic and thermal Free Energies=         -152.285864

                     E (Thermal)             CV                S
                      KCal/Mol        Cal/Mol-Kelvin    Cal/Mol-Kelvin
 Total                   29.243             13.171             61.872
 Electronic               0.000              0.000              0.000
 Translational            0.889              2.981             37.712
 Rotational               0.889              2.981             21.139
 Vibrational             27.466              7.209              3.021
 Vibration     1          0.717              1.604              1.232

 Optimization completed.
    -- Stationary point found.
 Normal termination of Gaussian 09 at Tue Jul 19 12:26:56 2016.
