 Gaussian 09, Revision E.01,
 Gaussian 09:  EM64L-G09RevE.01 30-Nov-2015

 ---------------------------------------------
 #p b3lyp/6-311++G(3df,2p) freq symmetry=Loose
 ---------------------------------------------

 ---------
 b3lyp opt
 ---------
 Symbolic Z-matrix:
 Charge =  0 Multiplicity = 4

                         Standard orientation:
 ---------------------------------------------------------------------
 Center     Atomic      Atomic             Coordinates (Angstroms)
 Number     Number       Type             X           Y           Z
 ---------------------------------------------------------------------
      1          6           0        0.939592   -0.282241    0.000000
      2          6           0       -0.381634   -1.041784    0.000000
      3          6           0       -1.106785    0.156200   -0.000000
      4          1           0        1.540804   -0.390424    0.902709
      5          1           0        1.540804   -0.390424   -0.902709
      6          6           0        0.000000    0.961477   -0.000000
      7          1           0        0.211355    2.018935   -0.000000
 ---------------------------------------------------------------------

 SCF Done:  E(UB3LYP) =  -153.991820461     A.U. after   15 cycles

 The electronic state is 4-A".
 Alpha  occ. eigenvalues --  -10.23253 -10.22165 -10.21706 -10.21144  -0.91342
 Alpha  occ. eigenvalues --   -0.68075  -0.65671  -0.49098  -0.47406  -0.47033
 Alpha  occ. eigenvalues --   -0.41980  -0.32355  -0.29063  -0.26711  -0.21019
 Alpha virt. eigenvalues --   -0.00506   0.00736   0.01375   0.02304   0.03805
 Alpha virt. eigenvalues --    0.05997   0.06927   0.07793   0.08379   0.09610
 Alpha virt. eigenvalues --    0.09843   0.11169   0.12626   0.13249   0.14330

  Beta  occ. eigenvalues --  -10.21394 -10.20853 -10.20662 -10.20060  -0.87829
  Beta  occ. eigenvalues --   -0.66268  -0.61205  -0.45799  -0.44814  -0.43091
  Beta  occ. eigenvalues --   -0.38950  -0.29051
  Beta virt. eigenvalues --   -0.13272  -0.10035  -0.07730  -0.00377   0.01762
  Beta virt. eigenvalues --    0.02305   0.04713   0.04976   0.06595   0.07184
  Beta virt. eigenvalues --    0.08047   0.08508   0.10488   0.10602   0.11737

 Mulliken charges and spin densities:
               1          2
     1  C   -0.273335  -0.000272
     2  C   -0.095172   1.643774
     3  C   -0.019935   0.674743
     4  H    0.129489   0.015637
     5  H    0.129489   0.015637
     6  C   -0.070042   0.629802
     7  H    0.199507   0.020679
 Sum of Mulliken charges =  -0.00000   3.00000

 Dipole moment (field-independent basis, Debye):
    X=              1.7088    Y=              0.8079    Z=              0.0000  Tot=              1.8901
 Quadrupole moment (field-independent basis, Debye-Ang):
   XX=            -24.1520   YY=            -23.5157   ZZ=            -24.9221
   XY=             -0.1882   XZ=             -0.0000   YZ=             -0.0000

  Exact polarizability:  48.158   0.593  50.671   0.000  -0.000  35.092
 Approx polarizability:  73.033   3.799  83.546   0.000  -0.000  49.168

                      1                      2                      3
                     A"                     A"                     A'
 Frequencies --    441.2696               548.4385               792.1310
 Red. masses --      3.3191                 1.1729                 4.7786
 Frc consts  --      0.3808                 0.2079                 1.7666
 IR Inten    --      4.2551                62.1657                 1.7476

                      4                      5                      6
                     A'                     A"                     A'
 Frequencies --    836.1839               911.0679               955.7783
 Red. masses --      7.8287                 1.5272                 2.2721
 Frc consts  --      3.2251                 0.7469                 1.2229
 IR Inten    --      7.6559                 1.2005                 4.0648

                      7                      8                      9
                     A"                     A'                     A'
 Frequencies --   1052.6357              1067.0115              1117.0875
 Red. masses --      1.0820                 1.8939                 2.7103
 Frc consts  --      0.7064                 1.2704                 1.9927
 IR Inten    --      0.1872                31.8618                 5.4447

                     10                     11                     12
                     A'                     A'                     A'
 Frequencies --   1186.8526              1376.6148              1468.9321
 Red. masses --      1.8616                 4.5823                 1.2011
 Frc consts  --      1.5450                 5.1163                 1.5270
 IR Inten    --      6.3498                 0.1813                 1.7053

                     13                     14                     15
                     A'                     A"                     A'
 Frequencies --   3040.7048              3103.5438              3220.0999
 Red. masses --      1.0519                 1.1104                 1.0951
 Frc consts  --      5.7305                 6.3013                 6.6900
 IR Inten    --     18.8796                 4.4044                 1.4241

 - Thermochemistry -
 -------------------
 Temperature   298.150 Kelvin.  Pressure   1.00000 Atm.
 Atom     1 has atomic number  6 and mass  12.00000

 Molecular mass:    51.02348 amu.
 Principal axes and moments of inertia in atomic units:
                           1         2         3
     Eigenvalues --   109.62423 121.41990 219.31304
           X            0.88842   0.45903   0.00000
           Y           -0.45903   0.88842   0.00000
           Z            0.00000  -0.00000   1.00000
 This molecule is an asymmetric top.
 Rotational symmetry number  1.
 Rotational temperatures (Kelvin)      0.79010     0.71334     0.39493
 Rotational constants (GHZ):          16.46298    14.86364     8.22906
 Zero-point vibrational energy     126315.8 (Joules/Mol)
                                   30.19020 (Kcal/Mol)
 Warning -- explicit consideration of   2 degrees of freedom as
           vibrations may cause significant error
 Vibrational temperatures:    634.89   789.08  1139.70  1203.08  1310.82
          (Kelvin)           1375.15  1514.51  1535.19  1607.24  1707.61
                             1980.64  2113.46  4374.89  4465.30  4633.00

 Zero-point correction=                           0.048111 (Hartree/Particle)
 Thermal correction to Energy=                    0.051764
 Thermal correction to Enthalpy=                  0.052708
 Thermal correction to Gibbs Free Energy=         0.021657
 Sum of electronic and zero-point Energies=           -153.943709
 Sum of electronic and thermal Energies=              -153.940057
 Sum of electronic and thermal Enthalpies=            -153.939113
 Sum of electronic and thermal Free Energies=         -153.970164

                     E (Thermal)             CV                S
                      KCal/Mol        Cal/Mol-Kelvin    Cal/Mol-Kelvin
 Total                   32.482             11.965             65.353
 Electronic               0.000              0.000              2.755
 Translational            0.889              2.981             37.712
 Rotational               0.889              2.981             22.594
 Vibrational             30.705              6.004              2.291
 Vibration     1          0.801              1.380              0.823
 Vibration     2          0.904              1.143              0.547

 Optimization completed.
    -- Stationary point found.
 Normal termination of Gaussian 09 at Tue Jul 19 10:17:54 2016.
