 Gaussian 09, Revision E.01,
 Gaussian 09:  EM64L-G09RevE.01 30-Nov-2015

 ---------------------------------------------
 #p b3lyp/6-311++G(3df,2p) freq symmetry=Loose
 ---------------------------------------------

 ---------
 b3lyp opt
 ---------
 Symbolic Z-matrix:
 Charge =  3 Multiplicity = 1

                         Standard orientation:
 ---------------------------------------------------------------------
 Center     Atomic      Atomic             Coordinates (Angstroms)
 Number     Number       Type             X           Y           Z
 ---------------------------------------------------------------------
      1          6           0        0.792807    0.011952   -0.000350
      2          6           0        2.358775   -0.215454    0.000192
      3          6           0       -0.465074    0.338749    0.000032
      4          1           0       -0.505285    1.524237    0.000229
      5          6           0       -1.822110   -0.244019    0.000051
      6          1           0       -2.340661   -0.435819   -0.979984
      7          1           0       -2.340437   -0.435788    0.980204
 ---------------------------------------------------------------------

 SCF Done:  E(RB3LYP) =  -152.210873687     A.U. after   14 cycles

 The electronic state is 1-A.
 Alpha  occ. eigenvalues --  -11.17534 -11.07480 -11.05690 -11.02886  -1.60179
 Alpha  occ. eigenvalues --   -1.49230  -1.42310  -1.25221  -1.20262  -1.18280
 Alpha  occ. eigenvalues --   -1.09076  -1.07784
 Alpha virt. eigenvalues --   -0.95487  -0.89358  -0.86850  -0.80231  -0.72088
 Alpha virt. eigenvalues --   -0.65296  -0.55071  -0.53253  -0.47229  -0.46619
 Alpha virt. eigenvalues --   -0.46602  -0.42704  -0.42208  -0.41396  -0.41098

 Mulliken charges:
               1
     1  C    0.563874
     2  C    0.781322
     3  C    0.355252
     4  H    0.351238
     5  C    0.204758
     6  H    0.371796
     7  H    0.371760
 Sum of Mulliken charges =   3.00000

 Dipole moment (field-independent basis, Debye):
    X=             -1.2783    Y=              0.3075    Z=              0.0006  Tot=              1.3148
 Quadrupole moment (field-independent basis, Debye-Ang):
   XX=             30.7378   YY=            -10.1321   ZZ=            -15.0288
   XY=              0.5097   XZ=             -0.0003   YZ=              0.0009

  Exact polarizability:  66.326  -2.164  24.351  -0.001   0.001  22.041
 Approx polarizability: 126.168 -10.385  40.379  -0.004   0.003  31.431

                      1                      2                      3
                      A                      A                      A
 Frequencies --    181.3033               201.2222               348.1512
 Red. masses --      5.1859                 3.7118                 1.2867
 Frc consts  --      0.1004                 0.0885                 0.0919
 IR Inten    --      2.1723                13.0275                 4.0018

                      4                      5                      6
                      A                      A                      A
 Frequencies --    409.7942               571.2960               640.4830
 Red. masses --      6.3777                 1.3893                 6.5927
 Frc consts  --      0.6310                 0.2672                 1.5934
 IR Inten    --     10.8754                48.1471               214.1840

                      7                      8                      9
                      A                      A                      A
 Frequencies --    773.4773               942.4682               942.5458
 Red. masses --      1.2253                 4.7925                 1.5158
 Frc consts  --      0.4319                 2.5081                 0.7934
 IR Inten    --      9.2137               496.7149                 1.5544

                     10                     11                     12
                      A                      A                      A
 Frequencies --   1189.3137              1297.3908              1657.6494
 Red. masses --      1.3799                 1.1074                 8.3794
 Frc consts  --      1.1500                 1.0982                13.5659
 IR Inten    --     23.1420               101.8643               174.8593

                     13                     14                     15
                      A                      A                      A
 Frequencies --   2252.8305              2739.5621              2855.7043
 Red. masses --      1.0689                 1.0437                 1.1290
 Frc consts  --      3.1961                 4.6152                 5.4248
 IR Inten    --    728.7830               619.7704               352.7370

 - Thermochemistry -
 -------------------
 Temperature   298.150 Kelvin.  Pressure   1.00000 Atm.
 Atom     1 has atomic number  6 and mass  12.00000

 Molecular mass:    51.02348 amu.
 Principal axes and moments of inertia in atomic units:
                           1         2         3
     Eigenvalues --    26.03634 462.35711 474.56484
           X            0.99995   0.00978  -0.00000
           Y           -0.00978   0.99995   0.00008
           Z            0.00000  -0.00008   1.00000
 This molecule is an asymmetric top.
 Rotational symmetry number  1.
 Rotational temperatures (Kelvin)      3.32665     0.18733     0.18251
 Rotational constants (GHZ):          69.31623     3.90335     3.80294
 Zero-point vibrational energy     101701.7 (Joules/Mol)
                                   24.30728 (Kcal/Mol)
 Warning -- explicit consideration of   5 degrees of freedom as
           vibrations may cause significant error
 Vibrational temperatures:    260.85   289.51   500.91   589.60   821.97
          (Kelvin)            921.51  1112.86  1356.00  1356.11  1711.16
                             1866.65  2384.98  3241.32  3941.61  4108.72

 Zero-point correction=                           0.038736 (Hartree/Particle)
 Thermal correction to Energy=                    0.043907
 Thermal correction to Enthalpy=                  0.044851
 Thermal correction to Gibbs Free Energy=         0.012094
 Sum of electronic and zero-point Energies=           -152.172138
 Sum of electronic and thermal Energies=              -152.166967
 Sum of electronic and thermal Enthalpies=            -152.166023
 Sum of electronic and thermal Free Energies=         -152.198780

                     E (Thermal)             CV                S
                      KCal/Mol        Cal/Mol-Kelvin    Cal/Mol-Kelvin
 Total                   27.552             16.728             68.943
 Electronic               0.000              0.000              0.000
 Translational            0.889              2.981             37.712
 Rotational               0.889              2.981             23.262
 Vibrational             25.774             10.766              7.969
 Vibration     1          0.630              1.865              2.315
 Vibration     2          0.638              1.838              2.122
 Vibration     3          0.726              1.579              1.175
 Vibration     4          0.774              1.449              0.927
 Vibration     5          0.927              1.093              0.502

 Optimization completed.
    -- Stationary point found.
 Normal termination of Gaussian 09 at Sun Jun 19 06:44:55 2016.
