 Gaussian 09, Revision E.01,
 Gaussian 09:  EM64L-G09RevE.01 30-Nov-2015

 ---------------------------------------------
 #p b3lyp/6-311++G(3df,2p) freq symmetry=Loose
 ---------------------------------------------

 ---------
 b3lyp opt
 ---------
 Symbolic Z-matrix:
 Charge =  2 Multiplicity = 2

                         Standard orientation:
 ---------------------------------------------------------------------
 Center     Atomic      Atomic             Coordinates (Angstroms)
 Number     Number       Type             X           Y           Z
 ---------------------------------------------------------------------
      1          6           0       -1.281073   -1.773876    0.000000
      2          1           0       -0.413305   -2.430179    0.000000
      3          1           0       -2.275833   -2.219020    0.000000
      4          6           0       -1.159900   -0.369636    0.000000
      5          1           0       -2.054839    0.277945    0.000000
      6          6           0        0.000000    0.272253    0.000000
      7          6           0        1.096563    0.959231    0.000000
      8          6           0        2.135073    1.640570    0.000000
 ---------------------------------------------------------------------

 SCF Done:  E(UB3LYP) =  -191.265319856     A.U. after   20 cycles

 The electronic state is 2-A'.
 Alpha  occ. eigenvalues --  -10.81116 -10.77949 -10.70503 -10.69712 -10.67993
 Alpha  occ. eigenvalues --   -1.32687  -1.27844  -1.18925  -1.10542  -0.96940
 Alpha  occ. eigenvalues --   -0.91911  -0.89133  -0.85772  -0.84927  -0.82254
 Alpha  occ. eigenvalues --   -0.76936
 Alpha virt. eigenvalues --   -0.62598  -0.61350  -0.46855  -0.38471  -0.32611
 Alpha virt. eigenvalues --   -0.32094  -0.29054  -0.27498  -0.25805  -0.24628
 Alpha virt. eigenvalues --   -0.24063  -0.22435  -0.20568  -0.20078  -0.19705

  Beta  occ. eigenvalues --  -10.78213 -10.78003 -10.70704 -10.69645 -10.68083
  Beta  occ. eigenvalues --   -1.32735  -1.26619  -1.17819  -1.10533  -0.97216
  Beta  occ. eigenvalues --   -0.92297  -0.85433  -0.85086  -0.81182  -0.75591
  Beta virt. eigenvalues --   -0.64932  -0.60391  -0.60287  -0.46162  -0.36353
  Beta virt. eigenvalues --   -0.32050  -0.31278  -0.29151  -0.27386  -0.25900
  Beta virt. eigenvalues --   -0.24641  -0.24151  -0.22423  -0.20144  -0.19943

 Mulliken charges and spin densities:
               1          2
     1  C   -0.281580  -0.125466
     2  H    0.266892   0.003294
     3  H    0.307415   0.002564
     4  C    0.403116  -0.108953
     5  H    0.268301  -0.008485
     6  C   -0.129050  -0.043663
     7  C    0.745881  -0.036449
     8  C    0.419026   1.317158
 Sum of Mulliken charges =   2.00000   1.00000

 Dipole moment (field-independent basis, Debye):
    X=              0.2456    Y=             -0.3972    Z=              0.0000  Tot=              0.4670
 Quadrupole moment (field-independent basis, Debye-Ang):
   XX=              5.1894   YY=              0.5657   ZZ=            -24.7543
   XY=             20.4917   XZ=              0.0000   YZ=              0.0000

  Exact polarizability:  75.030  37.187  66.212  -0.000  -0.000  25.535
 Approx polarizability: 183.121 109.917 139.569  -0.000  -0.000  35.127

                      1                      2                      3
                     A'                     A"                     A'
 Frequencies --    138.3975               179.6395               281.3748
 Red. masses --      4.4763                 3.3314                 6.4740
 Frc consts  --      0.0505                 0.0633                 0.3020
 IR Inten    --      5.7327                 8.5754                 5.1829

                      4                      5                      6
                     A"                     A"                     A'
 Frequencies --    335.6322               595.9869               612.6402
 Red. masses --      1.9261                 3.5874                 5.5251
 Frc consts  --      0.1278                 0.7508                 1.2218
 IR Inten    --      0.6184                 0.8398                 7.8023

                      7                      8                      9
                     A"                     A'                     A'
 Frequencies --    813.7579               835.1516              1025.7474
 Red. masses --      1.2437                 3.4178                 1.3406
 Frc consts  --      0.4852                 1.4045                 0.8310
 IR Inten    --     42.3209                 1.6953                 3.3036

                     10                     11                     12
                     A"                     A'                     A'
 Frequencies --   1151.2439              1209.8117              1323.1464
 Red. masses --      1.3678                 1.6661                 2.3886
 Frc consts  --      1.0681                 1.4368                 2.4639
 IR Inten    --      6.2934               107.3351               214.3399

                     13                     14                     15
                     A'                     A'                     A'
 Frequencies --   1497.8228              1737.6025              2138.8265
 Red. masses --      1.2441                10.9454                11.9455
 Frc consts  --      1.6445                19.4707                32.1963
 IR Inten    --     25.0038               204.6351              1169.6787

                     16                     17                     18
                     A'                     A'                     A'
 Frequencies --   2954.4753              3094.0877              3210.6019
 Red. masses --      1.0817                 1.0576                 1.1253
 Frc consts  --      5.5629                 5.9656                 6.8345
 IR Inten    --    229.7604                83.1753                71.9363

 - Thermochemistry -
 -------------------
 Temperature   298.150 Kelvin.  Pressure   1.00000 Atm.
 Atom     1 has atomic number  6 and mass  12.00000

 Molecular mass:    63.02348 amu.
 Principal axes and moments of inertia in atomic units:
                           1         2         3
     Eigenvalues --    41.01227 703.86818 744.88045
           X            0.74413  -0.66804   0.00000
           Y            0.66804   0.74413   0.00000
           Z            0.00000   0.00000   1.00000
 This molecule is an asymmetric top.
 Rotational symmetry number  1.
 Rotational temperatures (Kelvin)      2.11190     0.12305     0.11628
 Rotational constants (GHZ):          44.00491     2.56403     2.42286
 Zero-point vibrational energy     138383.7 (Joules/Mol)
                                   33.07450 (Kcal/Mol)
 Warning -- explicit consideration of   6 degrees of freedom as
           vibrations may cause significant error
 Vibrational temperatures:    199.12   258.46   404.84   482.90   857.49
          (Kelvin)            881.45  1170.81  1201.60  1475.82  1656.38
                             1740.65  1903.71  2155.03  2500.02  3077.29
                             4250.83  4451.70  4619.33

 Zero-point correction=                           0.052708 (Hartree/Particle)
 Thermal correction to Energy=                    0.058164
 Thermal correction to Enthalpy=                  0.059109
 Thermal correction to Gibbs Free Energy=         0.024095
 Sum of electronic and zero-point Energies=           -191.212612
 Sum of electronic and thermal Energies=              -191.207155
 Sum of electronic and thermal Enthalpies=            -191.206211
 Sum of electronic and thermal Free Energies=         -191.241225

                     E (Thermal)             CV                S
                      KCal/Mol        Cal/Mol-Kelvin    Cal/Mol-Kelvin
 Total                   36.499             17.364             73.692
 Electronic               0.000              0.000              1.377
 Translational            0.889              2.981             38.342
 Rotational               0.889              2.981             24.579
 Vibrational             34.721             11.402              9.394
 Vibration     1          0.614              1.915              2.826
 Vibration     2          0.629              1.867              2.332
 Vibration     3          0.681              1.708              1.525
 Vibration     4          0.717              1.604              1.233
 Vibration     5          0.954              1.040              0.457
 Vibration     6          0.972              1.005              0.428

 Optimization completed.
    -- Stationary point found.
 Normal termination of Gaussian 09 at Sun Jun 19 11:48:45 2016.
