 Gaussian 09, Revision E.01,
 Gaussian 09:  EM64L-G09RevE.01 30-Nov-2015

 ---------------------------------------------
 #p b3lyp/6-311++G(3df,2p) freq symmetry=Loose
 ---------------------------------------------

 ---------
 b3lyp opt
 ---------
 Symbolic Z-matrix:
 Charge =  0 Multiplicity = 4

                         Standard orientation:
 ---------------------------------------------------------------------
 Center     Atomic      Atomic             Coordinates (Angstroms)
 Number     Number       Type             X           Y           Z
 ---------------------------------------------------------------------
      1          6           0       -2.349260   -0.203739    0.000133
      2          1           0       -3.368977   -0.499332    0.000175
      3          6           0       -1.187313    0.135038    0.000086
      4          6           0        0.145727    0.537881    0.000032
      5          1           0        0.364923    1.598196    0.000100
      6          6           0        1.206592   -0.378215   -0.000106
      7          1           0        0.969317   -1.443063   -0.000172
      8          6           0        2.523377   -0.033599   -0.000163
 ---------------------------------------------------------------------

 SCF Done:  E(UB3LYP) =  -192.088549528     A.U. after   17 cycles

 The electronic state is 4-A.
 Alpha  occ. eigenvalues --  -10.25391 -10.22213 -10.21828 -10.19172 -10.18786
 Alpha  occ. eigenvalues --   -0.84567  -0.77839  -0.70838  -0.56960  -0.55315
 Alpha  occ. eigenvalues --   -0.50793  -0.44746  -0.39174  -0.38101  -0.31605
 Alpha  occ. eigenvalues --   -0.29848  -0.24412  -0.21924
 Alpha virt. eigenvalues --   -0.01780  -0.00243   0.00686   0.01490   0.02320
 Alpha virt. eigenvalues --    0.04329   0.04705   0.06404   0.07092   0.07901
 Alpha virt. eigenvalues --    0.08762   0.08910   0.10178   0.10834   0.11154

  Beta  occ. eigenvalues --  -10.22320 -10.21499 -10.20893 -10.19376 -10.18303
  Beta  occ. eigenvalues --   -0.82600  -0.76077  -0.67236  -0.54647  -0.53220
  Beta  occ. eigenvalues --   -0.49279  -0.42619  -0.35450  -0.29568  -0.28594
  Beta virt. eigenvalues --   -0.18277  -0.10440  -0.05899   0.00011   0.00814
  Beta virt. eigenvalues --    0.01331   0.01786   0.02529   0.04824   0.05242
  Beta virt. eigenvalues --    0.07266   0.07514   0.08540   0.09110   0.10246

 Mulliken charges and spin densities:
               1          2
     1  C   -0.048657   0.330778
     2  H    0.301434  -0.011052
     3  C   -0.149287  -0.134619
     4  C   -0.126256   0.575396
     5  H    0.153067  -0.022544
     6  C   -0.007348  -0.244608
     7  H    0.151543   0.077188
     8  C   -0.274496   2.429462
 Sum of Mulliken charges =  -0.00000   3.00000

 Dipole moment (field-independent basis, Debye):
    X=             -0.5482    Y=             -0.1622    Z=              0.0000  Tot=              0.5717
 Quadrupole moment (field-independent basis, Debye-Ang):
   XX=            -25.9476   YY=            -28.1078   ZZ=            -32.0019
   XY=              1.3505   XZ=             -0.0003   YZ=              0.0002

  Exact polarizability: 117.380   3.395  46.710  -0.005   0.000  39.400
 Approx polarizability: 189.993  10.537  67.056  -0.008   0.000  53.565

                      1                      2                      3
                      A                      A                      A
 Frequencies --    177.7563               178.6573               435.7613
 Red. masses --      4.4275                 4.1581                 5.5513
 Frc consts  --      0.0824                 0.0782                 0.6211
 IR Inten    --      0.2837                 0.6569                 5.8707

                      4                      5                      6
                      A                      A                      A
 Frequencies --    442.7030               560.7163               570.0063
 Red. masses --      4.5577                 6.8084                 1.2809
 Frc consts  --      0.5263                 1.2612                 0.2452
 IR Inten    --      4.7634                 6.0177                46.1230

                      7                      8                      9
                      A                      A                      A
 Frequencies --    676.0496               779.2941               825.0141
 Red. masses --      1.2630                 1.7555                 1.2271
 Frc consts  --      0.3401                 0.6281                 0.4921
 IR Inten    --     43.4993                 8.4801                19.6638

                     10                     11                     12
                      A                      A                      A
 Frequencies --   1038.9669              1172.5410              1236.2758
 Red. masses --      4.4503                 2.4780                 1.3438
 Frc consts  --      2.8304                 2.0073                 1.2101
 IR Inten    --      2.7605                 0.8550                 6.2583

                     13                     14                     15
                      A                      A                      A
 Frequencies --   1297.0814              1413.3023              2098.8315
 Red. masses --      4.3382                 1.8122                 6.4437
 Frc consts  --      4.3002                 2.1327                16.7240
 IR Inten    --     19.5332                 4.4866                 2.8214

                     16                     17                     18
                      A                      A                      A
 Frequencies --   3058.5860              3163.4755              3456.6071
 Red. masses --      1.0838                 1.0865                 1.1465
 Frc consts  --      5.9734                 6.4064                 8.0713
 IR Inten    --      0.8571                 0.9527                75.6932

 - Thermochemistry -
 -------------------
 Temperature   298.150 Kelvin.  Pressure   1.00000 Atm.
 Atom     1 has atomic number  6 and mass  12.00000

 Molecular mass:    63.02348 amu.
 Principal axes and moments of inertia in atomic units:
                           1         2         3
     Eigenvalues --    38.69953 677.56945 716.26898
           X            0.99999   0.00487   0.00006
           Y           -0.00487   0.99999  -0.00008
           Z           -0.00006   0.00008   1.00000
 This molecule is an asymmetric top.
 Rotational symmetry number  1.
 Rotational temperatures (Kelvin)      2.23811     0.12783     0.12092
 Rotational constants (GHZ):          46.63471     2.66355     2.51964
 Zero-point vibrational energy     135068.1 (Joules/Mol)
                                   32.28205 (Kcal/Mol)
 Warning -- explicit consideration of   6 degrees of freedom as
           vibrations may cause significant error
 Vibrational temperatures:    255.75   257.05   626.96   636.95   806.74
          (Kelvin)            820.11   972.68  1121.23  1187.01  1494.84
                             1687.02  1778.72  1866.21  2033.42  3019.75
                             4400.62  4551.53  4973.28

 Zero-point correction=                           0.051445 (Hartree/Particle)
 Thermal correction to Energy=                    0.056737
 Thermal correction to Enthalpy=                  0.057682
 Thermal correction to Gibbs Free Energy=         0.022581
 Sum of electronic and zero-point Energies=           -192.037105
 Sum of electronic and thermal Energies=              -192.031812
 Sum of electronic and thermal Enthalpies=            -192.030868
 Sum of electronic and thermal Free Energies=         -192.065969

                     E (Thermal)             CV                S
                      KCal/Mol        Cal/Mol-Kelvin    Cal/Mol-Kelvin
 Total                   35.603             17.855             73.876
 Electronic               0.000              0.000              2.755
 Translational            0.889              2.981             38.342
 Rotational               0.889              2.981             24.444
 Vibrational             33.826             11.893              8.335
 Vibration     1          0.628              1.870              2.352
 Vibration     2          0.629              1.869              2.342
 Vibration     3          0.796              1.392              0.840
 Vibration     4          0.802              1.377              0.818
 Vibration     5          0.916              1.116              0.522
 Vibration     6          0.926              1.096              0.504

 Optimization completed.
    -- Stationary point found.
 Normal termination of Gaussian 09 at Tue Jul 19 17:59:01 2016.
