 Gaussian 09, Revision E.01,
 Gaussian 09:  EM64L-G09RevE.01 30-Nov-2015

 ---------------------------------------------
 #p b3lyp/6-311++G(3df,2p) freq symmetry=Loose
 ---------------------------------------------

 ---------
 b3lyp opt
 ---------
 Symbolic Z-matrix:
 Charge =  2 Multiplicity = 4

                         Standard orientation:
 ---------------------------------------------------------------------
 Center     Atomic      Atomic             Coordinates (Angstroms)
 Number     Number       Type             X           Y           Z
 ---------------------------------------------------------------------
      1          6           0       -1.478864    0.856649    0.003550
      2          6           0       -1.808289   -0.464426   -0.004945
      3          6           0       -0.473375   -0.093380    0.000843
      4          6           0        0.962111   -0.526500    0.002385
      5          1           0        1.169012   -1.237551    0.849042
      6          1           0        1.169052   -1.244093   -0.838808
      7          6           0        2.017920    0.399979   -0.002210
      8          1           0        2.344923    1.447707   -0.007972
 ---------------------------------------------------------------------

 SCF Done:  E(UB3LYP) =  -191.158260251     A.U. after   15 cycles

 The electronic state is 4-A.
 Alpha  occ. eigenvalues --  -10.78806 -10.75544 -10.75473 -10.74440 -10.70246
 Alpha  occ. eigenvalues --   -1.43829  -1.30769  -1.12695  -1.03334  -1.00596
 Alpha  occ. eigenvalues --   -0.93157  -0.92755  -0.91570  -0.84960  -0.81176
 Alpha  occ. eigenvalues --   -0.75536  -0.74096
 Alpha virt. eigenvalues --   -0.60623  -0.50098  -0.48552  -0.35205  -0.32980
 Alpha virt. eigenvalues --   -0.30002  -0.29364  -0.28396  -0.26494  -0.26166
 Alpha virt. eigenvalues --   -0.24783  -0.24363  -0.21237  -0.20292  -0.20076

  Beta  occ. eigenvalues --  -10.77040 -10.73945 -10.73558 -10.73486 -10.70288
  Beta  occ. eigenvalues --   -1.41562  -1.29022  -1.09521  -1.01420  -0.95465
  Beta  occ. eigenvalues --   -0.92438  -0.90064  -0.86949  -0.83588
  Beta virt. eigenvalues --   -0.62406  -0.58346  -0.58043  -0.56295  -0.48682
  Beta virt. eigenvalues --   -0.44513  -0.34671  -0.31627  -0.29294  -0.27510
  Beta virt. eigenvalues --   -0.27053  -0.25969  -0.25280  -0.24491  -0.21643

 Mulliken charges and spin densities:
               1          2
     1  C    0.374624   0.976466
     2  C    0.254205   1.011844
     3  C    0.361671   0.019087
     4  C    0.028963  -0.051104
     5  H    0.289268   0.013945
     6  H    0.289259   0.014002
     7  C    0.040467   1.006861
     8  H    0.361544   0.008899
 Sum of Mulliken charges =   2.00000   3.00000

 Dipole moment (field-independent basis, Debye):
    X=              3.5798    Y=              0.2471    Z=             -0.0032  Tot=              3.5883
 Quadrupole moment (field-independent basis, Debye-Ang):
   XX=              3.4325   YY=            -15.0149   ZZ=            -21.6654
   XY=              2.3806   XZ=             -0.0123   YZ=             -0.0128

  Exact polarizability:  53.661   1.706  39.240   0.007   0.014  28.053
 Approx polarizability:  77.069   4.944  69.110   0.035   0.078  42.756

                      1                      2                      3
                      A                      A                      A
 Frequencies --     35.6899               229.8483               231.1362
 Red. masses --      3.2891                 3.6247                 1.1825
 Frc consts  --      0.0025                 0.1128                 0.0372
 IR Inten    --      0.0021                 8.6802                78.7703

                      4                      5                      6
                      A                      A                      A
 Frequencies --    378.6783               474.6112               652.6713
 Red. masses --      3.6949                 2.8649                 2.1500
 Frc consts  --      0.3122                 0.3802                 0.5396
 IR Inten    --      0.2490                20.4750                15.3884

                      7                      8                      9
                      A                      A                      A
 Frequencies --    777.5208               874.8553              1056.9833
 Red. masses --      3.4293                 2.1565                 1.7075
 Frc consts  --      1.2215                 0.9725                 1.1240
 IR Inten    --     22.9957                 2.1634                50.5365

                     10                     11                     12
                      A                      A                      A
 Frequencies --   1156.4903              1171.3292              1181.2841
 Red. masses --      1.0797                 1.1035                10.5420
 Frc consts  --      0.8508                 0.8921                 8.6672
 IR Inten    --     89.9337                 1.7289               129.2997

                     13                     14                     15
                      A                      A                      A
 Frequencies --   1329.3715              1362.9558              1682.5557
 Red. masses --      5.4534                 3.1056                11.8952
 Frc consts  --      5.6782                 3.3990                19.8409
 IR Inten    --      3.2264                39.3942                 0.2408

                     16                     17                     18
                      A                      A                      A
 Frequencies --   2755.8338              2787.7222              3091.4041
 Red. masses --      1.0815                 1.0653                 1.1026
 Frc consts  --      4.8394                 4.8780                 6.2084
 IR Inten    --    174.5100               230.3997               137.3649

 - Thermochemistry -
 -------------------
 Temperature   298.150 Kelvin.  Pressure   1.00000 Atm.
 Atom     1 has atomic number  6 and mass  12.00000

 Molecular mass:    63.02348 amu.
 Principal axes and moments of inertia in atomic units:
                           1         2         3
     Eigenvalues --    83.48808 491.14940 564.37963
           X            0.99999   0.00363  -0.00005
           Y           -0.00363   0.99999  -0.00091
           Z            0.00005   0.00091   1.00000
 This molecule is an asymmetric top.
 Rotational symmetry number  1.
 Rotational temperatures (Kelvin)      1.03744     0.17635     0.15347
 Rotational constants (GHZ):          21.61675     3.67453     3.19774
 Zero-point vibrational energy     126989.2 (Joules/Mol)
                                   30.35115 (Kcal/Mol)
 Warning -- explicit consideration of   5 degrees of freedom as
           vibrations may cause significant error
 Vibrational temperatures:     51.35   330.70   332.55   544.83   682.86
          (Kelvin)            939.05  1118.68  1258.72  1520.76  1663.93
                             1685.28  1699.60  1912.67  1960.99  2420.82
                             3965.03  4010.91  4447.84

 Zero-point correction=                           0.048368 (Hartree/Particle)
 Thermal correction to Energy=                    0.054054
 Thermal correction to Enthalpy=                  0.054998
 Thermal correction to Gibbs Free Energy=         0.018048
 Sum of electronic and zero-point Energies=           -191.109893
 Sum of electronic and thermal Energies=              -191.104207
 Sum of electronic and thermal Enthalpies=            -191.103263
 Sum of electronic and thermal Free Energies=         -191.140212

                     E (Thermal)             CV                S
                      KCal/Mol        Cal/Mol-Kelvin    Cal/Mol-Kelvin
 Total                   33.919             17.791             77.767
 Electronic               0.000              0.000              2.755
 Translational            0.889              2.981             38.342
 Rotational               0.889              2.981             24.652
 Vibrational             32.142             11.830             12.018
 Vibration     1          0.594              1.982              5.485
 Vibration     2          0.652              1.795              1.880
 Vibration     3          0.653              1.793              1.870
 Vibration     4          0.749              1.516              1.044
 Vibration     5          0.831              1.306              0.725

 Normal termination of Gaussian 09 at Sun Jun 19 12:21:07 2016.
