 Gaussian 09, Revision E.01,
 Gaussian 09:  EM64L-G09RevE.01 30-Nov-2015

 ---------------------------------------------
 #p b3lyp/6-311++G(3df,2p) freq symmetry=Loose
 ---------------------------------------------

 ---------
 b3lyp opt
 ---------
 Symbolic Z-matrix:
 Charge =  1 Multiplicity = 1

                         Standard orientation:
 ---------------------------------------------------------------------
 Center     Atomic      Atomic             Coordinates (Angstroms)
 Number     Number       Type             X           Y           Z
 ---------------------------------------------------------------------
      1          6           0        1.854629   -0.588091    0.011594
      2          6           0        1.746933    0.788597    0.002201
      3          6           0        0.528048   -0.216566   -0.009518
      4          6           0       -0.748356   -0.109485   -0.035582
      5          6           0       -2.130204    0.068951   -0.013718
      6          1           0       -2.356575    0.081765    1.083119
      7          1           0       -2.459401    1.041266   -0.397358
      8          1           0       -2.690323   -0.783465   -0.415621
 ---------------------------------------------------------------------

 SCF Done:  E(RB3LYP) =  -191.759732236     A.U. after   16 cycles

 The electronic state is 1-A.
 Alpha  occ. eigenvalues --  -10.54343 -10.51306 -10.50247 -10.47852 -10.45164
 Alpha  occ. eigenvalues --   -1.17378  -1.07578  -0.97829  -0.75961  -0.74225
 Alpha  occ. eigenvalues --   -0.69930  -0.69793  -0.65849  -0.62756  -0.52449
 Alpha  occ. eigenvalues --   -0.50041
 Alpha virt. eigenvalues --   -0.43308  -0.32903  -0.25130  -0.19416  -0.17636
 Alpha virt. eigenvalues --   -0.12210  -0.11971  -0.11522  -0.09969  -0.08681
 Alpha virt. eigenvalues --   -0.08182  -0.07351  -0.06753  -0.06419  -0.05557

 Mulliken charges:
               1
     1  C    0.056342
     2  C   -0.176637
     3  C    0.315337
     4  C    0.306149
     5  C   -0.201631
     6  H    0.238117
     7  H    0.234946
     8  H    0.227378
 Sum of Mulliken charges =   1.00000

 Dipole moment (field-independent basis, Debye):
    X=             -4.2962    Y=             -0.1598    Z=              0.2871  Tot=              4.3088
 Quadrupole moment (field-independent basis, Debye-Ang):
   XX=             -8.3939   YY=            -28.5555   ZZ=            -24.3224
   XY=             -0.2595   XZ=             -0.7184   YZ=              0.0535

  Exact polarizability: 100.038  -1.630  40.358  -0.613   0.439  35.953
 Approx polarizability: 234.417  -8.431  65.876  -0.651   0.155  53.931

                      1                      2                      3
                      A                      A                      A
 Frequencies --    107.4451               146.7643               181.6830
 Red. masses --      1.3005                 3.8883                 4.3824
 Frc consts  --      0.0088                 0.0493                 0.0852
 IR Inten    --      9.2162                 2.9998                 0.5099

                      4                      5                      6
                      A                      A                      A
 Frequencies --    289.7551               415.3045               457.2098
 Red. masses --      6.1191                 9.7550                 2.4051
 Frc consts  --      0.3027                 0.9913                 0.2962
 IR Inten    --      9.1144                47.8650                 9.5498

                      7                      8                      9
                      A                      A                      A
 Frequencies --    740.1806               865.3719               955.8330
 Red. masses --      5.1677                 2.3216                 1.4015
 Frc consts  --      1.6681                 1.0243                 0.7544
 IR Inten    --      1.0952                27.0423                23.8628

                     10                     11                     12
                      A                      A                      A
 Frequencies --   1217.2252              1259.9685              1269.2723
 Red. masses --      5.8659                 1.2353                 1.0355
 Frc consts  --      5.1206                 1.1554                 0.9829
 IR Inten    --     28.9507                92.4174                31.0395

                     13                     14                     15
                      A                      A                      A
 Frequencies --   1342.1075              1433.1655              1905.7718
 Red. masses --      5.5780                 1.1950                11.3624
 Frc consts  --      5.9198                 1.4461                24.3144
 IR Inten    --     31.3975                 7.1626               302.2560

                     16                     17                     18
                      A                      A                      A
 Frequencies --   2823.8484              2993.6279              3059.7056
 Red. masses --      1.0637                 1.0540                 1.1047
 Frc consts  --      4.9975                 5.5653                 6.0933
 IR Inten    --    273.6021                79.3965                40.2490

 - Thermochemistry -
 -------------------
 Temperature   298.150 Kelvin.  Pressure   1.00000 Atm.
 Atom     1 has atomic number  6 and mass  12.00000

 Molecular mass:    63.02348 amu.
 Principal axes and moments of inertia in atomic units:
                           1         2         3
     Eigenvalues --    55.78998 578.73331 623.57343
           X            0.99998  -0.00465  -0.00305
           Y            0.00465   0.99999   0.00031
           Z            0.00305  -0.00033   1.00000
 This molecule is an asymmetric top.
 Rotational symmetry number  1.
 Rotational temperatures (Kelvin)      1.55250     0.14966     0.13890
 Rotational constants (GHZ):          32.34884     3.11843     2.89419
 Zero-point vibrational energy     128384.7 (Joules/Mol)
                                   30.68467 (Kcal/Mol)
 Warning -- explicit consideration of   6 degrees of freedom as
           vibrations may cause significant error
 Vibrational temperatures:    154.59   211.16   261.40   416.89   597.53
          (Kelvin)            657.82  1064.95  1245.08  1375.23  1751.31
                             1812.81  1826.20  1930.99  2062.00  2741.98
                             4062.88  4307.16  4402.23

 Zero-point correction=                           0.048899 (Hartree/Particle)
 Thermal correction to Energy=                    0.054938
 Thermal correction to Enthalpy=                  0.055882
 Thermal correction to Gibbs Free Energy=         0.020233
 Sum of electronic and zero-point Energies=           -191.710833
 Sum of electronic and thermal Energies=              -191.704794
 Sum of electronic and thermal Enthalpies=            -191.703850
 Sum of electronic and thermal Free Energies=         -191.739499

                     E (Thermal)             CV                S
                      KCal/Mol        Cal/Mol-Kelvin    Cal/Mol-Kelvin
 Total                   34.474             18.649             75.029
 Electronic               0.000              0.000              0.000
 Translational            0.889              2.981             38.342
 Rotational               0.889              2.981             24.513
 Vibrational             32.697             12.688             12.173
 Vibration     1          0.606              1.943              3.315
 Vibration     2          0.617              1.906              2.714
 Vibration     3          0.630              1.865              2.311
 Vibration     4          0.686              1.693              1.475
 Vibration     5          0.779              1.437              0.908
 Vibration     6          0.815              1.345              0.774

 Optimization completed.
    -- Stationary point found.
 Normal termination of Gaussian 09 at Sun Jun 19 09:36:46 2016.
