 Gaussian 09, Revision E.01,
 Gaussian 09:  EM64L-G09RevE.01 30-Nov-2015

 ---------------------------------------------
 #p b3lyp/6-311++G(3df,2p) freq symmetry=Loose
 ---------------------------------------------

 ---------
 b3lyp opt
 ---------
 Symbolic Z-matrix:
 Charge =  2 Multiplicity = 2

                         Standard orientation:
 ---------------------------------------------------------------------
 Center     Atomic      Atomic             Coordinates (Angstroms)
 Number     Number       Type             X           Y           Z
 ---------------------------------------------------------------------
      1          6           0       -0.309979    0.061215   -0.021124
      2          6           0       -0.974527    1.269617    0.025878
      3          6           0       -1.525610   -0.622321    0.001110
      4          1           0       -2.489203   -0.073997   -0.023532
      5          1           0       -1.619433   -1.717843    0.018640
      6          6           0        1.053248   -0.422396   -0.049313
      7          6           0        2.225357    0.259916    0.010921
      8          1           0        1.297702   -1.484347    0.200059
 ---------------------------------------------------------------------

 SCF Done:  E(UB3LYP) =  -191.144516323     A.U. after   25 cycles

 The electronic state is 2-A.
 Alpha  occ. eigenvalues --  -10.81256 -10.78987 -10.74710 -10.73913 -10.72378
 Alpha  occ. eigenvalues --   -1.38201  -1.30644  -1.13329  -1.11440  -0.98004
 Alpha  occ. eigenvalues --   -0.95926  -0.90216  -0.87696  -0.82810  -0.78312
 Alpha  occ. eigenvalues --   -0.77958
 Alpha virt. eigenvalues --   -0.60325  -0.58886  -0.56213  -0.54360  -0.40863
 Alpha virt. eigenvalues --   -0.33876  -0.31866  -0.29372  -0.28399  -0.26105
 Alpha virt. eigenvalues --   -0.25063  -0.23521  -0.22929  -0.21710  -0.20669

  Beta  occ. eigenvalues --  -10.80248 -10.78884 -10.74563 -10.73302 -10.72422
  Beta  occ. eigenvalues --   -1.37620  -1.28257  -1.12994  -1.10358  -0.97516
  Beta  occ. eigenvalues --   -0.95221  -0.90061  -0.85805  -0.78122  -0.77648
  Beta virt. eigenvalues --   -0.68257  -0.58968  -0.57843  -0.55981  -0.51245
  Beta virt. eigenvalues --   -0.38997  -0.33576  -0.31642  -0.29119  -0.28205
  Beta virt. eigenvalues --   -0.25750  -0.24939  -0.23350  -0.22520  -0.21473

 Mulliken charges and spin densities:
               1          2
     1  C    1.241109  -0.015296
     2  C   -0.015680   0.053745
     3  C   -0.305906   0.093736
     4  H    0.268470  -0.002134
     5  H    0.289914  -0.001529
     6  C    0.093935   0.349993
     7  C    0.152425   0.539069
     8  H    0.275733  -0.017584
 Sum of Mulliken charges =   2.00000   1.00000

 Dipole moment (field-independent basis, Debye):
    X=             -0.0988    Y=             -2.6599    Z=             -0.2989  Tot=              2.6785
 Quadrupole moment (field-independent basis, Debye-Ang):
   XX=              2.2107   YY=            -15.1298   ZZ=            -24.7898
   XY=              1.8574   XZ=             -0.7818   YZ=             -0.7396

  Exact polarizability:  97.885   7.717  47.850  -0.773  -0.399  26.977
 Approx polarizability: 140.515  17.255  90.622   3.207   0.989  41.439

                      1                      2                      3
                      A                      A                      A
 Frequencies --     41.1994               202.7386               226.1634
 Red. masses --      2.7321                10.2830                 3.2152
 Frc consts  --      0.0027                 0.2490                 0.0969
 IR Inten    --      1.3936                25.4671                 8.2358

                      4                      5                      6
                      A                      A                      A
 Frequencies --    353.2329               410.9348               555.1293
 Red. masses --      3.2438                 3.9400                 1.4642
 Frc consts  --      0.2385                 0.3920                 0.2659
 IR Inten    --     12.8741                 3.4456               108.4252

                      7                      8                      9
                      A                      A                      A
 Frequencies --    615.3599               768.3586               838.3484
 Red. masses --      1.7521                 2.4447                 1.5686
 Frc consts  --      0.3909                 0.8503                 0.6495
 IR Inten    --    143.2627                10.9558                44.7377

                     10                     11                     12
                      A                      A                      A
 Frequencies --    917.7266              1071.9170              1228.5720
 Red. masses --      2.0081                 1.3678                 3.1716
 Frc consts  --      0.9965                 0.9260                 2.8205
 IR Inten    --    124.7581                29.9348                50.6427

                     13                     14                     15
                      A                      A                      A
 Frequencies --   1329.9168              1414.6991              1513.0303
 Red. masses --      2.9294                 1.2644                 7.6401
 Frc consts  --      3.0526                 1.4910                10.3049
 IR Inten    --    246.0611                55.9778               256.5933

                     16                     17                     18
                      A                      A                      A
 Frequencies --   2859.3377              2921.3780              3047.9557
 Red. masses --      1.0793                 1.0632                 1.1071
 Frc consts  --      5.1989                 5.3461                 6.0599
 IR Inten    --    192.8896               277.6296               167.5800

 - Thermochemistry -
 -------------------
 Temperature   298.150 Kelvin.  Pressure   1.00000 Atm.
 Atom     1 has atomic number  6 and mass  12.00000

 Molecular mass:    63.02348 amu.
 Principal axes and moments of inertia in atomic units:
                           1         2         3
     Eigenvalues --   114.59052 442.01088 556.02579
           X            0.99992   0.01285   0.00214
           Y           -0.01283   0.99986  -0.01040
           Z           -0.00228   0.01037   0.99994
 This molecule is an asymmetric top.
 Rotational symmetry number  1.
 Rotational temperatures (Kelvin)      0.75585     0.19595     0.15577
 Rotational constants (GHZ):          15.74948     4.08302     3.24579
 Zero-point vibrational energy     121516.7 (Joules/Mol)
                                   29.04318 (Kcal/Mol)
 Warning -- explicit consideration of   7 degrees of freedom as
           vibrations may cause significant error
 Vibrational temperatures:     59.28   291.70   325.40   508.22   591.24
          (Kelvin)            798.71   885.36  1105.50  1206.19  1320.40
                             1542.25  1767.64  1913.45  2035.43  2176.91
                             4113.94  4203.21  4385.32

 Zero-point correction=                           0.046283 (Hartree/Particle)
 Thermal correction to Energy=                    0.052312
 Thermal correction to Enthalpy=                  0.053256
 Thermal correction to Gibbs Free Energy=         0.016425
 Sum of electronic and zero-point Energies=           -191.098233
 Sum of electronic and thermal Energies=              -191.092204
 Sum of electronic and thermal Enthalpies=            -191.091260
 Sum of electronic and thermal Free Energies=         -191.128091

                     E (Thermal)             CV                S
                      KCal/Mol        Cal/Mol-Kelvin    Cal/Mol-Kelvin
 Total                   32.826             19.292             77.518
 Electronic               0.000              0.000              1.377
 Translational            0.889              2.981             38.342
 Rotational               0.889              2.981             24.847
 Vibrational             31.049             13.330             12.952
 Vibration     1          0.594              1.981              5.201
 Vibration     2          0.639              1.836              2.108
 Vibration     3          0.650              1.801              1.909
 Vibration     4          0.729              1.569              1.152
 Vibration     5          0.775              1.446              0.923
 Vibration     6          0.911              1.128              0.534
 Vibration     7          0.975              0.999              0.424

 Normal termination of Gaussian 09 at Sun Jun 19 11:36:59 2016.
