 Gaussian 09, Revision E.01,
 Gaussian 09:  EM64L-G09RevE.01 30-Nov-2015

 ---------------------------------------------
 #p b3lyp/6-311++G(3df,2p) freq symmetry=Loose
 ---------------------------------------------

 ---------
 b3lyp opt
 ---------
 Symbolic Z-matrix:
 Charge =  1 Multiplicity = 1

                         Standard orientation:
 ---------------------------------------------------------------------
 Center     Atomic      Atomic             Coordinates (Angstroms)
 Number     Number       Type             X           Y           Z
 ---------------------------------------------------------------------
      1          6           0        0.005630    1.922335    0.000000
      2          1           0        0.940831    2.466678    0.000000
      3          1           0       -0.924819    2.474821    0.000000
      4          6           0        0.000000    0.606808    0.000000
      5          6           0        0.790778   -0.597228    0.000000
      6          6           0       -0.004736   -1.700378    0.000000
      7          1           0       -0.008084   -2.776188    0.000000
      8          6           0       -0.792993   -0.592422    0.000000
 ---------------------------------------------------------------------

 SCF Done:  E(RB3LYP) =  -191.893844370     A.U. after   12 cycles

 The electronic state is 1-A'.
 Alpha  occ. eigenvalues --  -10.52928 -10.52910 -10.49792 -10.48478 -10.43330
 Alpha  occ. eigenvalues --   -1.25983  -1.02923  -0.92263  -0.81665  -0.77617
 Alpha  occ. eigenvalues --   -0.71048  -0.70922  -0.68852  -0.62391  -0.55207
 Alpha  occ. eigenvalues --   -0.51920
 Alpha virt. eigenvalues --   -0.32760  -0.30944  -0.27996  -0.14231  -0.14112
 Alpha virt. eigenvalues --   -0.13731  -0.11428  -0.10765  -0.10208  -0.09380
 Alpha virt. eigenvalues --   -0.07723  -0.06201  -0.05397  -0.04733  -0.03953

 Mulliken charges:
               1
     1  C   -0.922689
     2  H    0.250107
     3  H    0.249786
     4  C    0.325011
     5  C    0.569862
     6  C   -0.378393
     7  H    0.329323
     8  C    0.576993
 Sum of Mulliken charges =   1.00000

 Dipole moment (field-independent basis, Debye):
    X=             -0.0060    Y=             -0.5289    Z=              0.0000  Tot=              0.5290
 Quadrupole moment (field-independent basis, Debye-Ang):
   XX=            -25.3891   YY=             -5.7782   ZZ=            -26.9913
   XY=              0.0584   XZ=              0.0000   YZ=              0.0000

  Exact polarizability:  41.712   0.098  76.890   0.000   0.000  27.532
 Approx polarizability:  91.330   0.148 140.711  -0.000  -0.000  41.799

                      1                      2                      3
                     A"                     A'                     A"
 Frequencies --    250.1923               355.7789               612.9741
 Red. masses --      3.8917                 2.5747                10.8612
 Frc consts  --      0.1435                 0.1920                 2.4044
 IR Inten    --     11.1670                 6.2365                 7.9933

                      4                      5                      6
                     A'                     A"                     A"
 Frequencies --    614.9802               711.2954               767.4794
 Red. masses --      4.8053                 1.1144                 1.1997
 Frc consts  --      1.0708                 0.3322                 0.4163
 IR Inten    --     39.1114                 0.0002                17.5609

                      7                      8                      9
                     A'                     A'                     A'
 Frequencies --    774.9204               985.5786               999.3051
 Red. masses --      6.4736                 3.0699                 6.8364
 Frc consts  --      2.2904                 1.7569                 4.0223
 IR Inten    --      2.0299                 0.3531                 3.2634

                     10                     11                     12
                     A"                     A'                     A'
 Frequencies --   1016.3321              1052.3211              1070.5201
 Red. masses --      1.3145                 2.0245                 1.3950
 Frc consts  --      0.8000                 1.3209                 0.9419
 IR Inten    --     30.5815                 3.0010                10.5823

                     13                     14                     15
                     A'                     A'                     A'
 Frequencies --   1435.6364              1589.6491              1790.2663
 Red. masses --      1.1504                 6.6176                 8.9759
 Frc consts  --      1.3970                 9.8526                16.9498
 IR Inten    --     27.8382                14.0028                 8.1736

                     16                     17                     18
                     A'                     A'                     A'
 Frequencies --   3151.6572              3249.8856              3299.5668
 Red. masses --      1.0596                 1.1198                 1.1210
 Frc consts  --      6.2013                 6.9680                 7.1908
 IR Inten    --     43.7655                28.1042               148.6359

 - Thermochemistry -
 -------------------
 Temperature   298.150 Kelvin.  Pressure   1.00000 Atm.
 Atom     1 has atomic number  6 and mass  12.00000

 Molecular mass:    63.02348 amu.
 Principal axes and moments of inertia in atomic units:
                           1         2         3
     Eigenvalues --    60.00866 399.78055 459.78921
           X            0.00264   1.00000   0.00000
           Y            1.00000  -0.00264   0.00000
           Z            0.00000  -0.00000   1.00000
 This molecule is an asymmetric top.
 Rotational symmetry number  1.
 Rotational temperatures (Kelvin)      1.44336     0.21665     0.18838
 Rotational constants (GHZ):          30.07468     4.51433     3.92515
 Zero-point vibrational energy     141927.0 (Joules/Mol)
                                   33.92136 (Kcal/Mol)
 Warning -- explicit consideration of   4 degrees of freedom as
           vibrations may cause significant error
 Vibrational temperatures:    359.97   511.89   881.93   884.82  1023.39
          (Kelvin)           1104.23  1114.94  1418.03  1437.78  1462.27
                             1514.05  1540.24  2065.56  2287.15  2575.79
                             4534.53  4675.85  4747.33

 Zero-point correction=                           0.054057 (Hartree/Particle)
 Thermal correction to Energy=                    0.058498
 Thermal correction to Enthalpy=                  0.059442
 Thermal correction to Gibbs Free Energy=         0.027518
 Sum of electronic and zero-point Energies=           -191.839787
 Sum of electronic and thermal Energies=              -191.835346
 Sum of electronic and thermal Enthalpies=            -191.834402
 Sum of electronic and thermal Free Energies=         -191.866326

                     E (Thermal)             CV                S
                      KCal/Mol        Cal/Mol-Kelvin    Cal/Mol-Kelvin
 Total                   36.708             15.434             67.190
 Electronic               0.000              0.000              0.000
 Translational            0.889              2.981             38.342
 Rotational               0.889              2.981             23.915
 Vibrational             34.931              9.472              4.933
 Vibration     1          0.663              1.762              1.729
 Vibration     2          0.731              1.563              1.140
 Vibration     3          0.972              1.004              0.428
 Vibration     4          0.974              1.000              0.425

 Normal termination of Gaussian 09 at Sun Jun 19 09:44:13 2016.
