 Gaussian 09, Revision E.01,
 Gaussian 09:  EM64L-G09RevE.01 30-Nov-2015

 ---------------------------------------------
 #p b3lyp/6-311++G(3df,2p) freq symmetry=Loose
 ---------------------------------------------

 ---------
 b3lyp opt
 ---------
 Symbolic Z-matrix:
 Charge =  2 Multiplicity = 4

                         Standard orientation:
 ---------------------------------------------------------------------
 Center     Atomic      Atomic             Coordinates (Angstroms)
 Number     Number       Type             X           Y           Z
 ---------------------------------------------------------------------
      1          6           0       -1.251047   -0.413590    0.000206
      2          1           0       -1.820582   -0.681070   -0.912001
      3          1           0       -1.820311   -0.680980    0.912608
      4          6           0        0.147884   -0.854533    0.000020
      5          6           0        1.352957   -0.346356   -0.000184
      6          1           0        2.417702   -0.612945   -0.000329
      7          6           0       -0.745193    1.002339    0.000061
      8          6           0        0.699264    0.941306   -0.000150
 ---------------------------------------------------------------------

 SCF Done:  E(UB3LYP) =  -191.181316310     A.U. after   16 cycles

 The electronic state is 4-A.
 Alpha  occ. eigenvalues --  -10.83257 -10.81747 -10.80769 -10.75087 -10.71404
 Alpha  occ. eigenvalues --   -1.47376  -1.29489  -1.21985  -1.06607  -1.03553
 Alpha  occ. eigenvalues --   -0.98669  -0.97349  -0.95841  -0.85793  -0.85235
 Alpha  occ. eigenvalues --   -0.78095  -0.76445
 Alpha virt. eigenvalues --   -0.60613  -0.58431  -0.47833  -0.36158  -0.33992
 Alpha virt. eigenvalues --   -0.31960  -0.28930  -0.28555  -0.28021  -0.24997
 Alpha virt. eigenvalues --   -0.24342  -0.23469  -0.23378  -0.21468  -0.21024

  Beta  occ. eigenvalues --  -10.82252 -10.79755 -10.77983 -10.75043 -10.71284
  Beta  occ. eigenvalues --   -1.44814  -1.27649  -1.17191  -1.04565  -0.99409
  Beta  occ. eigenvalues --   -0.96358  -0.94829  -0.93530  -0.83850
  Beta virt. eigenvalues --   -0.69449  -0.64967  -0.57218  -0.54012  -0.53016
  Beta virt. eigenvalues --   -0.42737  -0.35325  -0.33097  -0.30052  -0.28701
  Beta virt. eigenvalues --   -0.27649  -0.27501  -0.24023  -0.23631  -0.22678

 Mulliken charges and spin densities:
               1          2
     1  C   -0.358421  -0.007851
     2  H    0.300509   0.009716
     3  H    0.300509   0.009716
     4  C    0.666316   0.496988
     5  C    0.130963  -0.027173
     6  H    0.360008   0.034376
     7  C    0.339538   1.452544
     8  C    0.260579   1.031684
 Sum of Mulliken charges =   2.00000   3.00000

 Dipole moment (field-independent basis, Debye):
    X=              0.2309    Y=             -1.1257    Z=              0.0000  Tot=              1.1492
 Quadrupole moment (field-independent basis, Debye-Ang):
   XX=             -3.4104   YY=            -15.6004   ZZ=            -22.4596
   XY=              0.0901   XZ=             -0.0028   YZ=             -0.0004

  Exact polarizability:  52.167   0.690  40.555  -0.004  -0.001  26.201
 Approx polarizability:  96.492   5.960  89.024  -0.009  -0.003  39.543

                      1                      2                      3
                      A                      A                      A
 Frequencies --    302.1701               326.9039               445.7195
 Red. masses --      2.7818                 8.2618                 2.9541
 Frc consts  --      0.1497                 0.5202                 0.3458
 IR Inten    --     11.9604                22.5497                 0.0013

                      4                      5                      6
                      A                      A                      A
 Frequencies --    658.7601               730.7347               805.5719
 Red. masses --      5.9452                 1.2921                 4.9851
 Frc consts  --      1.5201                 0.4065                 1.9060
 IR Inten    --      6.4293                59.4922                 1.4687

                      7                      8                      9
                      A                      A                      A
 Frequencies --    869.2030               927.2615               968.9042
 Red. masses --      1.7340                 4.9829                 3.4753
 Frc consts  --      0.7719                 2.5243                 1.9222
 IR Inten    --      1.5898                 4.5689                32.7908

                     10                     11                     12
                      A                      A                      A
 Frequencies --   1013.2735              1054.6599              1143.8284
 Red. masses --      1.6630                 1.1471                 1.4850
 Frc consts  --      1.0060                 0.7517                 1.1447
 IR Inten    --     31.3876                 0.0013                30.9290

                     13                     14                     15
                      A                      A                      A
 Frequencies --   1246.5588              1327.1661              1632.1138
 Red. masses --      3.5301                 1.2294                 7.3977
 Frc consts  --      3.2320                 1.2758                11.6104
 IR Inten    --     57.1056                42.1066                19.5177

                     16                     17                     18
                      A                      A                      A
 Frequencies --   2897.5732              2940.7079              3057.9247
 Red. masses --      1.0531                 1.1061                 1.1136
 Frc consts  --      5.2096                 5.6356                 6.1352
 IR Inten    --    383.8669               172.1105               367.8986

 - Thermochemistry -
 -------------------
 Temperature   298.150 Kelvin.  Pressure   1.00000 Atm.
 Atom     1 has atomic number  6 and mass  12.00000

 Molecular mass:    63.02348 amu.
 Principal axes and moments of inertia in atomic units:
                           1         2         3
     Eigenvalues --   135.12460 242.12404 365.26683
           X            0.99941   0.03431   0.00015
           Y           -0.03431   0.99941   0.00005
           Z           -0.00015  -0.00005   1.00000
 This molecule is an asymmetric top.
 Rotational symmetry number  1.
 Rotational temperatures (Kelvin)      0.64099     0.35772     0.23712
 Rotational constants (GHZ):          13.35613     7.45379     4.94088
 Zero-point vibrational energy     133676.9 (Joules/Mol)
                                   31.94955 (Kcal/Mol)
 Warning -- explicit consideration of   3 degrees of freedom as
           vibrations may cause significant error
 Vibrational temperatures:    434.75   470.34   641.29   947.81  1051.36
          (Kelvin)           1159.04  1250.59  1334.12  1394.04  1457.87
                             1517.42  1645.71  1793.52  1909.49  2348.24
                             4168.96  4231.02  4399.67

 Zero-point correction=                           0.050915 (Hartree/Particle)
 Thermal correction to Energy=                    0.055391
 Thermal correction to Enthalpy=                  0.056336
 Thermal correction to Gibbs Free Energy=         0.023036
 Sum of electronic and zero-point Energies=           -191.130401
 Sum of electronic and thermal Energies=              -191.125925
 Sum of electronic and thermal Enthalpies=            -191.124981
 Sum of electronic and thermal Free Energies=         -191.158280

                     E (Thermal)             CV                S
                      KCal/Mol        Cal/Mol-Kelvin    Cal/Mol-Kelvin
 Total                   34.759             15.654             70.084
 Electronic               0.000              0.000              2.755
 Translational            0.889              2.981             38.342
 Rotational               0.889              2.981             23.995
 Vibrational             32.981              9.693              4.993
 Vibration     1          0.694              1.670              1.405
 Vibration     2          0.711              1.622              1.275
 Vibration     3          0.805              1.370              0.809

 Optimization completed.
    -- Stationary point found.
 Normal termination of Gaussian 09 at Tue Jul 19 16:03:24 2016.
