 Gaussian 09, Revision E.01,
 Gaussian 09:  EM64L-G09RevE.01 30-Nov-2015

 ---------------------------------------------
 #p b3lyp/6-311++G(3df,2p) freq symmetry=Loose
 ---------------------------------------------

 ---------
 b3lyp opt
 ---------
 Symbolic Z-matrix:
 Charge =  2 Multiplicity = 4

                         Standard orientation:
 ---------------------------------------------------------------------
 Center     Atomic      Atomic             Coordinates (Angstroms)
 Number     Number       Type             X           Y           Z
 ---------------------------------------------------------------------
      1          6           0        0.000000    0.318347    0.000000
      2          6           0       -1.124526    1.121081    0.000000
      3          6           0        0.916551    1.383634   -0.000000
      4          1           0        0.589840    2.436734    0.000000
      5          1           0        2.003215    1.223414   -0.000000
      6          6           0        0.281318   -1.107685   -0.000000
      7          6           0       -0.726322   -2.083783    0.000000
      8          1           0        1.324821   -1.449714   -0.000000
 ---------------------------------------------------------------------

 SCF Done:  E(UB3LYP) =  -191.100012053     A.U. after   23 cycles

 The electronic state is 4-A".
 Alpha  occ. eigenvalues --  -10.79099 -10.78487 -10.76116 -10.74555 -10.70821
 Alpha  occ. eigenvalues --   -1.37068  -1.28905  -1.13853  -1.10696  -0.98088
 Alpha  occ. eigenvalues --   -0.95840  -0.90135  -0.87237  -0.86454  -0.78477
 Alpha  occ. eigenvalues --   -0.77905  -0.72140
 Alpha virt. eigenvalues --   -0.59508  -0.57352  -0.55920  -0.40948  -0.32957
 Alpha virt. eigenvalues --   -0.30601  -0.29481  -0.27856  -0.25854  -0.24696
 Alpha virt. eigenvalues --   -0.23537  -0.23044  -0.21135  -0.20902  -0.20008

  Beta  occ. eigenvalues --  -10.78978 -10.75209 -10.74370 -10.74221 -10.70754
  Beta  occ. eigenvalues --   -1.36035  -1.23771  -1.13384  -1.06263  -0.95870
  Beta  occ. eigenvalues --   -0.93878  -0.89675  -0.84471  -0.77552
  Beta virt. eigenvalues --   -0.66397  -0.62770  -0.58083  -0.56988  -0.51088
  Beta virt. eigenvalues --   -0.48593  -0.37554  -0.32426  -0.29995  -0.28945
  Beta virt. eigenvalues --   -0.27378  -0.25331  -0.24249  -0.22498  -0.21990

 Mulliken charges and spin densities:
               1          2
     1  C    1.168614  -0.022555
     2  C    0.050854   0.041182
     3  C   -0.342246   0.111614
     4  H    0.275153  -0.000271
     5  H    0.281526  -0.002192
     6  C    0.003097   0.517159
     7  C    0.275832   2.317607
     8  H    0.287171   0.037456
 Sum of Mulliken charges =   2.00000   3.00000

 Dipole moment (field-independent basis, Debye):
    X=              2.0183    Y=             -0.6396    Z=             -0.0000  Tot=              2.1172
 Quadrupole moment (field-independent basis, Debye-Ang):
   XX=            -13.3724   YY=              1.5753   ZZ=            -24.1032
   XY=              7.2711   XZ=             -0.0000   YZ=             -0.0000

  Exact polarizability:  47.920   8.217  66.188   0.000   0.000  26.349
 Approx polarizability:  88.333  16.986  99.798  -0.000   0.000  40.341

                      1                      2                      3
                     A"                     A'                     A'
 Frequencies --     98.5551               202.4546               240.3941
 Red. masses --      3.0211                 6.1667                 3.8153
 Frc consts  --      0.0173                 0.1489                 0.1299
 IR Inten    --      0.7413                11.5509                 1.6485

                      4                      5                      6
                     A"                     A'                     A"
 Frequencies --    349.4140               522.0873               559.2690
 Red. masses --      4.1136                 6.0849                 1.0327
 Frc consts  --      0.2959                 0.9772                 0.1903
 IR Inten    --      6.6834                 0.1087                 0.1750

                      7                      8                      9
                     A'                     A"                     A'
 Frequencies --    846.6459               876.1844               901.3937
 Red. masses --      2.3198                 1.6771                 2.4072
 Frc consts  --      0.9797                 0.7586                 1.1524
 IR Inten    --     21.9934                 5.2165                28.1292

                     10                     11                     12
                     A"                     A'                     A'
 Frequencies --   1102.9902              1231.7484              1247.4126
 Red. masses --      1.3738                 1.7937                 3.3044
 Frc consts  --      0.9847                 1.6034                 3.0295
 IR Inten    --     23.3254                91.1502                70.0312

                     13                     14                     15
                     A'                     A'                     A'
 Frequencies --   1381.5861              1436.2852              1501.2518
 Red. masses --      3.0510                 1.2358                 6.2312
 Frc consts  --      3.4312                 1.5021                 8.2742
 IR Inten    --     34.2635                42.0052               277.4206

                     16                     17                     18
                     A'                     A'                     A'
 Frequencies --   2972.3665              3034.0831              3074.8081
 Red. masses --      1.0571                 1.0893                 1.1161
 Frc consts  --      5.5024                 5.9083                 6.2173
 IR Inten    --    210.8711                74.0128               140.1731

 - Thermochemistry -
 -------------------
 Temperature   298.150 Kelvin.  Pressure   1.00000 Atm.
 Atom     1 has atomic number  6 and mass  12.00000

 Molecular mass:    63.02348 amu.
 Principal axes and moments of inertia in atomic units:
                           1         2         3
     Eigenvalues --   125.46893 424.81378 550.28270
           X            0.19916   0.97997   0.00000
           Y            0.97997  -0.19916   0.00000
           Z           -0.00000   0.00000   1.00000
 This molecule is an asymmetric top.
 Rotational symmetry number  1.
 Rotational temperatures (Kelvin)      0.69032     0.20389     0.15740
 Rotational constants (GHZ):          14.38397     4.24831     3.27966
 Zero-point vibrational energy     129070.7 (Joules/Mol)
                                   30.84863 (Kcal/Mol)
 Warning -- explicit consideration of   6 degrees of freedom as
           vibrations may cause significant error
 Vibrational temperatures:    141.80   291.29   345.87   502.73   751.17
          (Kelvin)            804.66  1218.13  1260.63  1296.90  1586.95
                             1772.21  1794.75  1987.79  2066.49  2159.96
                             4276.57  4365.36  4423.96

 Zero-point correction=                           0.049160 (Hartree/Particle)
 Thermal correction to Energy=                    0.054793
 Thermal correction to Enthalpy=                  0.055737
 Thermal correction to Gibbs Free Energy=         0.019475
 Sum of electronic and zero-point Energies=           -191.050852
 Sum of electronic and thermal Energies=              -191.045219
 Sum of electronic and thermal Enthalpies=            -191.044275
 Sum of electronic and thermal Free Energies=         -191.080537

                     E (Thermal)             CV                S
                      KCal/Mol        Cal/Mol-Kelvin    Cal/Mol-Kelvin
 Total                   34.383             17.952             76.320
 Electronic               0.000              0.000              2.755
 Translational            0.889              2.981             38.342
 Rotational               0.889              2.981             24.887
 Vibrational             32.605             11.990             10.336
 Vibration     1          0.604              1.950              3.483
 Vibration     2          0.639              1.836              2.111
 Vibration     3          0.657              1.779              1.800
 Vibration     4          0.727              1.576              1.169
 Vibration     5          0.877              1.201              0.605
 Vibration     6          0.915              1.119              0.525

 Optimization completed.
    -- Stationary point found.
 Normal termination of Gaussian 09 at Tue Jul 19 14:36:56 2016.
