 Gaussian 09, Revision E.01,
 Gaussian 09:  EM64L-G09RevE.01 30-Nov-2015

 ---------------------------------------------
 #p b3lyp/6-311++G(3df,2p) freq symmetry=Loose
 ---------------------------------------------

 ---------
 b3lyp opt
 ---------
 Symbolic Z-matrix:
 Charge =  3 Multiplicity = 3

                         Standard orientation:
 ---------------------------------------------------------------------
 Center     Atomic      Atomic             Coordinates (Angstroms)
 Number     Number       Type             X           Y           Z
 ---------------------------------------------------------------------
      1          6           0        0.383575   -0.033917    0.062268
      2          6           0        1.466872    0.860717    0.045001
      3          6           0       -1.014286   -0.161314    0.355500
      4          1           0       -1.308410   -0.521643    1.420381
      5          6           0       -2.169298    0.068346   -0.307511
      6          1           0       -3.200765    0.171016   -0.769851
      7          6           0        1.693405   -0.455698   -0.185978
      8          1           0        2.347562   -1.318176   -0.466212
 ---------------------------------------------------------------------

 SCF Done:  E(UB3LYP) =  -190.421749886     A.U. after   19 cycles

 The electronic state is 3-A.
 Alpha  occ. eigenvalues --  -11.10775 -11.03017 -11.00275 -10.99232 -10.95984
 Alpha  occ. eigenvalues --   -1.66476  -1.58874  -1.40182  -1.27493  -1.25279
 Alpha  occ. eigenvalues --   -1.21404  -1.17130  -1.11257  -1.08051  -1.07551
 Alpha  occ. eigenvalues --   -0.99148
 Alpha virt. eigenvalues --   -0.87856  -0.79138  -0.74308  -0.69678  -0.58930
 Alpha virt. eigenvalues --   -0.51925  -0.50516  -0.48697  -0.47420  -0.46612
 Alpha virt. eigenvalues --   -0.43635  -0.42197  -0.40808  -0.39633  -0.37486

  Beta  occ. eigenvalues --  -11.09698 -11.02657 -10.99034 -10.98026 -10.95790
  Beta  occ. eigenvalues --   -1.64806  -1.56098  -1.38617  -1.26391  -1.22894
  Beta  occ. eigenvalues --   -1.20925  -1.13501  -1.06941  -1.06808
  Beta virt. eigenvalues --   -0.95302  -0.86512  -0.81563  -0.74359  -0.72046
  Beta virt. eigenvalues --   -0.66940  -0.57577  -0.51493  -0.49612  -0.47700
  Beta virt. eigenvalues --   -0.45959  -0.44938  -0.43327  -0.41308  -0.40256

 Mulliken charges and spin densities:
               1          2
     1  C    0.422730  -0.011005
     2  C    0.318815   1.077186
     3  C    0.188678   0.251109
     4  H    0.334516  -0.012125
     5  C    0.465844   0.576314
     6  H    0.510385  -0.014657
     7  C    0.342488   0.099162
     8  H    0.416543   0.034017
 Sum of Mulliken charges =   3.00000   2.00000

 Dipole moment (field-independent basis, Debye):
    X=             -5.7101    Y=             -0.9871    Z=             -0.3302  Tot=              5.8042
 Quadrupole moment (field-independent basis, Debye-Ang):
   XX=             35.6830   YY=            -15.8626   ZZ=            -15.8328
   XY=             -2.8372   XZ=              1.1761   YZ=             -0.6535

  Exact polarizability:  84.118   0.197  29.060   0.030  -0.682  26.743
 Approx polarizability: 162.844   6.934  50.443   1.751  -2.190  42.780

                      1                      2                      3
                      A                      A                      A
 Frequencies --     80.1353               223.6960               267.3737
 Red. masses --      2.8027                 3.5763                 2.5505
 Frc consts  --      0.0106                 0.1054                 0.1074
 IR Inten    --      4.0689                27.4179                63.0368

                      4                      5                      6
                      A                      A                      A
 Frequencies --    460.8508               556.7337               641.5401
 Red. masses --      3.6038                 1.2182                 5.1075
 Frc consts  --      0.4510                 0.2225                 1.2385
 IR Inten    --      8.6238                69.9160               188.0068

                      7                      8                      9
                      A                      A                      A
 Frequencies --    709.0442               777.6408               833.1609
 Red. masses --      2.1870                 2.2428                 1.2587
 Frc consts  --      0.6478                 0.7991                 0.5148
 IR Inten    --     10.6767               243.7848                26.3972

                     10                     11                     12
                      A                      A                      A
 Frequencies --    919.6706               965.4296              1045.7309
 Red. masses --      1.5625                 1.9021                 1.4878
 Frc consts  --      0.7786                 1.0445                 0.9586
 IR Inten    --     15.3116                51.3938                 4.1446

                     13                     14                     15
                      A                      A                      A
 Frequencies --   1149.4345              1418.2174              1634.1192
 Red. masses --      6.3578                 4.4712                 6.9601
 Frc consts  --      4.9491                 5.2986                10.9505
 IR Inten    --    105.7125               337.1248               150.1367

                     16                     17                     18
                      A                      A                      A
 Frequencies --   2448.0858              2751.7701              2855.8901
 Red. masses --      1.0753                 1.1291                 1.1336
 Frc consts  --      3.7968                 5.0375                 5.4472
 IR Inten    --    608.4927               866.1177               874.8949

 - Thermochemistry -
 -------------------
 Temperature   298.150 Kelvin.  Pressure   1.00000 Atm.
 Atom     1 has atomic number  6 and mass  12.00000

 Molecular mass:    63.02348 amu.
 Principal axes and moments of inertia in atomic units:
                           1         2         3
     Eigenvalues --    70.34435 551.31722 578.97677
           X            0.99977  -0.02149  -0.00279
           Y            0.02139   0.99925  -0.03239
           Z            0.00349   0.03233   0.99947
 This molecule is an asymmetric top.
 Rotational symmetry number  1.
 Rotational temperatures (Kelvin)      1.23128     0.15710     0.14960
 Rotational constants (GHZ):          25.65581     3.27351     3.11712
 Zero-point vibrational energy     118062.6 (Joules/Mol)
                                   28.21764 (Kcal/Mol)
 Warning -- explicit consideration of   5 degrees of freedom as
           vibrations may cause significant error
 Vibrational temperatures:    115.30   321.85   384.69   663.06   801.01
          (Kelvin)            923.03  1020.16  1118.85  1198.73  1323.20
                             1389.04  1504.57  1653.78  2040.50  2351.13
                             3522.25  3959.18  4108.98

 Zero-point correction=                           0.044968 (Hartree/Particle)
 Thermal correction to Energy=                    0.050556
 Thermal correction to Enthalpy=                  0.051500
 Thermal correction to Gibbs Free Energy=         0.015701
 Sum of electronic and zero-point Energies=           -190.376782
 Sum of electronic and thermal Energies=              -190.371194
 Sum of electronic and thermal Enthalpies=            -190.370250
 Sum of electronic and thermal Free Energies=         -190.406049

                     E (Thermal)             CV                S
                      KCal/Mol        Cal/Mol-Kelvin    Cal/Mol-Kelvin
 Total                   31.724             18.577             75.346
 Electronic               0.000              0.000              2.183
 Translational            0.889              2.981             38.342
 Rotational               0.889              2.981             24.622
 Vibrational             29.947             12.615             10.200
 Vibration     1          0.600              1.963              3.888
 Vibration     2          0.649              1.805              1.929
 Vibration     3          0.672              1.733              1.613
 Vibration     4          0.819              1.337              0.764
 Vibration     5          0.912              1.125              0.530

 Optimization completed.
    -- Stationary point found.
 Normal termination of Gaussian 09 at Sun Jun 19 14:59:26 2016.
