 Gaussian 09, Revision E.01,
 Gaussian 09:  EM64L-G09RevE.01 30-Nov-2015

 ---------------------------------------------
 #p b3lyp/6-311++G(3df,2p) freq symmetry=Loose
 ---------------------------------------------

 ---------
 b3lyp opt
 ---------
 Symbolic Z-matrix:
 Charge =  3 Multiplicity = 3

                         Standard orientation:
 ---------------------------------------------------------------------
 Center     Atomic      Atomic             Coordinates (Angstroms)
 Number     Number       Type             X           Y           Z
 ---------------------------------------------------------------------
      1          6           0       -0.424844    0.103217   -0.000097
      2          6           0        0.937900   -0.040786   -0.000140
      3          6           0        2.233684   -0.108055   -0.000160
      4          1           0        3.350969   -0.191620    0.000405
      5          6           0       -1.136939    1.363711    0.000147
      6          6           0       -1.520329   -0.868397    0.000125
      7          1           0       -2.586425   -0.546457    0.000210
      8          1           0       -1.301381   -1.960056    0.000132
 ---------------------------------------------------------------------

 SCF Done:  E(UB3LYP) =  -190.389750521     A.U. after   21 cycles

 The electronic state is 3-A.
 Alpha  occ. eigenvalues --  -11.09974 -11.03321 -11.01833 -10.99230 -10.98197
 Alpha  occ. eigenvalues --   -1.60219  -1.53618  -1.38845  -1.36913  -1.22526
 Alpha  occ. eigenvalues --   -1.18467  -1.12071  -1.11444  -1.08203  -1.03507
 Alpha  occ. eigenvalues --   -1.02062
 Alpha virt. eigenvalues --   -0.84413  -0.84219  -0.78329  -0.74470  -0.62372
 Alpha virt. eigenvalues --   -0.56230  -0.50931  -0.48339  -0.46476  -0.45055
 Alpha virt. eigenvalues --   -0.42422  -0.41588  -0.40865  -0.39424  -0.36816

  Beta  occ. eigenvalues --  -11.09081 -11.01838 -11.00984 -10.99041 -10.98102
  Beta  occ. eigenvalues --   -1.58394  -1.48679  -1.37699  -1.35148  -1.20943
  Beta  occ. eigenvalues --   -1.17586  -1.11570  -1.07713  -1.02018
  Beta virt. eigenvalues --   -0.92547  -0.91364  -0.83133  -0.81498  -0.74022
  Beta virt. eigenvalues --   -0.69253  -0.58727  -0.53767  -0.50344  -0.47684
  Beta virt. eigenvalues --   -0.46059  -0.44499  -0.41861  -0.41162  -0.40315

 Mulliken charges and spin densities:
               1          2
     1  C    0.753800   0.151333
     2  C    0.152253   0.653065
     3  C    0.784605   0.645165
     4  H    0.507654  -0.026028
     5  C    0.401653   0.511942
     6  C   -0.275055   0.066493
     7  H    0.344113  -0.004976
     8  H    0.330978   0.003007
 Sum of Mulliken charges =   3.00000   2.00000

 Dipole moment (field-independent basis, Debye):
    X=              1.7608    Y=             -1.0855    Z=              0.0006  Tot=              2.0685
 Quadrupole moment (field-independent basis, Debye-Ang):
   XX=             32.1939   YY=             -8.5470   ZZ=            -22.1061
   XY=              1.7138   XZ=             -0.0010   YZ=             -0.0004

  Exact polarizability: 100.639 -13.747  49.061  -0.006   0.002  23.239
 Approx polarizability: 223.150 -59.563 111.575  -0.020   0.009  34.351

                      1                      2                      3
                      A                      A                      A
 Frequencies --    130.4989               201.9144               242.2655
 Red. masses --      6.5217                 3.3926                 3.4539
 Frc consts  --      0.0654                 0.0815                 0.1194
 IR Inten    --      2.4478                11.1130                24.5950

                      4                      5                      6
                      A                      A                      A
 Frequencies --    426.2122               495.2382               526.3931
 Red. masses --      1.1742                 4.6669                 3.9730
 Frc consts  --      0.1257                 0.6744                 0.6486
 IR Inten    --      3.4811                31.6596                 0.0167

                      7                      8                      9
                      A                      A                      A
 Frequencies --    714.1249               735.3175               741.1466
 Red. masses --      1.4085                 1.4118                 5.4860
 Frc consts  --      0.4232                 0.4498                 1.7755
 IR Inten    --     21.8674                13.4576                14.1381

                     10                     11                     12
                      A                      A                      A
 Frequencies --    847.7376              1082.3019              1111.1316
 Red. masses --      1.6786                 3.9788                 1.3395
 Frc consts  --      0.7107                 2.7460                 0.9744
 IR Inten    --     43.1709               172.8520                22.1957

                     13                     14                     15
                      A                      A                      A
 Frequencies --   1201.2020              1388.9890              1820.9058
 Red. masses --      6.7934                 1.0828                 6.6080
 Frc consts  --      5.7752                 1.2308                12.9090
 IR Inten    --    458.4386                70.3234               538.1086

                     16                     17                     18
                      A                      A                      A
 Frequencies --   2845.4661              2900.4260              2957.3954
 Red. masses --      1.0518                 1.1615                 1.1270
 Frc consts  --      5.0175                 5.7571                 5.8078
 IR Inten    --    489.5448               579.5540               150.9644

 - Thermochemistry -
 -------------------
 Temperature   298.150 Kelvin.  Pressure   1.00000 Atm.
 Atom     1 has atomic number  6 and mass  12.00000

 Molecular mass:    63.02348 amu.
 Principal axes and moments of inertia in atomic units:
                           1         2         3
     Eigenvalues --   127.27180 484.64207 611.91387
           X            0.99945   0.03318   0.00007
           Y           -0.03318   0.99945  -0.00002
           Z           -0.00007   0.00002   1.00000
 This molecule is an asymmetric top.
 Rotational symmetry number  1.
 Rotational temperatures (Kelvin)      0.68054     0.17872     0.14155
 Rotational constants (GHZ):          14.18021     3.72386     2.94934
 Zero-point vibrational energy     121831.7 (Joules/Mol)
                                   29.11847 (Kcal/Mol)
 Warning -- explicit consideration of   6 degrees of freedom as
           vibrations may cause significant error
 Vibrational temperatures:    187.76   290.51   348.57   613.22   712.54
          (Kelvin)            757.36  1027.47  1057.96  1066.34  1219.70
                             1557.19  1598.67  1728.26  1998.44  2619.87
                             4093.99  4173.06  4255.03

 Zero-point correction=                           0.046403 (Hartree/Particle)
 Thermal correction to Energy=                    0.052132
 Thermal correction to Enthalpy=                  0.053076
 Thermal correction to Gibbs Free Energy=         0.017052
 Sum of electronic and zero-point Energies=           -190.343347
 Sum of electronic and thermal Energies=              -190.337618
 Sum of electronic and thermal Enthalpies=            -190.336674
 Sum of electronic and thermal Free Energies=         -190.372698

                     E (Thermal)             CV                S
                      KCal/Mol        Cal/Mol-Kelvin    Cal/Mol-Kelvin
 Total                   32.713             19.160             75.819
 Electronic               0.000              0.000              2.183
 Translational            0.889              2.981             38.342
 Rotational               0.889              2.981             25.138
 Vibrational             30.936             13.199             10.156
 Vibration     1          0.612              1.923              2.939
 Vibration     2          0.639              1.837              2.116
 Vibration     3          0.658              1.776              1.786
 Vibration     4          0.788              1.413              0.871
 Vibration     5          0.851              1.261              0.670
 Vibration     6          0.881              1.192              0.595

 Optimization completed.
    -- Stationary point found.
 Normal termination of Gaussian 09 at Sun Jun 19 14:13:47 2016.
