 Gaussian 09, Revision E.01,
 Gaussian 09:  EM64L-G09RevE.01 30-Nov-2015

 ---------------------------------------------
 #p b3lyp/6-311++G(3df,2p) freq symmetry=Loose
 ---------------------------------------------

 ---------
 b3lyp opt
 ---------
 Symbolic Z-matrix:
 Charge =  0 Multiplicity = 2

                         Standard orientation:
 ---------------------------------------------------------------------
 Center     Atomic      Atomic             Coordinates (Angstroms)
 Number     Number       Type             X           Y           Z
 ---------------------------------------------------------------------
      1          6           0        0.000000    0.356635    0.000000
      2          6           0       -0.883506   -0.792273    0.000000
      3          1           0       -1.955600   -0.617734    0.000000
      4          6           0        1.333787    0.842413    0.000000
      5          6           0       -0.391379   -2.010361    0.000000
      6          6           0        0.200292    1.670782    0.000000
      7          1           0        0.588532   -2.461995    0.000000
      8          1           0       -0.188093    2.676550    0.000000
 ---------------------------------------------------------------------

 SCF Done:  E(UB3LYP) =  -192.140852234     A.U. after   15 cycles

 The electronic state is 2-A'.
 Alpha  occ. eigenvalues --  -10.23883 -10.23615 -10.22344 -10.21915 -10.18912
 Alpha  occ. eigenvalues --   -0.93044  -0.82050  -0.64538  -0.59310  -0.54794
 Alpha  occ. eigenvalues --   -0.48838  -0.44669  -0.40570  -0.33716  -0.31566
 Alpha  occ. eigenvalues --   -0.28168  -0.23419
 Alpha virt. eigenvalues --   -0.08448  -0.02481  -0.00623   0.00647   0.01445
 Alpha virt. eigenvalues --    0.03463   0.05219   0.05433   0.05575   0.07678
 Alpha virt. eigenvalues --    0.09067   0.09081   0.09953   0.10331   0.10913

  Beta  occ. eigenvalues --  -10.23436 -10.22331 -10.22298 -10.22030 -10.18924
  Beta  occ. eigenvalues --   -0.92954  -0.80582  -0.62279  -0.59226  -0.53822
  Beta  occ. eigenvalues --   -0.47710  -0.44178  -0.40551  -0.33384  -0.30813
  Beta  occ. eigenvalues --   -0.23572
  Beta virt. eigenvalues --   -0.11661  -0.07248  -0.02571  -0.00587   0.00797
  Beta virt. eigenvalues --    0.01572   0.03613   0.05225   0.05362   0.05888
  Beta virt. eigenvalues --    0.08307   0.09096   0.09261   0.10026   0.10449

 Mulliken charges and spin densities:
               1          2
     1  C    0.399408   0.042228
     2  C   -0.157122  -0.167825
     3  H    0.170287   0.032993
     4  C   -0.563591  -0.005708
     5  C   -0.414059   1.062692
     6  C    0.095385   0.007255
     7  H    0.215185   0.027889
     8  H    0.254508   0.000476
 Sum of Mulliken charges =  -0.00000   1.00000

 Dipole moment (field-independent basis, Debye):
    X=             -3.1019    Y=             -0.0589    Z=              0.0000  Tot=              3.1025
 Quadrupole moment (field-independent basis, Debye-Ang):
   XX=            -35.1627   YY=            -24.1202   ZZ=            -30.3789
   XY=             -4.4637   XZ=              0.0000   YZ=              0.0000

  Exact polarizability:  56.018   5.638  79.761  -0.000   0.000  37.452
 Approx polarizability:  79.833   3.407 125.364  -0.000  -0.000  56.006

                      1                      2                      3
                     A"                     A'                     A"
 Frequencies --     91.3267               212.7688               392.8986
 Red. masses --      2.7458                 3.7303                 3.0238
 Frc consts  --      0.0135                 0.0995                 0.2750
 IR Inten    --     12.7105                 8.5739                 2.5833

                      4                      5                      6
                     A'                     A'                     A"
 Frequencies --    475.4581               740.8631               743.4643
 Red. masses --      2.7813                 3.2721                 1.8528
 Frc consts  --      0.3704                 1.0582                 0.6034
 IR Inten    --      3.3291                 6.0987                 6.5745

                      7                      8                      9
                     A"                     A'                     A"
 Frequencies --    891.8575               913.1082               920.4900
 Red. masses --      1.2935                 1.8076                 1.2884
 Frc consts  --      0.6062                 0.8880                 0.6432
 IR Inten    --      1.4426                47.3262                62.1853

                     10                     11                     12
                     A'                     A'                     A'
 Frequencies --    940.6207              1166.7813              1255.8639
 Red. masses --      1.3247                 6.2908                 1.7584
 Frc consts  --      0.6906                 5.0459                 1.6340
 IR Inten    --      6.8785                29.0150                16.9100

                     13                     14                     15
                     A'                     A'                     A'
 Frequencies --   1320.0700              1614.7837              1737.1742
 Red. masses --      2.6561                 6.8525                 8.1867
 Frc consts  --      2.7270                10.5276                14.5562
 IR Inten    --     17.2827                 7.3594                44.2649

                     16                     17                     18
                     A'                     A'                     A'
 Frequencies --   3118.0748              3229.7922              3236.0630
 Red. masses --      1.0865                 1.1122                 1.1019
 Frc consts  --      6.2236                 6.8355                 6.7988
 IR Inten    --      3.0879                 0.2292                 4.7034

 - Thermochemistry -
 -------------------
 Temperature   298.150 Kelvin.  Pressure   1.00000 Atm.
 Atom     1 has atomic number  6 and mass  12.00000

 Molecular mass:    63.02348 amu.
 Principal axes and moments of inertia in atomic units:
                           1         2         3
     Eigenvalues --    85.21501 452.29388 537.50889
           X            0.36069   0.93269   0.00000
           Y            0.93269  -0.36069   0.00000
           Z            0.00000  -0.00000   1.00000
 This molecule is an asymmetric top.
 Rotational symmetry number  1.
 Rotational temperatures (Kelvin)      1.01642     0.19150     0.16114
 Rotational constants (GHZ):          21.17868     3.99020     3.35760
 Zero-point vibrational energy     137579.3 (Joules/Mol)
                                   32.88224 (Kcal/Mol)
 Warning -- explicit consideration of   4 degrees of freedom as
           vibrations may cause significant error
 Vibrational temperatures:    131.40   306.13   565.29   684.08  1065.94
          (Kelvin)           1069.68  1283.18  1313.76  1324.38  1353.34
                             1678.74  1806.91  1899.28  2323.31  2499.40
                             4486.21  4646.94  4655.97

 Zero-point correction=                           0.052401 (Hartree/Particle)
 Thermal correction to Energy=                    0.057530
 Thermal correction to Enthalpy=                  0.058474
 Thermal correction to Gibbs Free Energy=         0.023892
 Sum of electronic and zero-point Energies=           -192.088451
 Sum of electronic and thermal Energies=              -192.083322
 Sum of electronic and thermal Enthalpies=            -192.082378
 Sum of electronic and thermal Free Energies=         -192.116960

                     E (Thermal)             CV                S
                      KCal/Mol        Cal/Mol-Kelvin    Cal/Mol-Kelvin
 Total                   36.101             16.562             72.785
 Electronic               0.000              0.000              1.377
 Translational            0.889              2.981             38.342
 Rotational               0.889              2.981             24.542
 Vibrational             34.323             10.601              8.524
 Vibration     1          0.602              1.955              3.631
 Vibration     2          0.644              1.821              2.020
 Vibration     3          0.760              1.485              0.989
 Vibration     4          0.832              1.304              0.722

 Optimization completed.
    -- Stationary point found.
 Normal termination of Gaussian 09 at Sun Jun 19 07:58:33 2016.
