 Gaussian 09, Revision E.01,
 Gaussian 09:  EM64L-G09RevE.01 30-Nov-2015

 ---------------------------------------------
 #p b3lyp/6-311++G(3df,2p) freq symmetry=Loose
 ---------------------------------------------

 ---------
 b3lyp opt
 ---------
 Symbolic Z-matrix:
 Charge =  0 Multiplicity = 2

                         Standard orientation:
 ---------------------------------------------------------------------
 Center     Atomic      Atomic             Coordinates (Angstroms)
 Number     Number       Type             X           Y           Z
 ---------------------------------------------------------------------
      1          6           0        0.000000    0.243379    0.000000
      2          6           0       -1.202822   -0.427076    0.000000
      3          1           0       -2.113674    0.178416    0.000000
      4          6           0        1.400362    0.214625    0.000000
      5          1           0        2.308185   -0.363147    0.000000
      6          6           0       -1.184433   -1.813076    0.000000
      7          6           0        0.804809    1.400738    0.000000
      8          1           0        0.897994    2.473194    0.000000
 ---------------------------------------------------------------------

 SCF Done:  E(UB3LYP) =  -192.120364195     A.U. after   16 cycles

 The electronic state is 2-A'.
 Alpha  occ. eigenvalues --  -10.27059 -10.26938 -10.26897 -10.16571 -10.16517
 Alpha  occ. eigenvalues --   -0.97971  -0.77789  -0.64256  -0.62412  -0.57618
 Alpha  occ. eigenvalues --   -0.49396  -0.44353  -0.42851  -0.38248  -0.27670
 Alpha  occ. eigenvalues --   -0.25391  -0.16678
 Alpha virt. eigenvalues --   -0.07944  -0.07228  -0.01934  -0.00251   0.01219
 Alpha virt. eigenvalues --    0.03201   0.04211   0.04675   0.06240   0.06547
 Alpha virt. eigenvalues --    0.08883   0.08885   0.08931   0.10178   0.10355

  Beta  occ. eigenvalues --  -10.27041 -10.26937 -10.26777 -10.16652 -10.15159
  Beta  occ. eigenvalues --   -0.97925  -0.76844  -0.64211  -0.61952  -0.55779
  Beta  occ. eigenvalues --   -0.48472  -0.44371  -0.42455  -0.37739  -0.27420
  Beta  occ. eigenvalues --   -0.23132
  Beta virt. eigenvalues --   -0.07932  -0.06398  -0.02287  -0.01938  -0.00246
  Beta virt. eigenvalues --    0.01507   0.03351   0.04252   0.04846   0.06391
  Beta virt. eigenvalues --    0.06615   0.08855   0.08929   0.09193   0.10202

 Mulliken charges and spin densities:
               1          2
     1  C    0.121048  -0.027007
     2  C   -0.075755  -0.041679
     3  H    0.138377   0.060762
     4  C    0.161067   0.000591
     5  H    0.269378   0.001440
     6  C   -0.833205   0.995571
     7  C   -0.045936   0.009337
     8  H    0.265027   0.000985
 Sum of Mulliken charges =  -0.00000   1.00000

 Dipole moment (field-independent basis, Debye):
    X=              4.1267    Y=              5.9456    Z=              0.0000  Tot=              7.2374
 Quadrupole moment (field-independent basis, Debye-Ang):
   XX=            -27.3621   YY=            -36.2340   ZZ=            -30.4471
   XY=             -4.6314   XZ=              0.0000   YZ=              0.0000

  Exact polarizability:  71.934  15.584  76.442   0.000  -0.000  38.350
 Approx polarizability: 103.731  22.596 119.199  -0.000  -0.000  57.531

                      1                      2                      3
                     A"                     A'                     A"
 Frequencies --     99.6563               223.3783               449.6243
 Red. masses --      4.4198                 4.7983                 2.3809
 Frc consts  --      0.0259                 0.1411                 0.2836
 IR Inten    --      5.2759                18.3240                22.9306

                      4                      5                      6
                     A'                     A"                     A"
 Frequencies --    523.7962               755.4753               822.7964
 Red. masses --      4.6607                 1.2446                 1.6673
 Frc consts  --      0.7534                 0.4185                 0.6650
 IR Inten    --      9.6228                 6.1309                46.5940

                      7                      8                      9
                     A'                     A'                     A"
 Frequencies --    831.4162               957.6342               962.0008
 Red. masses --      2.1229                 1.6421                 1.4264
 Frc consts  --      0.8646                 0.8873                 0.7777
 IR Inten    --      4.8280                 6.3382                 0.2332

                     10                     11                     12
                     A'                     A'                     A'
 Frequencies --   1003.7775              1141.8064              1201.3342
 Red. masses --      1.6788                 2.5381                 1.7304
 Frc consts  --      0.9966                 1.9496                 1.4714
 IR Inten    --     12.7519                14.6859                43.1189

                     13                     14                     15
                     A'                     A'                     A'
 Frequencies --   1387.1427              1493.6268              1734.0916
 Red. masses --      3.7131                 7.3912                 6.6144
 Frc consts  --      4.2095                 9.7151                11.7188
 IR Inten    --    145.3803               265.9320               297.0857

                     16                     17                     18
                     A'                     A'                     A'
 Frequencies --   3009.3072              3245.0249              3281.8935
 Red. masses --      1.0830                 1.0904                 1.1394
 Frc consts  --      5.7785                 6.7654                 7.2308
 IR Inten    --     44.4445                10.2153                11.7269

 - Thermochemistry -
 -------------------
 Temperature   298.150 Kelvin.  Pressure   1.00000 Atm.
 Atom     1 has atomic number  6 and mass  12.00000

 Molecular mass:    63.02348 amu.
 Principal axes and moments of inertia in atomic units:
                           1         2         3
     Eigenvalues --    86.97756 444.60594 531.58350
           X            0.71927  -0.69473   0.00000
           Y            0.69473   0.71927   0.00000
           Z            0.00000   0.00000   1.00000
 This molecule is an asymmetric top.
 Rotational symmetry number  1.
 Rotational temperatures (Kelvin)      0.99582     0.19481     0.16294
 Rotational constants (GHZ):          20.74950     4.05919     3.39503
 Zero-point vibrational energy     138310.9 (Joules/Mol)
                                   33.05711 (Kcal/Mol)
 Warning -- explicit consideration of   4 degrees of freedom as
           vibrations may cause significant error
 Vibrational temperatures:    143.38   321.39   646.91   753.62  1086.96
          (Kelvin)           1183.82  1196.22  1377.82  1384.10  1444.21
                             1642.80  1728.45  1995.79  2148.99  2494.97
                             4329.72  4668.86  4721.91

 Zero-point correction=                           0.052680 (Hartree/Particle)
 Thermal correction to Energy=                    0.057653
 Thermal correction to Enthalpy=                  0.058597
 Thermal correction to Gibbs Free Energy=         0.024338
 Sum of electronic and zero-point Energies=           -192.067684
 Sum of electronic and thermal Energies=              -192.062711
 Sum of electronic and thermal Enthalpies=            -192.061767
 Sum of electronic and thermal Free Energies=         -192.096026

                     E (Thermal)             CV                S
                      KCal/Mol        Cal/Mol-Kelvin    Cal/Mol-Kelvin
 Total                   36.178             16.106             72.105
 Electronic               0.000              0.000              1.377
 Translational            0.889              2.981             38.342
 Rotational               0.889              2.981             24.534
 Vibrational             34.400             10.145              7.851
 Vibration     1          0.604              1.949              3.461
 Vibration     2          0.649              1.805              1.932
 Vibration     3          0.809              1.362              0.797
 Vibration     4          0.879              1.197              0.601

 Optimization completed.
    -- Stationary point found.
 Normal termination of Gaussian 09 at Sun Jun 19 07:58:51 2016.
