 Gaussian 09, Revision E.01,
 Gaussian 09:  EM64L-G09RevE.01 30-Nov-2015

 ---------------------------------------------
 #p b3lyp/6-311++G(3df,2p) freq symmetry=Loose
 ---------------------------------------------

 ---------
 b3lyp opt
 ---------
 Symbolic Z-matrix:
 Charge =  3 Multiplicity = 1

                         Standard orientation:
 ---------------------------------------------------------------------
 Center     Atomic      Atomic             Coordinates (Angstroms)
 Number     Number       Type             X           Y           Z
 ---------------------------------------------------------------------
      1          6           0        2.309572   -0.365165    0.000003
      2          1           0        2.833928   -0.635768    0.963527
      3          1           0        2.835005   -0.635795   -0.962880
      4          6           0        1.121828    0.423520   -0.000000
      5          1           0        1.410075    1.533723    0.000505
      6          6           0       -0.227382    0.135507   -0.000308
      7          6           0       -1.458423   -0.037917    0.000004
      8          6           0       -2.925431   -0.199638    0.000110
 ---------------------------------------------------------------------

 SCF Done:  E(RB3LYP) =  -190.432369887     A.U. after   13 cycles

 The electronic state is 1-A.
 Alpha  occ. eigenvalues --  -11.04927 -11.01462 -11.01324 -10.95921 -10.94099
 Alpha  occ. eigenvalues --   -1.55715  -1.48738  -1.40126  -1.33933  -1.22201
 Alpha  occ. eigenvalues --   -1.17201  -1.15343  -1.03816  -1.00966  -0.98681
 Alpha virt. eigenvalues --   -0.87996  -0.83645  -0.81046  -0.76499  -0.61994
 Alpha virt. eigenvalues --   -0.57410  -0.52363  -0.50892  -0.49333  -0.46884
 Alpha virt. eigenvalues --   -0.44807  -0.40975  -0.40211  -0.40040  -0.38228

 Mulliken charges:
               1
     1  C    0.041732
     2  H    0.368822
     3  H    0.368863
     4  C    0.141450
     5  H    0.337574
     6  C    0.419435
     7  C    0.928825
     8  C    0.393300
 Sum of Mulliken charges =   3.00000

 Dipole moment (field-independent basis, Debye):
    X=              4.7626    Y=             -0.2149    Z=              0.0013  Tot=              4.7674
 Quadrupole moment (field-independent basis, Debye-Ang):
   XX=             48.8145   YY=            -16.0391   ZZ=            -18.7222
   XY=             -1.1664   XZ=              0.0003   YZ=              0.0005

  Exact polarizability: 100.153   1.435  29.687  -0.001   0.000  26.162
 Approx polarizability: 219.487  12.641  47.065  -0.011  -0.001  38.644

                      1                      2                      3
                      A                      A                      A
 Frequencies --    139.6162               148.0421               258.6627
 Red. masses --      6.0164                 4.8920                 5.5830
 Frc consts  --      0.0691                 0.0632                 0.2201
 IR Inten    --      9.2978                 4.9532                 2.5489

                      4                      5                      6
                      A                      A                      A
 Frequencies --    312.2924               480.6032               507.6349
 Red. masses --      3.3234                 4.7876                 1.6324
 Frc consts  --      0.1910                 0.6515                 0.2478
 IR Inten    --     21.7222                 0.4531                 0.0539

                      7                      8                      9
                      A                      A                      A
 Frequencies --    685.5897               687.1462               912.2718
 Red. masses --      6.3512                 1.0747                 2.5552
 Frc consts  --      1.7589                 0.2990                 1.2529
 IR Inten    --     85.1863                29.4692               264.4530

                     10                     11                     12
                      A                      A                      A
 Frequencies --    978.7002              1072.2699              1158.2204
 Red. masses --      1.7326                 1.9374                 1.6451
 Frc consts  --      0.9778                 1.3124                 1.3002
 IR Inten    --      5.2342               620.7544               132.1392

                     13                     14                     15
                      A                      A                      A
 Frequencies --   1266.6780              1384.5485              2056.9266
 Red. masses --      1.1336                 3.4796                11.8217
 Frc consts  --      1.0717                 3.9301                29.4691
 IR Inten    --    121.9640               248.0221                25.1962

                     16                     17                     18
                      A                      A                      A
 Frequencies --   2574.8229              2696.0365              2782.2613
 Red. masses --      1.0766                 1.0443                 1.1177
 Frc consts  --      4.2054                 4.4723                 5.0975
 IR Inten    --    477.5275               968.2034               363.7670

 - Thermochemistry -
 -------------------
 Temperature   298.150 Kelvin.  Pressure   1.00000 Atm.
 Atom     1 has atomic number  6 and mass  12.00000

 Molecular mass:    63.02348 amu.
 Principal axes and moments of inertia in atomic units:
                           1         2         3
     Eigenvalues --    33.97463 811.51711 832.13565
           X            0.99998  -0.00644   0.00001
           Y            0.00644   0.99998   0.00007
           Z           -0.00001  -0.00007   1.00000
 This molecule is an asymmetric top.
 Rotational symmetry number  1.
 Rotational temperatures (Kelvin)      2.54937     0.10673     0.10409
 Rotational constants (GHZ):          53.12026     2.22391     2.16881
 Zero-point vibrational energy     120238.6 (Joules/Mol)
                                   28.73771 (Kcal/Mol)
 Warning -- explicit consideration of   6 degrees of freedom as
           vibrations may cause significant error
 Vibrational temperatures:    200.88   213.00   372.16   449.32   691.48
          (Kelvin)            730.37   986.41   988.65  1312.55  1408.13
                             1542.76  1666.42  1822.46  1992.05  2959.45
                             3704.59  3878.99  4003.05

 Zero-point correction=                           0.045796 (Hartree/Particle)
 Thermal correction to Energy=                    0.051671
 Thermal correction to Enthalpy=                  0.052615
 Thermal correction to Gibbs Free Energy=         0.017498
 Sum of electronic and zero-point Energies=           -190.386573
 Sum of electronic and thermal Energies=              -190.380699
 Sum of electronic and thermal Enthalpies=            -190.379755
 Sum of electronic and thermal Free Energies=         -190.414872

                     E (Thermal)             CV                S
                      KCal/Mol        Cal/Mol-Kelvin    Cal/Mol-Kelvin
 Total                   32.424             19.128             73.911
 Electronic               0.000              0.000              0.000
 Translational            0.889              2.981             38.342
 Rotational               0.889              2.981             24.643
 Vibrational             30.647             13.166             10.926
 Vibration     1          0.615              1.914              2.809
 Vibration     2          0.617              1.905              2.697
 Vibration     3          0.667              1.748              1.671
 Vibration     4          0.701              1.650              1.350
 Vibration     5          0.837              1.293              0.708
 Vibration     6          0.863              1.233              0.639

 Optimization completed.
    -- Stationary point found.
 Normal termination of Gaussian 09 at Sun Jun 19 13:49:55 2016.
