 Gaussian 09, Revision E.01,
 Gaussian 09:  EM64L-G09RevE.01 30-Nov-2015

 ---------------------------------------------
 #p b3lyp/6-311++G(3df,2p) freq symmetry=Loose
 ---------------------------------------------

 ---------
 b3lyp opt
 ---------
 Symbolic Z-matrix:
 Charge =  2 Multiplicity = 4

                         Standard orientation:
 ---------------------------------------------------------------------
 Center     Atomic      Atomic             Coordinates (Angstroms)
 Number     Number       Type             X           Y           Z
 ---------------------------------------------------------------------
      1          6           0        0.759556   -0.000270   -0.000240
      2          6           0       -0.439099   -0.764304   -0.000069
      3          6           0        2.080514   -0.000992    0.000133
      4          1           0        3.167582    0.005354   -0.000009
      5          6           0       -0.439154    0.764421   -0.000231
      6          6           0       -1.723741    0.000201    0.000256
      7          1           0       -2.298328    0.000065   -0.935907
      8          1           0       -2.297714    0.000241    0.936811
 ---------------------------------------------------------------------

 SCF Done:  E(UB3LYP) =  -191.174133934     A.U. after   15 cycles

 The electronic state is 4-A.
 Alpha  occ. eigenvalues --  -10.84470 -10.84443 -10.77315 -10.72467 -10.72425
 Alpha  occ. eigenvalues --   -1.51827  -1.29381  -1.19540  -1.08991  -1.00321
 Alpha  occ. eigenvalues --   -0.98407  -0.96528  -0.93170  -0.87495  -0.86546
 Alpha  occ. eigenvalues --   -0.73345  -0.72533
 Alpha virt. eigenvalues --   -0.60870  -0.52767  -0.45288  -0.35497  -0.33072
 Alpha virt. eigenvalues --   -0.31303  -0.29589  -0.28196  -0.25836  -0.23868
 Alpha virt. eigenvalues --   -0.22829  -0.22487  -0.22408  -0.21176  -0.20141

  Beta  occ. eigenvalues --  -10.82808 -10.82792 -10.77476 -10.72400 -10.70095
  Beta  occ. eigenvalues --   -1.49957  -1.26719  -1.15587  -1.02922  -0.98265
  Beta  occ. eigenvalues --   -0.96431  -0.95010  -0.91001  -0.84025
  Beta virt. eigenvalues --   -0.70519  -0.61002  -0.56955  -0.55874  -0.45477
  Beta virt. eigenvalues --   -0.40484  -0.34013  -0.31654  -0.30167  -0.28488
  Beta virt. eigenvalues --   -0.27963  -0.25298  -0.22974  -0.21796  -0.21655

 Mulliken charges and spin densities:
               1          2
     1  C   -0.134401   0.111355
     2  C    1.118480   0.548643
     3  C   -0.215529   1.572007
     4  H    0.447210  -0.033743
     5  C    1.117213   0.548841
     6  C   -0.940655   0.174049
     7  H    0.303841   0.039410
     8  H    0.303840   0.039439
 Sum of Mulliken charges =   2.00000   3.00000

 Dipole moment (field-independent basis, Debye):
    X=              0.1239    Y=              0.0052    Z=              0.0004  Tot=              0.1240
 Quadrupole moment (field-independent basis, Debye-Ang):
   XX=              9.5301   YY=            -20.6494   ZZ=            -22.0700
   XY=              0.0195   XZ=             -0.0013   YZ=             -0.0002

  Exact polarizability:  75.545  -0.014  31.596   0.000  -0.000  26.259
 Approx polarizability: 130.151  -0.068  71.388   0.005  -0.004  38.842

                      1                      2                      3
                      A                      A                      A
 Frequencies --     32.1619               153.1461               298.4994
 Red. masses --      1.1876                 3.3500                 7.0404
 Frc consts  --      0.0007                 0.0463                 0.3696
 IR Inten    --     37.5112                 4.2099                 2.6099

                      4                      5                      6
                      A                      A                      A
 Frequencies --    421.9525               472.3606               529.6951
 Red. masses --      3.1889                 1.5360                 5.8312
 Frc consts  --      0.3345                 0.2019                 0.9640
 IR Inten    --     18.4599                14.5606                 3.0416

                      7                      8                      9
                      A                      A                      A
 Frequencies --    632.8839               760.4205               952.2262
 Red. masses --      8.7727                 7.0057                 1.1230
 Frc consts  --      2.0703                 2.3868                 0.5999
 IR Inten    --      0.2462                 2.1921                 0.0000

                     10                     11                     12
                      A                      A                      A
 Frequencies --   1019.4131              1084.3023              1133.0855
 Red. masses --      1.2876                 7.9640                 1.2821
 Frc consts  --      0.7884                 5.5167                 0.9699
 IR Inten    --      0.7667                 0.8718                68.5122

                     13                     14                     15
                      A                      A                      A
 Frequencies --   1205.3737              1426.3968              1630.6680
 Red. masses --      8.7456                 1.0980                 8.0983
 Frc consts  --      7.4866                 1.3162                12.6875
 IR Inten    --     16.7613                33.5988                15.3032

                     16                     17                     18
                      A                      A                      A
 Frequencies --   2967.4639              3061.4611              3191.1305
 Red. masses --      1.0477                 1.1221                 1.1172
 Frc consts  --      5.4357                 6.1963                 6.7030
 IR Inten    --    279.7493               136.2389               514.9437

 - Thermochemistry -
 -------------------
 Temperature   298.150 Kelvin.  Pressure   1.00000 Atm.
 Atom     1 has atomic number  6 and mass  12.00000

 Molecular mass:    63.02348 amu.
 Principal axes and moments of inertia in atomic units:
                           1         2         3
     Eigenvalues --    56.38462 434.38741 478.15003
           X            1.00000   0.00015   0.00003
           Y           -0.00015   1.00000   0.00011
           Z           -0.00003  -0.00011   1.00000
 This molecule is an asymmetric top.
 Rotational symmetry number  1.
 Rotational temperatures (Kelvin)      1.53612     0.19939     0.18114
 Rotational constants (GHZ):          32.00769     4.15468     3.77442
 Zero-point vibrational energy     125444.2 (Joules/Mol)
                                   29.98190 (Kcal/Mol)
 Warning -- explicit consideration of   6 degrees of freedom as
           vibrations may cause significant error
 Vibrational temperatures:     46.27   220.34   429.47   607.09   679.62
          (Kelvin)            762.11   910.58  1094.07  1370.04  1466.71
                             1560.07  1630.26  1734.26  2052.26  2346.16
                             4269.51  4404.75  4591.32

 Zero-point correction=                           0.047779 (Hartree/Particle)
 Thermal correction to Energy=                    0.053668
 Thermal correction to Enthalpy=                  0.054612
 Thermal correction to Gibbs Free Energy=         0.017529
 Sum of electronic and zero-point Energies=           -191.126355
 Sum of electronic and thermal Energies=              -191.120466
 Sum of electronic and thermal Enthalpies=            -191.119522
 Sum of electronic and thermal Free Energies=         -191.156605

                     E (Thermal)             CV                S
                      KCal/Mol        Cal/Mol-Kelvin    Cal/Mol-Kelvin
 Total                   33.677             18.801             78.048
 Electronic               0.000              0.000              2.755
 Translational            0.889              2.981             38.342
 Rotational               0.889              2.981             23.975
 Vibrational             31.899             12.839             12.976
 Vibration     1          0.594              1.983              5.691
 Vibration     2          0.619              1.899              2.633
 Vibration     3          0.692              1.677              1.425
 Vibration     4          0.784              1.423              0.885
 Vibration     5          0.829              1.311              0.731
 Vibration     6          0.885              1.184              0.588

 Normal termination of Gaussian 09 at Sun Jun 19 13:06:31 2016.
