 Gaussian 09, Revision E.01,
 Gaussian 09:  EM64L-G09RevE.01 30-Nov-2015

 ---------------------------------------------
 #p b3lyp/6-311++G(3df,2p) freq symmetry=Loose
 ---------------------------------------------

 ---------
 b3lyp opt
 ---------
 Symbolic Z-matrix:
 Charge =  3 Multiplicity = 3

                         Standard orientation:
 ---------------------------------------------------------------------
 Center     Atomic      Atomic             Coordinates (Angstroms)
 Number     Number       Type             X           Y           Z
 ---------------------------------------------------------------------
      1          6           0       -1.395432    0.340144   -0.000000
      2          1           0       -2.225247    1.167785   -0.000000
      3          6           0        1.129910   -0.079486    0.000000
      4          6           0       -2.243749   -0.628318   -0.000000
      5          6           0        2.291981   -0.631904    0.000000
      6          1           0        3.296624   -1.120665    0.000000
      7          6           0        0.000000    0.692940    0.000000
      8          1           0        0.232358    1.792626    0.000000
 ---------------------------------------------------------------------

 SCF Done:  E(UB3LYP) =  -190.414662478     A.U. after   18 cycles

 The electronic state is 3-A'.
 Alpha  occ. eigenvalues --  -11.07910 -11.01451 -10.99485 -10.97997 -10.94188
 Alpha  occ. eigenvalues --   -1.56844  -1.52965  -1.44935  -1.30172  -1.20824
 Alpha  occ. eigenvalues --   -1.19389  -1.14467  -1.09641  -1.07178  -1.03520
 Alpha  occ. eigenvalues --   -1.01819
 Alpha virt. eigenvalues --   -0.85599  -0.81447  -0.72235  -0.69449  -0.58631
 Alpha virt. eigenvalues --   -0.54367  -0.52533  -0.48516  -0.45690  -0.42012
 Alpha virt. eigenvalues --   -0.40966  -0.40558  -0.40242  -0.38679  -0.38494

  Beta  occ. eigenvalues --  -11.05410 -11.00612 -10.99566 -10.97265 -10.93972
  Beta  occ. eigenvalues --   -1.55369  -1.49850  -1.42870  -1.28908  -1.19799
  Beta  occ. eigenvalues --   -1.18216  -1.11797  -1.06828  -0.99912
  Beta virt. eigenvalues --   -0.90029  -0.87574  -0.84338  -0.77444  -0.67464
  Beta virt. eigenvalues --   -0.65913  -0.57621  -0.53556  -0.51193  -0.48049
  Beta virt. eigenvalues --   -0.45128  -0.41782  -0.40681  -0.40560  -0.39511

 Mulliken charges and spin densities:
               1          2
     1  C    0.301925  -0.059755
     2  H    0.321763  -0.008329
     3  C    0.400478   0.541341
     4  C    0.448174   1.087792
     5  C    0.640890   0.462334
     6  H    0.502987  -0.014428
     7  C    0.059968  -0.041662
     8  H    0.323814   0.032707
 Sum of Mulliken charges =   3.00000   2.00000

 Dipole moment (field-independent basis, Debye):
    X=              0.6401    Y=             -0.7066    Z=             -0.0000  Tot=              0.9534
 Quadrupole moment (field-independent basis, Debye-Ang):
   XX=             43.3672   YY=             -8.0130   ZZ=            -23.2096
   XY=             -8.3115   XZ=              0.0000   YZ=              0.0000

  Exact polarizability:  85.679  -6.895  37.531   0.000  -0.000  23.073
 Approx polarizability: 172.322  -9.083  73.298   0.000  -0.000  31.318

                      1                      2                      3
                     A'                     A"                     A'
 Frequencies --    167.1738               178.7164               292.3365
 Red. masses --      5.6458                 2.2323                 4.9062
 Frc consts  --      0.0930                 0.0420                 0.2470
 IR Inten    --     11.6392                 6.0992                 2.4694

                      4                      5                      6
                     A"                     A'                     A"
 Frequencies --    305.2829               518.4045               534.2965
 Red. masses --      2.6845                 4.7085                 1.5038
 Frc consts  --      0.1474                 0.7455                 0.2529
 IR Inten    --     47.0709                17.1358                44.4022

                      7                      8                      9
                     A'                     A"                     A'
 Frequencies --    718.6782               819.6342               825.3573
 Red. masses --      1.3925                 1.3339                 4.5710
 Frc consts  --      0.4238                 0.5280                 1.8346
 IR Inten    --     16.5980                19.2634                 5.1573

                     10                     11                     12
                     A"                     A'                     A'
 Frequencies --    876.1201               946.3608              1109.0130
 Red. masses --      1.7746                 1.4026                 1.5421
 Frc consts  --      0.8026                 0.7401                 1.1175
 IR Inten    --      2.1067                10.6136                14.7752

                     13                     14                     15
                     A'                     A'                     A'
 Frequencies --   1357.3520              1698.6509              1827.2122
 Red. masses --      2.1020                 9.4212                 6.0612
 Frc consts  --      2.2817                16.0164                11.9231
 IR Inten    --      8.1502               457.7780               867.5586

                     16                     17                     18
                     A'                     A'                     A'
 Frequencies --   2415.5632              2768.2966              2937.0680
 Red. masses --      1.0743                 1.0807                 1.1695
 Frc consts  --      3.6934                 4.8797                 5.9440
 IR Inten    --    582.5594               440.5972               492.7737

 - Thermochemistry -
 -------------------
 Temperature   298.150 Kelvin.  Pressure   1.00000 Atm.
 Atom     1 has atomic number  6 and mass  12.00000

 Molecular mass:    63.02348 amu.
 Principal axes and moments of inertia in atomic units:
                           1         2         3
     Eigenvalues --    76.66889 640.00959 716.67848
           X            0.99647   0.08395   0.00000
           Y           -0.08395   0.99647   0.00000
           Z           -0.00000   0.00000   1.00000
 This molecule is an asymmetric top.
 Rotational symmetry number  1.
 Rotational temperatures (Kelvin)      1.12971     0.13533     0.12085
 Rotational constants (GHZ):          23.53942     2.81987     2.51820
 Zero-point vibrational energy     121394.1 (Joules/Mol)
                                   29.01390 (Kcal/Mol)
 Warning -- explicit consideration of   6 degrees of freedom as
           vibrations may cause significant error
 Vibrational temperatures:    240.53   257.13   420.61   439.23   745.87
          (Kelvin)            768.73  1034.02  1179.27  1187.50  1260.54
                             1361.60  1595.62  1952.92  2443.98  2628.95
                             3475.45  3982.96  4225.78

 Zero-point correction=                           0.046237 (Hartree/Particle)
 Thermal correction to Energy=                    0.051923
 Thermal correction to Enthalpy=                  0.052867
 Thermal correction to Gibbs Free Energy=         0.017011
 Sum of electronic and zero-point Energies=           -190.368426
 Sum of electronic and thermal Energies=              -190.362740
 Sum of electronic and thermal Enthalpies=            -190.361796
 Sum of electronic and thermal Free Energies=         -190.397651

                     E (Thermal)             CV                S
                      KCal/Mol        Cal/Mol-Kelvin    Cal/Mol-Kelvin
 Total                   32.582             18.901             75.464
 Electronic               0.000              0.000              2.183
 Translational            0.889              2.981             38.342
 Rotational               0.889              2.981             25.067
 Vibrational             30.805             12.940              9.872
 Vibration     1          0.624              1.883              2.467
 Vibration     2          0.629              1.868              2.342
 Vibration     3          0.688              1.688              1.460
 Vibration     4          0.696              1.664              1.388
 Vibration     5          0.873              1.209              0.614
 Vibration     6          0.889              1.174              0.578

 Optimization completed.
    -- Stationary point found.
 Normal termination of Gaussian 09 at Tue Jul 19 17:55:05 2016.
