 Gaussian 09, Revision E.01,
 Gaussian 09:  EM64L-G09RevE.01 30-Nov-2015

 ------------------------------------------------------
 #p b3lyp/6-311++G(3df,2p) freq IOp(2/17=3) IOp(2/18=3)
 ------------------------------------------------------

 ---------
 b3lyp opt
 ---------
 Symbolic Z-matrix:
 Charge =  2 Multiplicity = 4

                         Standard orientation:
 ---------------------------------------------------------------------
 Center     Atomic      Atomic             Coordinates (Angstroms)
 Number     Number       Type             X           Y           Z
 ---------------------------------------------------------------------
      1          6           0       -0.937920    0.391920    0.000000
      2          6           0        0.000000    1.411814    0.000000
      3          1           0        0.002791    2.506247    0.000000
      4          6           0        0.938537    0.391595    0.000000
      5          6           0       -0.729741   -1.001481    0.000000
      6          1           0       -1.442676   -1.828813    0.000000
      7          6           0        0.728914   -1.001801    0.000000
      8          1           0        1.441150   -1.829717    0.000000
 ---------------------------------------------------------------------

 SCF Done:  E(UB3LYP) =  -191.250223653     A.U. after   15 cycles

 The electronic state is 4-A'.
 Alpha  occ. eigenvalues --  -10.80828 -10.80815 -10.76729 -10.75322 -10.75286
 Alpha  occ. eigenvalues --   -1.47617  -1.29364  -1.22014  -1.06584  -1.05525
 Alpha  occ. eigenvalues --   -0.99357  -0.96846  -0.95085  -0.93050  -0.78819
 Alpha  occ. eigenvalues --   -0.77917  -0.76928
 Alpha virt. eigenvalues --   -0.61896  -0.48859  -0.48835  -0.35398  -0.31941
 Alpha virt. eigenvalues --   -0.31597  -0.29123  -0.28783  -0.27275  -0.27023
 Alpha virt. eigenvalues --   -0.24621  -0.22368  -0.21586  -0.20907  -0.20859

  Beta  occ. eigenvalues --  -10.79266 -10.79246 -10.76301 -10.74480 -10.74448
  Beta  occ. eigenvalues --   -1.44478  -1.26404  -1.17882  -1.04602  -1.02254
  Beta  occ. eigenvalues --   -0.96963  -0.94579  -0.91711  -0.87624
  Beta virt. eigenvalues --   -0.66400  -0.65612  -0.63917  -0.54383  -0.42148
  Beta virt. eigenvalues --   -0.41205  -0.33853  -0.30776  -0.30026  -0.28695
  Beta virt. eigenvalues --   -0.27668  -0.26574  -0.26342  -0.23797  -0.21749

 Mulliken charges and spin densities:
               1          2
     1  C    0.526727   0.848420
     2  C    0.048092   0.279088
     3  H    0.359788   0.016918
     4  C    0.524004   0.852483
     5  C   -0.060910   0.491741
     6  H    0.331172   0.009770
     7  C   -0.059984   0.491851
     8  H    0.331112   0.009729
 Sum of Mulliken charges =   2.00000   3.00000

 Dipole moment (field-independent basis, Debye):
    X=             -0.0005    Y=              0.0161    Z=              0.0000  Tot=              0.0161
 Quadrupole moment (field-independent basis, Debye-Ang):
   XX=            -12.5881   YY=             -1.8708   ZZ=            -24.6661
   XY=              0.0110   XZ=              0.0000   YZ=              0.0000

  Exact polarizability:  45.754   0.010  51.746  -0.000   0.000  23.461
 Approx polarizability: 109.744   0.020  96.010  -0.000  -0.000  34.849

                      1                      2                      3
                     A"                     A'                     A"
 Frequencies --    215.4541               311.7719               474.8928
 Red. masses --      7.1664                 7.7639                 2.9730
 Frc consts  --      0.1960                 0.4446                 0.3950
 IR Inten    --      6.9473                59.9080                 0.0003

                      4                      5                      6
                     A"                     A'                     A'
 Frequencies --    670.7724               687.9091               803.1186
 Red. masses --      1.1182                 6.9968                 5.0477
 Frc consts  --      0.2964                 1.9508                 1.9182
 IR Inten    --     73.4026                 1.0527                 1.4443

                      7                      8                      9
                     A"                     A"                     A'
 Frequencies --    816.8971               827.7284              1006.6457
 Red. masses --      1.2404                 1.5645                 1.6875
 Frc consts  --      0.4877                 0.6315                 1.0075
 IR Inten    --      1.0555                 0.0000                 1.1203

                     10                     11                     12
                     A'                     A'                     A'
 Frequencies --   1015.8784              1120.2635              1200.6954
 Red. masses --      1.1423                 6.7000                 1.3611
 Frc consts  --      0.6946                 4.9541                 1.1562
 IR Inten    --     14.4108                 0.0031                13.3648

                     13                     14                     15
                     A'                     A'                     A'
 Frequencies --   1204.3911              1376.1135              1442.8714
 Red. masses --      2.2116                 5.6376                 8.2452
 Frc consts  --      1.8901                 6.2900                10.1136
 IR Inten    --    100.8620                22.5152                51.2932

                     16                     17                     18
                     A'                     A'                     A'
 Frequencies --   3096.5380              3100.7378              3124.7426
 Red. masses --      1.1056                 1.0921                 1.1064
 Frc consts  --      6.2461                 6.1866                 6.3650
 IR Inten    --    492.5007               164.0062                69.8516

 - Thermochemistry -
 -------------------
 Temperature   298.150 Kelvin.  Pressure   1.00000 Atm.
 Atom     1 has atomic number  6 and mass  12.00000

 Molecular mass:    63.02348 amu.
 Principal axes and moments of inertia in atomic units:
                           1         2         3
     Eigenvalues --   135.99810 231.17403 367.17213
           X            0.00056   1.00000   0.00000
           Y            1.00000  -0.00056   0.00000
           Z            0.00000  -0.00000   1.00000
 This molecule is an asymmetric top.
 Rotational symmetry number  1.
 Rotational temperatures (Kelvin)      0.63688     0.37467     0.23589
 Rotational constants (GHZ):          13.27034     7.80685     4.91525
 Zero-point vibrational energy     134564.5 (Joules/Mol)
                                   32.16168 (Kcal/Mol)
 Warning -- explicit consideration of   3 degrees of freedom as
           vibrations may cause significant error
 Vibrational temperatures:    309.99   448.57   683.26   965.09   989.75
          (Kelvin)           1155.51  1175.33  1190.92  1448.34  1461.62
                             1611.81  1727.53  1732.85  1979.92  2075.97
                             4455.22  4461.26  4495.80

 Zero-point correction=                           0.051253 (Hartree/Particle)
 Thermal correction to Energy=                    0.055877
 Thermal correction to Enthalpy=                  0.056821
 Thermal correction to Gibbs Free Energy=         0.023214
 Sum of electronic and zero-point Energies=           -191.198971
 Sum of electronic and thermal Energies=              -191.194347
 Sum of electronic and thermal Enthalpies=            -191.193402
 Sum of electronic and thermal Free Energies=         -191.227010

                     E (Thermal)             CV                S
                      KCal/Mol        Cal/Mol-Kelvin    Cal/Mol-Kelvin
 Total                   35.063             15.956             70.732
 Electronic               0.000              0.000              2.755
 Translational            0.889              2.981             38.342
 Rotational               0.889              2.981             23.961
 Vibrational             33.286              9.994              5.675
 Vibration     1          0.645              1.817              1.997
 Vibration     2          0.700              1.651              1.353
 Vibration     3          0.832              1.306              0.724

 Normal termination of Gaussian 09 at Thu Jan 31 06:00:27 2019.
