 Gaussian 09, Revision E.01,
 Gaussian 09:  EM64L-G09RevE.01 30-Nov-2015

 ---------------------------------------------
 #p b3lyp/6-311++G(3df,2p) freq symmetry=Loose
 ---------------------------------------------

 ---------
 b3lyp opt
 ---------
 Symbolic Z-matrix:
 Charge =  2 Multiplicity = 4

                         Standard orientation:
 ---------------------------------------------------------------------
 Center     Atomic      Atomic             Coordinates (Angstroms)
 Number     Number       Type             X           Y           Z
 ---------------------------------------------------------------------
      1          6           0        0.502895   -0.119439   -0.012759
      2          6           0       -0.882499   -0.550251   -0.049481
      3          1           0       -1.061899   -1.626305   -0.145504
      4          6           0        1.501039    0.850025    0.007445
      5          6           0       -1.981683    0.341568    0.023529
      6          6           0        1.847550   -0.478047    0.038113
      7          1           0       -1.911546    1.392688   -0.269251
      8          1           0       -2.950365   -0.029515    0.373674
 ---------------------------------------------------------------------

 SCF Done:  E(UB3LYP) =  -191.209255579     A.U. after   15 cycles

 The electronic state is 4-A.
 Alpha  occ. eigenvalues --  -10.77734 -10.77656 -10.75236 -10.74394 -10.73320
 Alpha  occ. eigenvalues --   -1.45171  -1.30423  -1.14622  -1.02994  -1.00565
 Alpha  occ. eigenvalues --   -0.94331  -0.92634  -0.90077  -0.87521  -0.82288
 Alpha  occ. eigenvalues --   -0.79214  -0.75753
 Alpha virt. eigenvalues --   -0.58207  -0.50830  -0.44744  -0.34344  -0.31826
 Alpha virt. eigenvalues --   -0.30728  -0.29222  -0.27610  -0.26341  -0.24727
 Alpha virt. eigenvalues --   -0.24230  -0.23364  -0.22466  -0.20265  -0.19850

  Beta  occ. eigenvalues --  -10.75606 -10.75550 -10.75016 -10.73569 -10.72785
  Beta  occ. eigenvalues --   -1.42622  -1.27452  -1.12781  -1.00048  -0.96304
  Beta  occ. eigenvalues --   -0.91191  -0.89243  -0.87412  -0.85770
  Beta virt. eigenvalues --   -0.67563  -0.63580  -0.58921  -0.54028  -0.45680
  Beta virt. eigenvalues --   -0.41266  -0.33041  -0.30578  -0.29451  -0.27306
  Beta virt. eigenvalues --   -0.26042  -0.25140  -0.23972  -0.23597  -0.22629

 Mulliken charges and spin densities:
               1          2
     1  C    0.482106  -0.075543
     2  C    0.096037   0.622042
     3  H    0.289687   0.007369
     4  C    0.457818   1.034760
     5  C   -0.202852   0.344071
     6  C    0.315790   1.060141
     7  H    0.272597   0.003552
     8  H    0.288817   0.003607
 Sum of Mulliken charges =   2.00000   3.00000

 Dipole moment (field-independent basis, Debye):
    X=             -2.8271    Y=              0.0254    Z=              0.0302  Tot=              2.8274
 Quadrupole moment (field-independent basis, Debye-Ang):
   XX=              7.0458   YY=            -16.1487   ZZ=            -23.2468
   XY=             -0.7435   XZ=             -0.2755   YZ=             -0.0997

  Exact polarizability:  68.028  -1.929  38.375  -0.447  -0.137  24.912
 Approx polarizability:  99.818  -3.216  66.435  -0.162   0.057  37.472

                      1                      2                      3
                      A                      A                      A
 Frequencies --    106.0018               224.1710               275.2170
 Red. masses --      3.8387                 3.9676                 1.3373
 Frc consts  --      0.0254                 0.1175                 0.0597
 IR Inten    --      0.4449                 2.6051                 4.9397

                      4                      5                      6
                      A                      A                      A
 Frequencies --    443.4279               499.5058               741.3574
 Red. masses --      2.5731                 4.8481                 3.0018
 Frc consts  --      0.2981                 0.7127                 0.9720
 IR Inten    --      7.0459                 6.4049                 6.1835

                      7                      8                      9
                      A                      A                      A
 Frequencies --    804.7982              1010.9477              1100.9652
 Red. masses --      1.5490                 1.6231                 1.5561
 Frc consts  --      0.5911                 0.9773                 1.1113
 IR Inten    --     19.4625                 4.7362                12.0036

                     10                     11                     12
                      A                      A                      A
 Frequencies --   1163.5067              1219.9183              1329.1132
 Red. masses --      5.0404                 2.0833                 4.8513
 Frc consts  --      4.0202                 1.8267                 5.0493
 IR Inten    --     73.7621                41.9668                10.8178

                     13                     14                     15
                      A                      A                      A
 Frequencies --   1386.9487              1461.7014              1586.5833
 Red. masses --      1.7607                 1.3340                11.8157
 Frc consts  --      1.9955                 1.6793                17.5240
 IR Inten    --     52.8785                13.1064                26.3436

                     16                     17                     18
                      A                      A                      A
 Frequencies --   3036.0475              3068.2721              3148.7927
 Red. masses --      1.0526                 1.0893                 1.1225
 Frc consts  --      5.7166                 6.0423                 6.5573
 IR Inten    --    141.9904                91.3059               101.2848

 - Thermochemistry -
 -------------------
 Temperature   298.150 Kelvin.  Pressure   1.00000 Atm.
 Atom     1 has atomic number  6 and mass  12.00000

 Molecular mass:    63.02348 amu.
 Principal axes and moments of inertia in atomic units:
                           1         2         3
     Eigenvalues --    76.85566 502.96119 577.75373
           X            0.99997  -0.00687  -0.00300
           Y            0.00685   0.99995  -0.00695
           Z            0.00305   0.00693   0.99997
 This molecule is an asymmetric top.
 Rotational symmetry number  1.
 Rotational temperatures (Kelvin)      1.12697     0.17221     0.14991
 Rotational constants (GHZ):          23.48222     3.58823     3.12372
 Zero-point vibrational energy     135221.5 (Joules/Mol)
                                   32.31872 (Kcal/Mol)
 Warning -- explicit consideration of   5 degrees of freedom as
           vibrations may cause significant error
 Vibrational temperatures:    152.51   322.53   395.98   637.99   718.68
          (Kelvin)           1066.65  1157.92  1454.53  1584.04  1674.02
                             1755.19  1912.30  1995.51  2103.06  2282.74
                             4368.19  4414.55  4530.40

 Zero-point correction=                           0.051503 (Hartree/Particle)
 Thermal correction to Energy=                    0.056825
 Thermal correction to Enthalpy=                  0.057769
 Thermal correction to Gibbs Free Energy=         0.022236
 Sum of electronic and zero-point Energies=           -191.157752
 Sum of electronic and thermal Energies=              -191.152431
 Sum of electronic and thermal Enthalpies=            -191.151487
 Sum of electronic and thermal Free Energies=         -191.187019

                     E (Thermal)             CV                S
                      KCal/Mol        Cal/Mol-Kelvin    Cal/Mol-Kelvin
 Total                   35.658             16.904             74.785
 Electronic               0.000              0.000              2.755
 Translational            0.889              2.981             38.342
 Rotational               0.889              2.981             24.616
 Vibrational             33.881             10.942              9.072
 Vibration     1          0.605              1.944              3.341
 Vibration     2          0.649              1.804              1.925
 Vibration     3          0.677              1.719              1.563
 Vibration     4          0.803              1.375              0.816
 Vibration     5          0.855              1.251              0.659

 Normal termination of Gaussian 09 at Sun Jun 19 13:32:53 2016.
