 Gaussian 09, Revision E.01,
 Gaussian 09:  EM64L-G09RevE.01 30-Nov-2015

 ---------------------------------------------
 #p b3lyp/6-311++G(3df,2p) freq symmetry=Loose
 ---------------------------------------------

 ---------
 b3lyp opt
 ---------
 Symbolic Z-matrix:
 Charge =  3 Multiplicity = 1

                         Standard orientation:
 ---------------------------------------------------------------------
 Center     Atomic      Atomic             Coordinates (Angstroms)
 Number     Number       Type             X           Y           Z
 ---------------------------------------------------------------------
      1          1           0       -1.793641    1.728271   -0.157011
      2          6           0       -1.483818    0.651410   -0.111249
      3          6           0        1.132033   -0.000710    0.432673
      4          1           0        1.461976   -0.001031    1.521525
      5          6           0       -0.183706   -0.000448    0.122355
      6          6           0        2.373823    0.000630   -0.532509
      7          6           0       -1.483753   -0.650931   -0.112317
      8          1           0       -1.795814   -1.726949   -0.158232
 ---------------------------------------------------------------------

 SCF Done:  E(RB3LYP) =  -190.413292309     A.U. after   13 cycles

 The electronic state is 1-A.
 Alpha  occ. eigenvalues --  -11.14553 -11.02054 -11.00776 -10.98489 -10.98383
 Alpha  occ. eigenvalues --   -1.66639  -1.53788  -1.38329  -1.27868  -1.22774
 Alpha  occ. eigenvalues --   -1.20661  -1.14401  -1.09833  -1.07858  -1.04373
 Alpha virt. eigenvalues --   -0.92265  -0.86304  -0.78379  -0.77951  -0.70009
 Alpha virt. eigenvalues --   -0.56907  -0.52333  -0.49927  -0.49527  -0.49187
 Alpha virt. eigenvalues --   -0.46901  -0.46403  -0.42879  -0.41981  -0.41091

 Mulliken charges:
               1
     1  H    0.447273
     2  C    0.265732
     3  C    0.094289
     4  H    0.324070
     5  C    0.437448
     6  C    0.716652
     7  C    0.267274
     8  H    0.447262
 Sum of Mulliken charges =   3.00000

 Dipole moment (field-independent basis, Debye):
    X=              1.9092    Y=              0.0024    Z=              0.3657  Tot=              1.9439
 Quadrupole moment (field-independent basis, Debye-Ang):
   XX=             22.6818   YY=             -9.8126   ZZ=            -17.0521
   XY=             -0.0027   XZ=              2.0478   YZ=              0.0010

  Exact polarizability:  78.950  -0.005  32.933   1.423   0.001  27.884
 Approx polarizability: 176.730  -0.033  54.492   5.394   0.003  45.425

                      1                      2                      3
                      A                      A                      A
 Frequencies --    143.7104               215.5003               219.0979
 Red. masses --      3.7107                 7.6940                 4.0273
 Frc consts  --      0.0452                 0.2105                 0.1139
 IR Inten    --     42.9112                 0.7953                37.5772

                      4                      5                      6
                      A                      A                      A
 Frequencies --    442.3981               495.4783               653.1768
 Red. masses --      6.9299                 5.2648                 1.5943
 Frc consts  --      0.7991                 0.7615                 0.4008
 IR Inten    --     36.8242                76.8613                 0.4140

                      7                      8                      9
                      A                      A                      A
 Frequencies --    670.7836               771.6677               822.4054
 Red. masses --      3.9105                 5.0187                 1.2558
 Frc consts  --      1.0367                 1.7608                 0.5004
 IR Inten    --    298.8912               248.8471                66.4434

                     10                     11                     12
                      A                      A                      A
 Frequencies --    857.9172               904.4248               959.5177
 Red. masses --      1.2298                 1.1700                 1.3288
 Frc consts  --      0.5333                 0.5639                 0.7208
 IR Inten    --      6.5283                36.3149                 3.4637

                     13                     14                     15
                      A                      A                      A
 Frequencies --   1093.6985              1400.8729              1709.4291
 Red. masses --      1.3052                 6.8805                 4.6022
 Frc consts  --      0.9199                 7.9555                 7.9234
 IR Inten    --    140.6575                68.8013                61.0562

                     16                     17                     18
                      A                      A                      A
 Frequencies --   2649.4984              2798.7304              2891.7903
 Red. masses --      1.0830                 1.0852                 1.2056
 Frc consts  --      4.4794                 5.0081                 5.9400
 IR Inten    --    497.9507               882.9237               594.1090

 - Thermochemistry -
 -------------------
 Temperature   298.150 Kelvin.  Pressure   1.00000 Atm.
 Atom     1 has atomic number  1 and mass   1.00783

 Molecular mass:    63.02348 amu.
 Principal axes and moments of inertia in atomic units:
                           1         2         3
     Eigenvalues --    87.94562 547.47101 575.17473
           X            0.99980  -0.00000   0.02000
           Y            0.00000   1.00000   0.00004
           Z           -0.02000  -0.00004   0.99980
 This molecule is an asymmetric top.
 Rotational symmetry number  1.
 Rotational temperatures (Kelvin)      0.98486     0.15821     0.15059
 Rotational constants (GHZ):          20.52110     3.29651     3.13773
 Zero-point vibrational energy     117832.8 (Joules/Mol)
                                   28.16270 (Kcal/Mol)
 Warning -- explicit consideration of   5 degrees of freedom as
           vibrations may cause significant error
 Vibrational temperatures:    206.77   310.06   315.23   636.51   712.88
          (Kelvin)            939.77   965.11  1110.26  1183.26  1234.35
                             1301.26  1380.53  1573.59  2015.54  2459.48
                             3812.03  4026.74  4160.64

 Zero-point correction=                           0.044880 (Hartree/Particle)
 Thermal correction to Energy=                    0.050545
 Thermal correction to Enthalpy=                  0.051489
 Thermal correction to Gibbs Free Energy=         0.016801
 Sum of electronic and zero-point Energies=           -190.368412
 Sum of electronic and thermal Energies=              -190.362748
 Sum of electronic and thermal Enthalpies=            -190.361803
 Sum of electronic and thermal Free Energies=         -190.396492

                     E (Thermal)             CV                S
                      KCal/Mol        Cal/Mol-Kelvin    Cal/Mol-Kelvin
 Total                   31.717             19.165             73.007
 Electronic               0.000              0.000              0.000
 Translational            0.889              2.981             38.342
 Rotational               0.889              2.981             24.830
 Vibrational             29.940             13.203              9.836
 Vibration     1          0.616              1.909              2.754
 Vibration     2          0.645              1.817              1.997
 Vibration     3          0.647              1.812              1.967
 Vibration     4          0.802              1.378              0.819
 Vibration     5          0.851              1.260              0.670

 Optimization completed.
    -- Stationary point found.
 Normal termination of Gaussian 09 at Sun Jun 19 13:59:56 2016.
