 Gaussian 09, Revision E.01,
 Gaussian 09:  EM64L-G09RevE.01 30-Nov-2015

 ---------------------------------------------
 #p b3lyp/6-311++G(3df,2p) freq symmetry=Loose
 ---------------------------------------------

 ---------
 b3lyp opt
 ---------
 Symbolic Z-matrix:
 Charge =  2 Multiplicity = 4

                         Standard orientation:
 ---------------------------------------------------------------------
 Center     Atomic      Atomic             Coordinates (Angstroms)
 Number     Number       Type             X           Y           Z
 ---------------------------------------------------------------------
      1          6           0       -1.197119   -0.220764    0.178966
      2          1           0       -1.263772   -1.129160    0.849292
      3          6           0        1.297238    0.008293   -0.027281
      4          6           0        2.451941   -0.465784   -0.106598
      5          1           0        0.071891    1.343660    0.951385
      6          6           0       -2.377678   -0.253750   -0.281416
      7          6           0        0.033390    0.667551    0.066732
      8          1           0       -0.054751    1.372225   -0.783098
 ---------------------------------------------------------------------

 SCF Done:  E(UB3LYP) =  -191.101372983     A.U. after   26 cycles

 The electronic state is 4-A.
 Alpha  occ. eigenvalues --  -10.80014 -10.76969 -10.72755 -10.69357 -10.69171
 Alpha  occ. eigenvalues --   -1.32220  -1.28784  -1.20985  -1.00404  -0.97945
 Alpha  occ. eigenvalues --   -0.92468  -0.89807  -0.87045  -0.85845  -0.80301
 Alpha  occ. eigenvalues --   -0.77963  -0.77663
 Alpha virt. eigenvalues --   -0.58546  -0.46903  -0.46433  -0.44519  -0.33074
 Alpha virt. eigenvalues --   -0.31832  -0.27645  -0.27017  -0.26356  -0.24571
 Alpha virt. eigenvalues --   -0.22807  -0.22297  -0.20745  -0.20589  -0.19715

  Beta  occ. eigenvalues --  -10.77792 -10.73696 -10.72085 -10.69240 -10.69076
  Beta  occ. eigenvalues --   -1.30668  -1.25060  -1.17626  -0.98624  -0.96984
  Beta  occ. eigenvalues --   -0.91477  -0.87443  -0.76642  -0.75457
  Beta virt. eigenvalues --   -0.65649  -0.64809  -0.62205  -0.55054  -0.43867
  Beta virt. eigenvalues --   -0.41350  -0.38454  -0.32493  -0.31704  -0.27226
  Beta virt. eigenvalues --   -0.26311  -0.25864  -0.24181  -0.22623  -0.21748

 Mulliken charges and spin densities:
               1          2
     1  C    0.300026  -0.130208
     2  H    0.269054  -0.002338
     3  C    0.611212   0.359234
     4  C    0.359246   1.512074
     5  H    0.294712   0.037879
     6  C    0.117349   1.119535
     7  C   -0.230423   0.068853
     8  H    0.278825   0.034970
 Sum of Mulliken charges =   2.00000   3.00000

 Dipole moment (field-independent basis, Debye):
    X=             -0.7700    Y=             -0.4088    Z=              0.2020  Tot=              0.8949
 Quadrupole moment (field-independent basis, Debye-Ang):
   XX=             13.5215   YY=            -18.1512   ZZ=            -21.0412
   XY=              0.0114   XZ=              0.3452   YZ=             -1.4680

  Exact polarizability:  79.948  -2.946  38.085   1.827   2.340  33.189
 Approx polarizability: 134.721 -12.343  53.325   8.974  -0.525  47.266

                      1                      2                      3
                      A                      A                      A
 Frequencies --     59.1262               175.7652               241.1355
 Red. masses --      3.2737                 5.4230                 4.9361
 Frc consts  --      0.0067                 0.0987                 0.1691
 IR Inten    --      0.7925                 3.0738                 5.1531

                      4                      5                      6
                      A                      A                      A
 Frequencies --    336.6680               394.9889               477.8274
 Red. masses --      2.6703                 1.7711                 6.0202
 Frc consts  --      0.1783                 0.1628                 0.8099
 IR Inten    --     11.4506                 3.2009                 0.6220

                      7                      8                      9
                      A                      A                      A
 Frequencies --    714.9532               779.0487               933.7979
 Red. masses --      1.8781                 4.0022                 1.5458
 Frc consts  --      0.5656                 1.4311                 0.7942
 IR Inten    --     15.1000                35.0510                16.7663

                     10                     11                     12
                      A                      A                      A
 Frequencies --    964.3199              1143.4399              1272.9155
 Red. masses --      2.7753                 1.1087                 1.0612
 Frc consts  --      1.5205                 0.8541                 1.0131
 IR Inten    --      5.1903                 4.9259               103.3611

                     13                     14                     15
                      A                      A                      A
 Frequencies --   1300.1631              1767.8486              2041.3299
 Red. masses --      1.3903                10.5970                11.9088
 Frc consts  --      1.3847                19.5129                29.2379
 IR Inten    --      9.7963                35.2875                40.9686

                     16                     17                     18
                      A                      A                      A
 Frequencies --   2762.4470              2842.3689              2908.0032
 Red. masses --      1.0740                 1.0736                 1.0720
 Frc consts  --      4.8286                 5.1105                 5.3411
 IR Inten    --    196.4102               198.5662               172.1583

 - Thermochemistry -
 -------------------
 Temperature   298.150 Kelvin.  Pressure   1.00000 Atm.
 Atom     1 has atomic number  6 and mass  12.00000

 Molecular mass:    63.02348 amu.
 Principal axes and moments of inertia in atomic units:
                           1         2         3
     Eigenvalues --    64.38380 652.49770 690.32558
           X            0.99995   0.00811  -0.00610
           Y           -0.00851   0.99756  -0.06926
           Z            0.00552   0.06930   0.99758
 This molecule is an asymmetric top.
 Rotational symmetry number  1.
 Rotational temperatures (Kelvin)      1.34527     0.13274     0.12547
 Rotational constants (GHZ):          28.03098     2.76590     2.61433
 Zero-point vibrational energy     126302.6 (Joules/Mol)
                                   30.18705 (Kcal/Mol)
 Warning -- explicit consideration of   6 degrees of freedom as
           vibrations may cause significant error
 Vibrational temperatures:     85.07   252.89   346.94   484.39   568.30
          (Kelvin)            687.49  1028.66  1120.88  1343.53  1387.44
                             1645.15  1831.44  1870.64  2543.54  2937.01
                             3974.54  4089.53  4183.96

 Zero-point correction=                           0.048106 (Hartree/Particle)
 Thermal correction to Energy=                    0.054113
 Thermal correction to Enthalpy=                  0.055057
 Thermal correction to Gibbs Free Energy=         0.017802
 Sum of electronic and zero-point Energies=           -191.053267
 Sum of electronic and thermal Energies=              -191.047260
 Sum of electronic and thermal Enthalpies=            -191.046316
 Sum of electronic and thermal Free Energies=         -191.083571

                     E (Thermal)             CV                S
                      KCal/Mol        Cal/Mol-Kelvin    Cal/Mol-Kelvin
 Total                   33.956             18.922             78.410
 Electronic               0.000              0.000              2.755
 Translational            0.889              2.981             38.342
 Rotational               0.889              2.981             24.876
 Vibrational             32.179             12.961             12.438
 Vibration     1          0.596              1.974              4.486
 Vibration     2          0.628              1.872              2.373
 Vibration     3          0.658              1.777              1.794
 Vibration     4          0.717              1.602              1.228
 Vibration     5          0.762              1.481              0.981
 Vibration     6          0.834              1.299              0.716

 Optimization completed.
    -- Stationary point found.
 Normal termination of Gaussian 09 at Sun Jun 19 12:51:37 2016.
