 Gaussian 09, Revision E.01,
 Gaussian 09:  EM64L-G09RevE.01 30-Nov-2015

 ---------------------------------------------
 #p b3lyp/6-311++G(3df,2p) freq symmetry=Loose
 ---------------------------------------------

 ---------
 b3lyp opt
 ---------
 Symbolic Z-matrix:
 Charge =  2 Multiplicity = 4

                         Standard orientation:
 ---------------------------------------------------------------------
 Center     Atomic      Atomic             Coordinates (Angstroms)
 Number     Number       Type             X           Y           Z
 ---------------------------------------------------------------------
      1          6           0        2.144914   -0.522827   -0.000730
      2          6           0       -0.323618    0.011086    0.000430
      3          6           0       -1.302360   -0.921362    0.000214
      4          6           0        1.100117    0.473628    0.000288
      5          1           0        1.351485    1.141670    0.866045
      6          1           0        1.351012    1.143702   -0.863944
      7          6           0       -1.669020    0.380932   -0.000275
      8          1           0       -2.402700    1.185884   -0.001663
 ---------------------------------------------------------------------

 SCF Done:  E(UB3LYP) =  -191.149271960     A.U. after   18 cycles

 The electronic state is 4-A.
 Alpha  occ. eigenvalues --  -10.84024 -10.72982 -10.72559 -10.72222 -10.70773
 Alpha  occ. eigenvalues --   -1.42218  -1.31352  -1.11037  -1.03773  -0.99476
 Alpha  occ. eigenvalues --   -0.93564  -0.93446  -0.88048  -0.84889  -0.84198
 Alpha  occ. eigenvalues --   -0.75555  -0.73764
 Alpha virt. eigenvalues --   -0.62215  -0.49365  -0.46712  -0.35239  -0.30250
 Alpha virt. eigenvalues --   -0.29708  -0.29374  -0.27398  -0.26484  -0.25923
 Alpha virt. eigenvalues --   -0.24676  -0.23911  -0.21054  -0.20193  -0.19690

  Beta  occ. eigenvalues --  -10.80434 -10.72608 -10.71936 -10.70819 -10.70574
  Beta  occ. eigenvalues --   -1.41046  -1.28215  -1.06311  -1.02459  -0.96606
  Beta  occ. eigenvalues --   -0.93000  -0.88348  -0.83404  -0.83219
  Beta virt. eigenvalues --   -0.66821  -0.58133  -0.57313  -0.54028  -0.49165
  Beta virt. eigenvalues --   -0.44097  -0.34670  -0.29517  -0.29167  -0.28073
  Beta virt. eigenvalues --   -0.26469  -0.25569  -0.24436  -0.24363  -0.22722

 Mulliken charges and spin densities:
               1          2
     1  C    0.325843   1.843983
     2  C    0.370378  -0.032319
     3  C    0.250352   0.910720
     4  C   -0.059257   0.147977
     5  H    0.294761   0.007798
     6  H    0.294667   0.007899
     7  C    0.168934   0.109473
     8  H    0.354322   0.004469
 Sum of Mulliken charges =   2.00000   3.00000

 Dipole moment (field-independent basis, Debye):
    X=              2.7063    Y=              1.4831    Z=             -0.0008  Tot=              3.0860
 Quadrupole moment (field-independent basis, Debye-Ang):
   XX=              7.4040   YY=            -16.7243   ZZ=            -21.4508
   XY=             -2.7849   XZ=              0.0041   YZ=             -0.0000

  Exact polarizability:  54.049  -2.419  38.529   0.000  -0.000  27.393
 Approx polarizability:  76.635  -5.371  66.164   0.000   0.006  41.985

                      1                      2                      3
                      A                      A                      A
 Frequencies --     25.5170               238.9521               267.1791
 Red. masses --      2.5356                 6.5245                 1.6267
 Frc consts  --      0.0010                 0.2195                 0.0684
 IR Inten    --      0.0728                 4.0265                50.5373

                      4                      5                      6
                      A                      A                      A
 Frequencies --    416.7316               499.9470               767.6206
 Red. masses --      3.6078                 5.1964                 6.6130
 Frc consts  --      0.3692                 0.7653                 2.2958
 IR Inten    --      0.1571                 1.6714                 4.1685

                      7                      8                      9
                      A                      A                      A
 Frequencies --    917.6947               938.2685               972.2723
 Red. masses --      1.2824                 3.3839                 1.2357
 Frc consts  --      0.6363                 1.7552                 0.6882
 IR Inten    --     21.5862                31.5531                36.9784

                     10                     11                     12
                      A                      A                      A
 Frequencies --   1066.3858              1142.7373              1204.8202
 Red. masses --      1.2587                 1.2064                 3.2723
 Frc consts  --      0.8433                 0.9282                 2.7986
 IR Inten    --      0.9907                68.5285                14.3000

                     13                     14                     15
                      A                      A                      A
 Frequencies --   1290.3253              1359.6087              1735.8177
 Red. masses --      1.7595                 7.8259                 8.8973
 Frc consts  --      1.7260                 8.5234                15.7948
 IR Inten    --     48.6526                30.9520                 4.8063

                     16                     17                     18
                      A                      A                      A
 Frequencies --   2777.2683              2805.5944              3171.7824
 Red. masses --      1.0807                 1.0628                 1.1230
 Frc consts  --      4.9112                 4.9289                 6.6565
 IR Inten    --    194.6805               207.9758               170.0302

 - Thermochemistry -
 -------------------
 Temperature   298.150 Kelvin.  Pressure   1.00000 Atm.
 Atom     1 has atomic number  6 and mass  12.00000

 Molecular mass:    63.02348 amu.
 Principal axes and moments of inertia in atomic units:
                           1         2         3
     Eigenvalues --    83.09989 484.86033 557.18877
           X            1.00000   0.00225   0.00005
           Y           -0.00225   1.00000  -0.00006
           Z           -0.00005   0.00006   1.00000
 This molecule is an asymmetric top.
 Rotational symmetry number  1.
 Rotational temperatures (Kelvin)      1.04229     0.17864     0.15545
 Rotational constants (GHZ):          21.71773     3.72219     3.23901
 Zero-point vibrational energy     129187.9 (Joules/Mol)
                                   30.87664 (Kcal/Mol)
 Warning -- explicit consideration of   5 degrees of freedom as
           vibrations may cause significant error
 Vibrational temperatures:     36.71   343.80   384.41   599.58   719.31
          (Kelvin)           1104.43  1320.36  1349.96  1398.88  1534.29
                             1644.14  1733.47  1856.49  1956.17  2497.45
                             3995.86  4036.62  4563.48

 Zero-point correction=                           0.049205 (Hartree/Particle)
 Thermal correction to Energy=                    0.054722
 Thermal correction to Enthalpy=                  0.055666
 Thermal correction to Gibbs Free Energy=         0.018766
 Sum of electronic and zero-point Energies=           -191.100067
 Sum of electronic and thermal Energies=              -191.094550
 Sum of electronic and thermal Enthalpies=            -191.093606
 Sum of electronic and thermal Free Energies=         -191.130506

                     E (Thermal)             CV                S
                      KCal/Mol        Cal/Mol-Kelvin    Cal/Mol-Kelvin
 Total                   34.339             17.250             77.664
 Electronic               0.000              0.000              2.755
 Translational            0.889              2.981             38.342
 Rotational               0.889              2.981             24.621
 Vibrational             32.561             11.288             11.945
 Vibration     1          0.593              1.985              6.151
 Vibration     2          0.657              1.781              1.811
 Vibration     3          0.672              1.733              1.614
 Vibration     4          0.780              1.434              0.903
 Vibration     5          0.855              1.250              0.658

 Normal termination of Gaussian 09 at Sun Jun 19 12:21:21 2016.
