 Gaussian 09, Revision E.01,
 Gaussian 09:  EM64L-G09RevE.01 30-Nov-2015

 ---------------------------------------------
 #p b3lyp/6-311++G(3df,2p) freq symmetry=Loose
 ---------------------------------------------

 ---------
 b3lyp opt
 ---------
 Symbolic Z-matrix:
 Charge =  1 Multiplicity = 3

                         Standard orientation:
 ---------------------------------------------------------------------
 Center     Atomic      Atomic             Coordinates (Angstroms)
 Number     Number       Type             X           Y           Z
 ---------------------------------------------------------------------
      1          6           0       -1.960180   -0.079880   -0.043794
      2          1           0       -2.941077    0.341328   -0.144711
      3          6           0       -0.680868   -0.077602   -0.024060
      4          6           0        0.552560    0.846333   -0.007092
      5          1           0        0.622240    1.784959    0.545008
      6          6           0        1.550467   -0.122072   -0.164599
      7          1           0        2.625897   -0.160266   -0.153420
      8          6           0        0.486844   -0.894449    0.198399
 ---------------------------------------------------------------------

 SCF Done:  E(UB3LYP) =  -191.815286818     A.U. after   17 cycles

 The electronic state is 3-A.
 Alpha  occ. eigenvalues --  -10.52204 -10.50631 -10.47117 -10.46096 -10.44462
 Alpha  occ. eigenvalues --   -1.20535  -1.01007  -0.88479  -0.87887  -0.75849
 Alpha  occ. eigenvalues --   -0.72494  -0.70094  -0.68046  -0.64373  -0.52448
 Alpha  occ. eigenvalues --   -0.51024  -0.45861
 Alpha virt. eigenvalues --   -0.30738  -0.29372  -0.16891  -0.13926  -0.13074
 Alpha virt. eigenvalues --   -0.12168  -0.10372  -0.09982  -0.09499  -0.07982
 Alpha virt. eigenvalues --   -0.07289  -0.05325  -0.04985  -0.03835  -0.02691

  Beta  occ. eigenvalues --  -10.50593 -10.49890 -10.47221 -10.46287 -10.42935
  Beta  occ. eigenvalues --   -1.19267  -0.98926  -0.86581  -0.85749  -0.74716
  Beta  occ. eigenvalues --   -0.69797  -0.68679  -0.65733  -0.62895  -0.50158
  Beta virt. eigenvalues --   -0.37389  -0.31678  -0.28091  -0.26786  -0.15820
  Beta virt. eigenvalues --   -0.13390  -0.12805  -0.11508  -0.09951  -0.09339
  Beta virt. eigenvalues --   -0.09144  -0.07264  -0.06974  -0.04830  -0.04455

 Mulliken charges and spin densities:
               1          2
     1  C   -0.164318   0.989520
     2  H    0.336526  -0.012341
     3  C    0.130348  -0.154891
     4  C    0.020073   0.385889
     5  H    0.250249   0.038198
     6  C   -0.256875  -0.127330
     7  H    0.302759   0.005248
     8  C    0.381239   0.875707
 Sum of Mulliken charges =   1.00000   2.00000

 Dipole moment (field-independent basis, Debye):
    X=              0.8274    Y=              1.2816    Z=              0.2653  Tot=              1.5483
 Quadrupole moment (field-independent basis, Debye-Ang):
   XX=             -8.0919   YY=            -22.1483   ZZ=            -27.3445
   XY=             -0.8155   XZ=              0.3020   YZ=              0.8625

  Exact polarizability:  75.547   0.238  42.597  -1.128  -0.394  29.274
 Approx polarizability: 138.433   0.447  78.780  -5.987  -3.371  43.634

                      1                      2                      3
                      A                      A                      A
 Frequencies --    235.7840               308.7981               435.7833
 Red. masses --      3.0669                 1.3738                 3.7348
 Frc consts  --      0.1005                 0.0772                 0.4179
 IR Inten    --     28.2691                39.7937                38.4142

                      4                      5                      6
                      A                      A                      A
 Frequencies --    519.2830               574.8346               662.1207
 Red. masses --      6.2867                 3.8125                 2.5997
 Frc consts  --      0.9988                 0.7422                 0.6715
 IR Inten    --     20.6658                 7.3514                 3.7293

                      7                      8                      9
                      A                      A                      A
 Frequencies --    732.0114               834.4091               856.8172
 Red. masses --      1.5600                 1.3471                 2.3406
 Frc consts  --      0.4925                 0.5526                 1.0124
 IR Inten    --     30.8170                25.7641                16.1922

                     10                     11                     12
                      A                      A                      A
 Frequencies --    956.7248              1034.0876              1103.1907
 Red. masses --      1.6036                 2.2570                 1.6296
 Frc consts  --      0.8648                 1.4220                 1.1685
 IR Inten    --      9.0908                 6.1244                14.7786

                     13                     14                     15
                      A                      A                      A
 Frequencies --   1186.9271              1470.3851              1759.5060
 Red. masses --      2.0271                 6.5289                 7.2976
 Frc consts  --      1.6826                 8.3167                13.3111
 IR Inten    --     23.1674                 5.1553                 4.0299

                     16                     17                     18
                      A                      A                      A
 Frequencies --   3102.6512              3284.0603              3334.8614
 Red. masses --      1.0923                 1.1107                 1.1180
 Frc consts  --      6.1951                 7.0580                 7.3253
 IR Inten    --     45.4066                98.5023               145.0607

 - Thermochemistry -
 -------------------
 Temperature   298.150 Kelvin.  Pressure   1.00000 Atm.
 Atom     1 has atomic number  6 and mass  12.00000

 Molecular mass:    63.02348 amu.
 Principal axes and moments of inertia in atomic units:
                           1         2         3
     Eigenvalues --    82.08539 372.14351 446.18236
           X            0.99999  -0.00392   0.00339
           Y            0.00376   0.99895   0.04573
           Z           -0.00357  -0.04571   0.99895
 This molecule is an asymmetric top.
 Rotational symmetry number  1.
 Rotational temperatures (Kelvin)      1.05517     0.23274     0.19412
 Rotational constants (GHZ):          21.98614     4.84958     4.04485
 Zero-point vibrational energy     133935.3 (Joules/Mol)
                                   32.01131 (Kcal/Mol)
 Warning -- explicit consideration of   5 degrees of freedom as
           vibrations may cause significant error
 Vibrational temperatures:    339.24   444.29   626.99   747.13   827.06
          (Kelvin)            952.64  1053.20  1200.53  1232.77  1376.51
                             1487.82  1587.24  1707.72  2115.55  2531.53
                             4464.02  4725.02  4798.12

 Zero-point correction=                           0.051013 (Hartree/Particle)
 Thermal correction to Energy=                    0.055910
 Thermal correction to Enthalpy=                  0.056854
 Thermal correction to Gibbs Free Energy=         0.023078
 Sum of electronic and zero-point Energies=           -191.764274
 Sum of electronic and thermal Energies=              -191.759377
 Sum of electronic and thermal Enthalpies=            -191.758433
 Sum of electronic and thermal Free Energies=         -191.792209

                     E (Thermal)             CV                S
                      KCal/Mol        Cal/Mol-Kelvin    Cal/Mol-Kelvin
 Total                   35.084             17.292             71.087
 Electronic               0.000              0.000              2.183
 Translational            0.889              2.981             38.342
 Rotational               0.889              2.981             24.126
 Vibrational             33.306             11.330              6.437
 Vibration     1          0.655              1.786              1.834
 Vibration     2          0.698              1.657              1.369
 Vibration     3          0.796              1.392              0.840
 Vibration     4          0.874              1.207              0.612
 Vibration     5          0.931              1.086              0.495

 Normal termination of Gaussian 09 at Sun Jun 19 10:37:23 2016.
