 Gaussian 09, Revision E.01,
 Gaussian 09:  EM64L-G09RevE.01 30-Nov-2015

 ---------------------------------------------
 #p b3lyp/6-311++G(3df,2p) freq symmetry=Loose
 ---------------------------------------------

 ---------
 b3lyp opt
 ---------
 Symbolic Z-matrix:
 Charge =  0 Multiplicity = 4

                         Standard orientation:
 ---------------------------------------------------------------------
 Center     Atomic      Atomic             Coordinates (Angstroms)
 Number     Number       Type             X           Y           Z
 ---------------------------------------------------------------------
      1          6           0        0.000007    1.085713    0.426420
      2          6           0        0.000000   -0.000000    1.293256
      3          1           0        0.000000   -0.000000    2.369279
      4          6           0       -0.000007   -1.085713    0.426420
      5          6           0       -0.000015    0.685491   -0.965539
      6          1           0       -0.000028    1.329484   -1.829694
      7          6           0        0.000015   -0.685491   -0.965539
      8          1           0        0.000028   -1.329484   -1.829694
 ---------------------------------------------------------------------

 SCF Done:  E(UB3LYP) =  -192.143355680     A.U. after   13 cycles

 The electronic state is 4-B.
 Alpha  occ. eigenvalues --  -10.23681 -10.23675 -10.20039 -10.19979 -10.18000
 Alpha  occ. eigenvalues --   -0.90704  -0.73814  -0.70707  -0.56009  -0.55253
 Alpha  occ. eigenvalues --   -0.49025  -0.43303  -0.41065  -0.40814  -0.31870
 Alpha  occ. eigenvalues --   -0.25827  -0.25462  -0.24746
 Alpha virt. eigenvalues --   -0.00183   0.01378   0.02069   0.02094   0.02726
 Alpha virt. eigenvalues --    0.05235   0.05393   0.05756   0.07624   0.09034
 Alpha virt. eigenvalues --    0.09548   0.10769   0.11244   0.11842   0.12399

  Beta  occ. eigenvalues --  -10.21338 -10.21336 -10.19706 -10.19647 -10.18135
  Beta  occ. eigenvalues --   -0.87715  -0.72616  -0.65946  -0.54972  -0.52228
  Beta  occ. eigenvalues --   -0.45441  -0.42086  -0.39416  -0.36857  -0.23926
  Beta virt. eigenvalues --   -0.14549  -0.13489  -0.07898  -0.00073   0.01439
  Beta virt. eigenvalues --    0.02548   0.05516   0.05644   0.05857   0.06387
  Beta virt. eigenvalues --    0.06495   0.07879   0.08947   0.10154   0.11220

 Mulliken charges and spin densities:
               1          2
     1  C    0.166102   1.528897
     2  C   -0.350279  -0.319020
     3  H    0.181056   0.020632
     4  C    0.166102   1.528897
     5  C   -0.264325   0.113451
     6  H    0.182835   0.006845
     7  C   -0.264325   0.113451
     8  H    0.182835   0.006845
 Sum of Mulliken charges =  -0.00000   3.00000

 Dipole moment (field-independent basis, Debye):
    X=             -0.0000    Y=             -0.0000    Z=             -0.6471  Tot=              0.6471
 Quadrupole moment (field-independent basis, Debye-Ang):
   XX=            -31.9445   YY=            -29.3982   ZZ=            -25.2003
   XY=             -0.0000   XZ=              0.0000   YZ=             -0.0000

  Exact polarizability:  37.459  -0.000  59.627   0.000   0.000  61.815
 Approx polarizability:  53.975  -0.000 103.121   0.000   0.000  91.199

                      1                      2                      3
                      B                      B                      B
 Frequencies --    312.6979               574.2123               577.0424
 Red. masses --      1.3827                 9.8057                 2.4742
 Frc consts  --      0.0797                 1.9049                 0.4854
 IR Inten    --      0.2869                 0.6287                15.8090

                      4                      5                      6
                      A                      B                      A
 Frequencies --    598.0479               753.4639               847.4858
 Red. masses --      4.7894                 1.4174                 5.9720
 Frc consts  --      1.0093                 0.4741                 2.5272
 IR Inten    --      0.0000                94.7388                 0.8687

                      7                      8                      9
                      A                      B                      B
 Frequencies --    876.6636               936.1849              1012.2837
 Red. masses --      1.2631                 1.9754                 3.7960
 Frc consts  --      0.5719                 1.0200                 2.2918
 IR Inten    --      0.0000                 2.7022                 1.5101

                     10                     11                     12
                      A                      A                      B
 Frequencies --   1067.7295              1117.9710              1227.4504
 Red. masses --      1.5883                 2.9773                 1.4898
 Frc consts  --      1.0668                 2.1925                 1.3225
 IR Inten    --      3.3480                 6.0263                 6.7418

                     13                     14                     15
                      B                      A                      A
 Frequencies --   1325.8693              1347.1177              1440.4431
 Red. masses --      1.7323                 8.5925                 5.1401
 Frc consts  --      1.7942                 9.1871                 6.2836
 IR Inten    --     26.0766                21.3313                 1.2215

                     16                     17                     18
                      B                      A                      A
 Frequencies --   3219.4663              3238.3323              3244.8689
 Red. masses --      1.0862                 1.0997                 1.0950
 Frc consts  --      6.6334                 6.7945                 6.7931
 IR Inten    --      0.1755                 0.0949                 2.6711

 - Thermochemistry -
 -------------------
 Temperature   298.150 Kelvin.  Pressure   1.00000 Atm.
 Atom     1 has atomic number  6 and mass  12.00000

 Molecular mass:    63.02348 amu.
 Principal axes and moments of inertia in atomic units:
                           1         2         3
     Eigenvalues --   154.02285 211.36384 365.38669
           X            0.00000  -0.00000   1.00000
           Y            0.00000   1.00000   0.00000
           Z            1.00000   0.00000   0.00000
 This molecule is an asymmetric top.
 Rotational symmetry number  2.
 Rotational temperatures (Kelvin)      0.56234     0.40979     0.23705
 Rotational constants (GHZ):          11.71736     8.53855     4.93926
 Zero-point vibrational energy     141861.1 (Joules/Mol)
                                   33.90563 (Kcal/Mol)
 Warning -- explicit consideration of   4 degrees of freedom as
           vibrations may cause significant error
 Vibrational temperatures:    449.90   826.16   830.23   860.46  1084.07
          (Kelvin)           1219.34  1261.32  1346.96  1456.45  1536.22
                             1608.51  1766.03  1907.63  1938.20  2072.47
                             4632.09  4659.23  4668.64

 Zero-point correction=                           0.054032 (Hartree/Particle)
 Thermal correction to Energy=                    0.058170
 Thermal correction to Enthalpy=                  0.059114
 Thermal correction to Gibbs Free Energy=         0.027038
 Sum of electronic and zero-point Energies=           -192.089324
 Sum of electronic and thermal Energies=              -192.085186
 Sum of electronic and thermal Enthalpies=            -192.084242
 Sum of electronic and thermal Free Energies=         -192.116318

                     E (Thermal)             CV                S
                      KCal/Mol        Cal/Mol-Kelvin    Cal/Mol-Kelvin
 Total                   36.502             14.586             67.510
 Electronic               0.000              0.000              2.755
 Translational            0.889              2.981             38.342
 Rotational               0.889              2.981             22.613
 Vibrational             34.725              8.625              3.800
 Vibration     1          0.701              1.649              1.348
 Vibration     2          0.931              1.087              0.496
 Vibration     3          0.934              1.081              0.491
 Vibration     4          0.956              1.036              0.453

 Optimization completed.
    -- Stationary point found.
 Normal termination of Gaussian 09 at Tue Jul 19 17:39:46 2016.
