 Gaussian 09, Revision E.01,
 Gaussian 09:  EM64L-G09RevE.01 30-Nov-2015

 ---------------------------------------------
 #p b3lyp/6-311++G(3df,2p) freq symmetry=Loose
 ---------------------------------------------

 ---------
 b3lyp opt
 ---------
 Symbolic Z-matrix:
 Charge =  0 Multiplicity = 2

                         Standard orientation:
 ---------------------------------------------------------------------
 Center     Atomic      Atomic             Coordinates (Angstroms)
 Number     Number       Type             X           Y           Z
 ---------------------------------------------------------------------
      1          6           0       -1.923763   -0.134778   -0.103772
      2          1           0       -2.778315    0.462493   -0.358051
      3          6           0       -0.645658   -0.061430    0.039243
      4          6           0        0.486919    0.874498    0.062101
      5          1           0        0.582439    1.706141    0.758869
      6          6           0        1.464136   -0.073484   -0.276638
      7          1           0        2.518483   -0.070891   -0.487658
      8          6           0        0.564597   -0.954430    0.293540
 ---------------------------------------------------------------------

 SCF Done:  E(UB3LYP) =  -192.123493665     A.U. after   20 cycles

 The electronic state is 2-A.
 Alpha  occ. eigenvalues --  -10.24739 -10.22163 -10.22093 -10.21878 -10.20408
 Alpha  occ. eigenvalues --   -0.94036  -0.76688  -0.64215  -0.62858  -0.52796
 Alpha  occ. eigenvalues --   -0.48157  -0.45633  -0.41801  -0.38142  -0.27450
 Alpha  occ. eigenvalues --   -0.26649  -0.22521
 Alpha virt. eigenvalues --   -0.07006  -0.05054  -0.00578   0.00697   0.01538
 Alpha virt. eigenvalues --    0.03456   0.05459   0.05769   0.06450   0.07624
 Alpha virt. eigenvalues --    0.08422   0.08873   0.09945   0.11291   0.11552

  Beta  occ. eigenvalues --  -10.24342 -10.22251 -10.22093 -10.21988 -10.18965
  Beta  occ. eigenvalues --   -0.93736  -0.74947  -0.63380  -0.62163  -0.51747
  Beta  occ. eigenvalues --   -0.47804  -0.44973  -0.40832  -0.37729  -0.26528
  Beta  occ. eigenvalues --   -0.24102
  Beta virt. eigenvalues --   -0.10348  -0.06251  -0.04686  -0.00486   0.00818
  Beta virt. eigenvalues --    0.01625   0.03575   0.05655   0.05798   0.06953
  Beta virt. eigenvalues --    0.07945   0.08483   0.09044   0.10299   0.11329

 Mulliken charges and spin densities:
               1          2
     1  C   -0.397977   0.997010
     2  H    0.219540   0.012523
     3  C    0.321525  -0.208276
     4  C   -0.234599   0.203203
     5  H    0.177353   0.005987
     6  C   -0.068825  -0.058070
     7  H    0.230809   0.000076
     8  C   -0.247827   0.047547
 Sum of Mulliken charges =  -0.00000   1.00000

 Dipole moment (field-independent basis, Debye):
    X=              0.8225    Y=              2.5899    Z=             -0.7413  Tot=              2.8166
 Quadrupole moment (field-independent basis, Debye-Ang):
   XX=            -24.3551   YY=            -31.2711   ZZ=            -31.3175
   XY=             -0.2216   XZ=             -0.4190   YZ=              2.5062

  Exact polarizability:  86.490   0.108  58.451   0.041  -2.655  40.273
 Approx polarizability: 147.840   1.771 111.105  -5.282  -7.843  60.641

                      1                      2                      3
                      A                      A                      A
 Frequencies --    270.3794               344.6718               556.1668
 Red. masses --      3.5181                 2.3719                 2.7563
 Frc consts  --      0.1515                 0.1660                 0.5023
 IR Inten    --      7.6543                16.6920                18.3647

                      4                      5                      6
                      A                      A                      A
 Frequencies --    583.3391               655.2800               674.2047
 Red. masses --      2.3336                 1.3871                 5.6370
 Frc consts  --      0.4679                 0.3509                 1.5097
 IR Inten    --     33.2822                30.3528                28.3543

                      7                      8                      9
                      A                      A                      A
 Frequencies --    781.2293               796.2499               867.2926
 Red. masses --      1.9528                 1.8573                 2.1374
 Frc consts  --      0.7022                 0.6938                 0.9473
 IR Inten    --     12.8196                67.9204                40.6527

                     10                     11                     12
                      A                      A                      A
 Frequencies --    973.5673              1053.0300              1191.3075
 Red. masses --      2.8361                 1.2789                 1.4558
 Frc consts  --      1.5838                 0.8356                 1.2173
 IR Inten    --     14.1249                 5.8611                 3.5180

                     13                     14                     15
                      A                      A                      A
 Frequencies --   1278.0386              1419.0926              1709.6561
 Red. masses --      2.8737                 5.2766                 7.8044
 Frc consts  --      2.7655                 6.2607                13.4402
 IR Inten    --      4.0243                 0.9890                 2.2948

                     16                     17                     18
                      A                      A                      A
 Frequencies --   3086.1731              3267.3723              3294.0056
 Red. masses --      1.0903                 1.1036                 1.1072
 Frc consts  --      6.1186                 6.9418                 7.0779
 IR Inten    --     15.3436                 1.6359                 6.8784

 - Thermochemistry -
 -------------------
 Temperature   298.150 Kelvin.  Pressure   1.00000 Atm.
 Atom     1 has atomic number  6 and mass  12.00000

 Molecular mass:    63.02348 amu.
 Principal axes and moments of inertia in atomic units:
                           1         2         3
     Eigenvalues --    95.04025 354.79711 428.19406
           X            0.99998  -0.00641   0.00194
           Y            0.00629   0.99841   0.05608
           Z           -0.00229  -0.05606   0.99842
 This molecule is an asymmetric top.
 Rotational symmetry number  1.
 Rotational temperatures (Kelvin)      0.91134     0.24412     0.20228
 Rotational constants (GHZ):          18.98923     5.08669     4.21477
 Zero-point vibrational energy     136380.6 (Joules/Mol)
                                   32.59575 (Kcal/Mol)
 Warning -- explicit consideration of   4 degrees of freedom as
           vibrations may cause significant error
 Vibrational temperatures:    389.02   495.91   800.20   839.29   942.80
          (Kelvin)            970.03  1124.01  1145.62  1247.84  1400.74
                             1515.07  1714.02  1838.81  2041.76  2459.81
                             4440.31  4701.01  4739.33

 Zero-point correction=                           0.051945 (Hartree/Particle)
 Thermal correction to Energy=                    0.056547
 Thermal correction to Enthalpy=                  0.057492
 Thermal correction to Gibbs Free Energy=         0.024581
 Sum of electronic and zero-point Energies=           -192.071549
 Sum of electronic and thermal Energies=              -192.066946
 Sum of electronic and thermal Enthalpies=            -192.066002
 Sum of electronic and thermal Free Energies=         -192.098912

                     E (Thermal)             CV                S
                      KCal/Mol        Cal/Mol-Kelvin    Cal/Mol-Kelvin
 Total                   35.484             16.385             69.265
 Electronic               0.000              0.000              1.377
 Translational            0.889              2.981             38.342
 Rotational               0.889              2.981             24.183
 Vibrational             33.707             10.424              5.363
 Vibration     1          0.674              1.728              1.594
 Vibration     2          0.723              1.586              1.190
 Vibration     3          0.912              1.126              0.532
 Vibration     4          0.940              1.067              0.479

 Optimization completed.
    -- Stationary point found.
 Normal termination of Gaussian 09 at Sun Jun 19 07:47:38 2016.
