 Gaussian 09, Revision E.01,
 Gaussian 09:  EM64L-G09RevE.01 30-Nov-2015

 ---------------------------------------------
 #p b3lyp/6-311++G(3df,2p) freq symmetry=Loose
 ---------------------------------------------

 ---------
 b3lyp opt
 ---------
 Symbolic Z-matrix:
 Charge =  2 Multiplicity = 2

                         Standard orientation:
 ---------------------------------------------------------------------
 Center     Atomic      Atomic             Coordinates (Angstroms)
 Number     Number       Type             X           Y           Z
 ---------------------------------------------------------------------
      1          6           0        1.555905   -0.118922   -0.203112
      2          6           0        0.494999   -0.885689    0.217456
      3          1           0        2.635619   -0.176071   -0.323792
      4          6           0       -0.703238   -0.084783    0.067933
      5          6           0       -1.947551   -0.018662   -0.106355
      6          1           0       -3.025160    0.065770   -0.247067
      7          6           0        0.573562    0.815797    0.054184
      8          1           0        0.547484    1.863860    0.390230
 ---------------------------------------------------------------------

 SCF Done:  E(UB3LYP) =  -191.276983099     A.U. after   19 cycles

 The electronic state is 2-A.
 Alpha  occ. eigenvalues --  -10.80715 -10.78344 -10.75626 -10.72715 -10.72632
 Alpha  occ. eigenvalues --   -1.47037  -1.28229  -1.13833  -1.12050  -1.00860
 Alpha  occ. eigenvalues --   -0.97286  -0.94571  -0.92652  -0.89786  -0.77245
 Alpha  occ. eigenvalues --   -0.75558
 Alpha virt. eigenvalues --   -0.62239  -0.54481  -0.53119  -0.40470  -0.32490
 Alpha virt. eigenvalues --   -0.31798  -0.31262  -0.29077  -0.28682  -0.26626
 Alpha virt. eigenvalues --   -0.24761  -0.24235  -0.22056  -0.21064  -0.20392

  Beta  occ. eigenvalues --  -10.79392 -10.78282 -10.75130 -10.72689 -10.72561
  Beta  occ. eigenvalues --   -1.46439  -1.26998  -1.13081  -1.10898  -1.00380
  Beta  occ. eigenvalues --   -0.95767  -0.93248  -0.91260  -0.89145  -0.76730
  Beta virt. eigenvalues --   -0.63333  -0.58622  -0.52874  -0.51738  -0.39381
  Beta virt. eigenvalues --   -0.31945  -0.31594  -0.30683  -0.28796  -0.28477
  Beta virt. eigenvalues --   -0.26460  -0.24420  -0.24080  -0.21829  -0.20713

 Mulliken charges and spin densities:
               1          2
     1  C   -0.206320   0.005915
     2  C    0.599796   0.594395
     3  H    0.359781   0.004675
     4  C    0.004052   0.041013
     5  C    0.194749   0.333060
     6  H    0.447123  -0.007206
     7  C    0.267474   0.019922
     8  H    0.333345   0.008225
 Sum of Mulliken charges =   2.00000   1.00000

 Dipole moment (field-independent basis, Debye):
    X=             -0.9890    Y=              1.2198    Z=             -0.1470  Tot=              1.5772
 Quadrupole moment (field-independent basis, Debye-Ang):
   XX=              9.0411   YY=            -16.1819   ZZ=            -24.2296
   XY=              0.0445   XZ=              0.5311   YZ=              0.6465

  Exact polarizability:  71.930  -0.855  35.827   1.508  -0.093  24.639
 Approx polarizability: 147.688  -6.242  70.654   3.617  -2.774  37.554

                      1                      2                      3
                      A                      A                      A
 Frequencies --    184.9933               271.3721               304.0118
 Red. masses --      3.6976                 4.0086                 3.8374
 Frc consts  --      0.0746                 0.1739                 0.2090
 IR Inten    --     44.5349                38.6695                20.1465

                      4                      5                      6
                      A                      A                      A
 Frequencies --    482.8670               657.7904               680.2624
 Red. masses --      4.3505                 5.1166                 1.2595
 Frc consts  --      0.5976                 1.3044                 0.3434
 IR Inten    --     13.8436                34.4674                48.5186

                      7                      8                      9
                      A                      A                      A
 Frequencies --    782.5529               894.0048               901.9704
 Red. masses --      1.3403                 1.8411                 2.1373
 Frc consts  --      0.4836                 0.8670                 1.0245
 IR Inten    --     46.9875                14.4056                 5.9596

                     10                     11                     12
                      A                      A                      A
 Frequencies --    928.1728              1039.1466              1087.7608
 Red. masses --      1.4542                 1.4585                 1.4070
 Frc consts  --      0.7381                 0.9280                 0.9809
 IR Inten    --      4.3827                15.0800                13.2993

                     13                     14                     15
                      A                      A                      A
 Frequencies --   1211.7323              1485.1674              1865.9888
 Red. masses --      3.8670                 6.0491                 6.2924
 Frc consts  --      3.3453                 7.8612                12.9088
 IR Inten    --     56.0234                 7.6865               320.3903

                     16                     17                     18
                      A                      A                      A
 Frequencies --   3024.6330              3178.3826              3189.9972
 Red. masses --      1.0975                 1.1205                 1.1469
 Frc consts  --      5.9154                 6.6690                 6.8762
 IR Inten    --    254.1370               294.1285               313.5602

 - Thermochemistry -
 -------------------
 Temperature   298.150 Kelvin.  Pressure   1.00000 Atm.
 Atom     1 has atomic number  6 and mass  12.00000

 Molecular mass:    63.02348 amu.
 Principal axes and moments of inertia in atomic units:
                           1         2         3
     Eigenvalues --    81.26264 376.72954 446.71081
           X            0.99999   0.00429   0.00117
           Y           -0.00433   0.99924   0.03868
           Z           -0.00101  -0.03869   0.99925
 This molecule is an asymmetric top.
 Rotational symmetry number  1.
 Rotational temperatures (Kelvin)      1.06585     0.22991     0.19389
 Rotational constants (GHZ):          22.20874     4.79055     4.04007
 Zero-point vibrational energy     132610.9 (Joules/Mol)
                                   31.69476 (Kcal/Mol)
 Warning -- explicit consideration of   4 degrees of freedom as
           vibrations may cause significant error
 Vibrational temperatures:    266.16   390.44   437.40   694.74   946.41
          (Kelvin)            978.74  1125.92  1286.27  1297.73  1335.43
                             1495.10  1565.04  1743.41  2136.82  2684.74
                             4351.77  4572.98  4589.69

 Zero-point correction=                           0.050509 (Hartree/Particle)
 Thermal correction to Energy=                    0.055608
 Thermal correction to Enthalpy=                  0.056552
 Thermal correction to Gibbs Free Energy=         0.022662
 Sum of electronic and zero-point Energies=           -191.226474
 Sum of electronic and thermal Energies=              -191.221375
 Sum of electronic and thermal Enthalpies=            -191.220431
 Sum of electronic and thermal Free Energies=         -191.254321

                     E (Thermal)             CV                S
                      KCal/Mol        Cal/Mol-Kelvin    Cal/Mol-Kelvin
 Total                   34.895             17.353             71.329
 Electronic               0.000              0.000              1.377
 Translational            0.889              2.981             38.342
 Rotational               0.889              2.981             24.129
 Vibrational             33.117             11.392              7.481
 Vibration     1          0.631              1.860              2.277
 Vibration     2          0.675              1.726              1.587
 Vibration     3          0.695              1.666              1.395
 Vibration     4          0.839              1.288              0.702

 Optimization completed.
    -- Stationary point found.
 Normal termination of Gaussian 09 at Sun Jun 19 11:51:54 2016.
