 Gaussian 09, Revision E.01,
 Gaussian 09:  EM64L-G09RevE.01 30-Nov-2015

 ---------------------------------------------
 #p b3lyp/6-311++G(3df,2p) freq symmetry=Loose
 ---------------------------------------------

 ---------
 b3lyp opt
 ---------
 Symbolic Z-matrix:
 Charge =  2 Multiplicity = 2

                         Standard orientation:
 ---------------------------------------------------------------------
 Center     Atomic      Atomic             Coordinates (Angstroms)
 Number     Number       Type             X           Y           Z
 ---------------------------------------------------------------------
      1          6           0        2.217026   -0.443885   -0.460339
      2          6           0       -0.118253    0.636747   -0.081252
      3          1           0       -0.052143    1.669090   -0.438729
      4          6           0       -1.304210    0.013809   -0.035036
      5          6           0       -2.455164   -0.433650   -0.027735
      6          6           0        1.181864   -0.005926    0.353261
      7          1           0        1.099335   -0.966108    0.958085
      8          1           0        1.825225    0.694441    0.987251
 ---------------------------------------------------------------------

 SCF Done:  E(UB3LYP) =  -191.139005537     A.U. after   32 cycles

 The electronic state is 2-A.
 Alpha  occ. eigenvalues --  -10.82410 -10.76278 -10.75106 -10.70006 -10.66752
 Alpha  occ. eigenvalues --   -1.34019  -1.27350  -1.19223  -1.03600  -0.99423
 Alpha  occ. eigenvalues --   -0.94742  -0.90477  -0.85464  -0.81441  -0.78555
 Alpha  occ. eigenvalues --   -0.76123
 Alpha virt. eigenvalues --   -0.61452  -0.59897  -0.57752  -0.43903  -0.37543
 Alpha virt. eigenvalues --   -0.33906  -0.32812  -0.29888  -0.28423  -0.26593
 Alpha virt. eigenvalues --   -0.25779  -0.22989  -0.21377  -0.20850  -0.19869

  Beta  occ. eigenvalues --  -10.82445 -10.75302 -10.73653 -10.70015 -10.66603
  Beta  occ. eigenvalues --   -1.34240  -1.26646  -1.17481  -1.03477  -0.99547
  Beta  occ. eigenvalues --   -0.94900  -0.90539  -0.81394  -0.77933  -0.74225
  Beta virt. eigenvalues --   -0.62197  -0.60047  -0.59724  -0.57681  -0.41411
  Beta virt. eigenvalues --   -0.35375  -0.33427  -0.32780  -0.29944  -0.28483
  Beta virt. eigenvalues --   -0.26526  -0.25856  -0.23003  -0.21335  -0.20628

 Mulliken charges and spin densities:
               1          2
     1  C    0.084241  -0.023777
     2  C    0.137993  -0.087371
     3  H    0.277323  -0.002265
     4  C    0.607270  -0.068489
     5  C    0.205422   1.175996
     6  C    0.064387   0.012454
     7  H    0.310956  -0.001114
     8  H    0.312408  -0.005434
 Sum of Mulliken charges =   2.00000   1.00000

 Dipole moment (field-independent basis, Debye):
    X=              1.2347    Y=              0.2526    Z=              0.9737  Tot=              1.5926
 Quadrupole moment (field-independent basis, Debye-Ang):
   XX=              7.9845   YY=            -18.1540   ZZ=            -21.2348
   XY=              2.7039   XZ=              2.5276   YZ=             -0.8002

  Exact polarizability:  81.183   3.420  37.346  -0.813  -0.682  31.572
 Approx polarizability: 158.899  21.820  60.497  -7.104   1.342  50.621

                      1                      2                      3
                      A                      A                      A
 Frequencies --     76.9037               153.9510               269.9125
 Red. masses --      4.1799                 4.5916                 5.9679
 Frc consts  --      0.0146                 0.0641                 0.2562
 IR Inten    --      2.5124                 2.3543                 3.8891

                      4                      5                      6
                      A                      A                      A
 Frequencies --    287.5764               366.5170               481.0943
 Red. masses --      4.1780                 1.5720                 4.3100
 Frc consts  --      0.2036                 0.1244                 0.5877
 IR Inten    --      9.6704                 4.0704                 0.6537

                      7                      8                      9
                      A                      A                      A
 Frequencies --    760.4940               830.7098               963.7306
 Red. masses --      2.1349                 1.3958                 1.6898
 Frc consts  --      0.7275                 0.5675                 0.9247
 IR Inten    --      2.5091                 5.4759                15.5569

                     10                     11                     12
                      A                      A                      A
 Frequencies --   1010.3755              1175.4153              1231.5558
 Red. masses --      1.4949                 1.7680                 1.1208
 Frc consts  --      0.8992                 1.4392                 1.0016
 IR Inten    --     14.1034                 9.8637                81.5941

                     13                     14                     15
                      A                      A                      A
 Frequencies --   1381.4075              1408.4578              2114.6807
 Red. masses --      2.0432                 5.7056                11.4554
 Frc consts  --      2.2972                 6.6687                30.1822
 IR Inten    --     12.5964               514.0150               505.7343

                     16                     17                     18
                      A                      A                      A
 Frequencies --   2642.8259              2689.2604              3082.1387
 Red. masses --      1.0668                 1.0770                 1.0927
 Frc consts  --      4.3902                 4.5891                 6.1161
 IR Inten    --    271.1922               176.9701                98.7175

 - Thermochemistry -
 -------------------
 Temperature   298.150 Kelvin.  Pressure   1.00000 Atm.
 Atom     1 has atomic number  6 and mass  12.00000

 Molecular mass:    63.02348 amu.
 Principal axes and moments of inertia in atomic units:
                           1         2         3
     Eigenvalues --    70.88961 639.94865 667.65937
           X            0.99985   0.00333   0.01724
           Y           -0.00123   0.99271  -0.12054
           Z           -0.01751   0.12050   0.99256
 This molecule is an asymmetric top.
 Rotational symmetry number  1.
 Rotational temperatures (Kelvin)      1.22181     0.13534     0.12973
 Rotational constants (GHZ):          25.45847     2.82013     2.70309
 Zero-point vibrational energy     125171.3 (Joules/Mol)
                                   29.91666 (Kcal/Mol)
 Warning -- explicit consideration of   6 degrees of freedom as
           vibrations may cause significant error
 Vibrational temperatures:    110.65   221.50   388.34   413.76   527.34
          (Kelvin)            692.19  1094.18  1195.20  1386.59  1453.70
                             1691.16  1771.93  1987.53  2026.45  3042.55
                             3802.43  3869.24  4434.50

 Zero-point correction=                           0.047675 (Hartree/Particle)
 Thermal correction to Energy=                    0.053688
 Thermal correction to Enthalpy=                  0.054632
 Thermal correction to Gibbs Free Energy=         0.018114
 Sum of electronic and zero-point Energies=           -191.091330
 Sum of electronic and thermal Energies=              -191.085317
 Sum of electronic and thermal Enthalpies=            -191.084373
 Sum of electronic and thermal Free Energies=         -191.120892

                     E (Thermal)             CV                S
                      KCal/Mol        Cal/Mol-Kelvin    Cal/Mol-Kelvin
 Total                   33.690             18.819             76.859
 Electronic               0.000              0.000              1.377
 Translational            0.889              2.981             38.342
 Rotational               0.889              2.981             24.919
 Vibrational             31.912             12.857             12.221
 Vibration     1          0.599              1.965              3.968
 Vibration     2          0.619              1.898              2.623
 Vibration     3          0.674              1.729              1.597
 Vibration     4          0.685              1.697              1.488
 Vibration     5          0.739              1.541              1.094
 Vibration     6          0.837              1.292              0.707

 Optimization completed.
    -- Stationary point found.
 Normal termination of Gaussian 09 at Sun Jun 19 11:37:35 2016.
