 Gaussian 09, Revision E.01,
 Gaussian 09:  EM64L-G09RevE.01 30-Nov-2015

 ---------------------------------------------
 #p b3lyp/6-311++G(3df,2p) freq symmetry=Loose
 ---------------------------------------------

 ---------
 b3lyp opt
 ---------
 Symbolic Z-matrix:
 Charge =  3 Multiplicity = 3

                         Standard orientation:
 ---------------------------------------------------------------------
 Center     Atomic      Atomic             Coordinates (Angstroms)
 Number     Number       Type             X           Y           Z
 ---------------------------------------------------------------------
      1          6           0        2.618436   -0.078044    0.000000
      2          6           0       -1.361744    0.035417    0.000000
      3          6           0       -2.593745   -0.252462    0.000000
      4          6           0        0.000000    0.465085    0.000000
      5          1           0        0.157566    1.476382    0.625162
      6          1           0        0.157566    1.476382   -0.625162
      7          6           0        1.118274   -0.407755    0.000000
      8          1           0        0.997546   -1.526212    0.000000
 ---------------------------------------------------------------------

 SCF Done:  E(UB3LYP) =  -190.248675082     A.U. after   26 cycles

 The electronic state is 3-A".
 Alpha  occ. eigenvalues --  -11.09706 -11.01745 -10.98573 -10.97740 -10.95469
 Alpha  occ. eigenvalues --   -1.56741  -1.49998  -1.43262  -1.28633  -1.26586
 Alpha  occ. eigenvalues --   -1.15883  -1.10943  -1.07620  -1.02076  -1.01281
 Alpha  occ. eigenvalues --   -0.99661
 Alpha virt. eigenvalues --   -0.90402  -0.83368  -0.75452  -0.68653  -0.68558
 Alpha virt. eigenvalues --   -0.56346  -0.54698  -0.50660  -0.49305  -0.46989
 Alpha virt. eigenvalues --   -0.46702  -0.41184  -0.41173  -0.39232  -0.36033

  Beta  occ. eigenvalues --  -11.09559 -10.98562 -10.98171 -10.97938 -10.94666
  Beta  occ. eigenvalues --   -1.56135  -1.46518  -1.41051  -1.28467  -1.25626
  Beta  occ. eigenvalues --   -1.15655  -1.09939  -1.01718  -0.97407
  Beta virt. eigenvalues --   -0.90400  -0.85233  -0.83295  -0.82484  -0.73194
  Beta virt. eigenvalues --   -0.65109  -0.61622  -0.56193  -0.53850  -0.49569
  Beta virt. eigenvalues --   -0.48526  -0.46786  -0.46591  -0.40598  -0.40484

 Mulliken charges and spin densities:
               1          2
     1  C    0.507097   0.082534
     2  C    0.658954   0.422895
     3  C    0.721220   1.314777
     4  C   -0.100881  -0.032292
     5  H    0.297047  -0.026157
     6  H    0.297047  -0.026157
     7  C    0.321285   0.269189
     8  H    0.298233  -0.004789
 Sum of Mulliken charges =   3.00000   2.00000

 Dipole moment (field-independent basis, Debye):
    X=              1.2546    Y=              1.1420    Z=              0.0000  Tot=              1.6965
 Quadrupole moment (field-independent basis, Debye-Ang):
   XX=             30.1512   YY=            -10.7282   ZZ=            -20.1566
   XY=             -0.3545   XZ=             -0.0000   YZ=             -0.0000

  Exact polarizability: 102.539  -3.550  36.695  -0.000   0.000  24.302
 Approx polarizability: 204.266  -7.956  60.452  -0.000  -0.000  39.853

                      1                      2                      3
                     A'                     A"                     A'
 Frequencies --    139.6209               178.1488               201.7842
 Red. masses --      1.8442                 5.6459                 2.8570
 Frc consts  --      0.0212                 0.1056                 0.0685
 IR Inten    --    320.2440                 6.0115               288.2448

                      4                      5                      6
                     A'                     A"                     A'
 Frequencies --    307.9667               382.9880               476.3079
 Red. masses --      6.1969                 4.6253                 7.4378
 Frc consts  --      0.3463                 0.3997                 0.9942
 IR Inten    --     14.1656                25.9614                 9.7102

                      7                      8                      9
                     A"                     A'                     A"
 Frequencies --    665.6667               808.6499               818.4129
 Red. masses --      1.4015                 2.7265                 1.6377
 Frc consts  --      0.3659                 1.0505                 0.6463
 IR Inten    --     73.0117               316.6932                 0.0414

                     10                     11                     12
                     A'                     A'                     A'
 Frequencies --    900.9047              1045.3374              1172.5638
 Red. masses --      2.1526                 2.3253                 1.4009
 Frc consts  --      1.0294                 1.4971                 1.1349
 IR Inten    --     37.1822               394.3214                86.5755

                     13                     14                     15
                     A"                     A'                     A'
 Frequencies --   1181.9723              1357.4448              1933.7045
 Red. masses --      1.1261                 2.8726                11.3790
 Frc consts  --      0.9269                 3.1187                25.0689
 IR Inten    --     54.1005               157.7830               406.9362

                     16                     17                     18
                     A"                     A'                     A'
 Frequencies --   2186.3751              2349.3910              2776.6716
 Red. masses --      1.0581                 1.1092                 1.0836
 Frc consts  --      2.9801                 3.6074                 4.9224
 IR Inten    --    130.9206               501.8795               232.8586

 - Thermochemistry -
 -------------------
 Temperature   298.150 Kelvin.  Pressure   1.00000 Atm.
 Atom     1 has atomic number  6 and mass  12.00000

 Molecular mass:    63.02348 amu.
 Principal axes and moments of inertia in atomic units:
                           1         2         3
     Eigenvalues --    46.15551 721.68748 762.21662
           X            0.99996   0.00920   0.00000
           Y           -0.00920   0.99996   0.00000
           Z           -0.00000   0.00000   1.00000
 This molecule is an asymmetric top.
 Rotational symmetry number  1.
 Rotational temperatures (Kelvin)      1.87657     0.12002     0.11363
 Rotational constants (GHZ):          39.10132     2.50072     2.36775
 Zero-point vibrational energy     112950.9 (Joules/Mol)
                                   26.99591 (Kcal/Mol)
 Warning -- explicit consideration of   6 degrees of freedom as
           vibrations may cause significant error
 Vibrational temperatures:    200.88   256.32   290.32   443.09   551.03
          (Kelvin)            685.30   957.74  1163.47  1177.51  1296.20
                             1504.01  1687.06  1700.59  1953.06  2782.17
                             3145.70  3380.25  3995.01

 Zero-point correction=                           0.043021 (Hartree/Particle)
 Thermal correction to Energy=                    0.049055
 Thermal correction to Enthalpy=                  0.049999
 Thermal correction to Gibbs Free Energy=         0.013539
 Sum of electronic and zero-point Energies=           -190.205654
 Sum of electronic and thermal Energies=              -190.199620
 Sum of electronic and thermal Enthalpies=            -190.198676
 Sum of electronic and thermal Free Energies=         -190.235136

                     E (Thermal)             CV                S
                      KCal/Mol        Cal/Mol-Kelvin    Cal/Mol-Kelvin
 Total                   30.783             19.620             76.738
 Electronic               0.000              0.000              2.183
 Translational            0.889              2.981             38.342
 Rotational               0.889              2.981             24.744
 Vibrational             29.005             13.658             11.469
 Vibration     1          0.615              1.914              2.809
 Vibration     2          0.629              1.869              2.348
 Vibration     3          0.639              1.837              2.117
 Vibration     4          0.698              1.659              1.373
 Vibration     5          0.752              1.506              1.027
 Vibration     6          0.833              1.303              0.720

 Normal termination of Gaussian 09 at Sun Jun 19 14:27:32 2016.
