 Gaussian 09, Revision E.01,
 Gaussian 09:  EM64L-G09RevE.01 30-Nov-2015

 ---------------------------------------------
 #p b3lyp/6-311++G(3df,2p) freq symmetry=Loose
 ---------------------------------------------

 ---------
 b3lyp opt
 ---------
 Symbolic Z-matrix:
 Charge =  2 Multiplicity = 2

                         Standard orientation:
 ---------------------------------------------------------------------
 Center     Atomic      Atomic             Coordinates (Angstroms)
 Number     Number       Type             X           Y           Z
 ---------------------------------------------------------------------
      1          6           0       -0.582105   -0.799775   -0.001649
      2          6           0        0.653260   -0.047926    0.290695
      3          1           0        1.057096   -0.125490    1.366080
      4          6           0        1.916516   -0.063036   -0.302497
      5          1           0        2.845266    0.499361   -0.493036
      6          6           0       -0.546130    0.800942    0.091532
      7          6           0       -1.640413    0.035484   -0.162566
      8          1           0       -2.709127    0.071983   -0.366134
 ---------------------------------------------------------------------

 SCF Done:  E(UB3LYP) =  -191.217036809     A.U. after   19 cycles

 The electronic state is 2-A.
 Alpha  occ. eigenvalues --  -10.82865 -10.77336 -10.75905 -10.75797 -10.72778
 Alpha  occ. eigenvalues --   -1.48580  -1.31897  -1.16115  -1.04904  -1.03970
 Alpha  occ. eigenvalues --   -0.99179  -0.95700  -0.92954  -0.83722  -0.78648
 Alpha  occ. eigenvalues --   -0.76549
 Alpha virt. eigenvalues --   -0.63720  -0.54940  -0.50502  -0.48514  -0.35703
 Alpha virt. eigenvalues --   -0.33379  -0.29746  -0.29305  -0.27704  -0.27352
 Alpha virt. eigenvalues --   -0.24242  -0.23694  -0.23235  -0.21907  -0.20216

  Beta  occ. eigenvalues --  -10.81191 -10.77435 -10.75705 -10.75670 -10.72729
  Beta  occ. eigenvalues --   -1.48370  -1.30096  -1.14413  -1.04083  -1.03074
  Beta  occ. eigenvalues --   -0.98824  -0.95492  -0.91447  -0.83393  -0.76055
  Beta virt. eigenvalues --   -0.62270  -0.61511  -0.54625  -0.49035  -0.48184
  Beta virt. eigenvalues --   -0.35385  -0.32744  -0.29193  -0.29035  -0.27529
  Beta virt. eigenvalues --   -0.27069  -0.23951  -0.23403  -0.22718  -0.21747

 Mulliken charges and spin densities:
               1          2
     1  C    0.197629   0.056715
     2  C    0.509372  -0.054569
     3  H    0.302981  -0.010226
     4  C   -0.075076   0.913384
     5  H    0.373516   0.000508
     6  C    0.168232   0.077935
     7  C    0.150976   0.016549
     8  H    0.372370  -0.000296
 Sum of Mulliken charges =   2.00000   1.00000

 Dipole moment (field-independent basis, Debye):
    X=              3.3682    Y=              0.4626    Z=             -0.0157  Tot=              3.3998
 Quadrupole moment (field-independent basis, Debye-Ang):
   XX=             10.7746   YY=            -24.0749   ZZ=            -19.8503
   XY=              1.4171   XZ=              0.2683   YZ=             -0.7490

  Exact polarizability:  56.950   0.108  36.697  -0.662   0.338  28.259
 Approx polarizability:  87.916  -0.186  90.428  -2.835   2.723  47.043

                      1                      2                      3
                      A                      A                      A
 Frequencies --    193.1677               343.7430               480.2722
 Red. masses --      3.2568                 2.4387                 3.2841
 Frc consts  --      0.0716                 0.1698                 0.4463
 IR Inten    --     22.7008                30.6996                 1.7998

                      4                      5                      6
                      A                      A                      A
 Frequencies --    550.0055               661.2903               695.6210
 Red. masses --      2.2652                 3.2117                 5.8872
 Frc consts  --      0.4037                 0.8275                 1.6784
 IR Inten    --     24.8634                68.5612                14.9400

                      7                      8                      9
                      A                      A                      A
 Frequencies --    767.5278               852.9505               876.3360
 Red. masses --      1.5073                 1.3618                 2.7668
 Frc consts  --      0.5232                 0.5837                 1.2519
 IR Inten    --     10.7497                17.7978                58.7183

                     10                     11                     12
                      A                      A                      A
 Frequencies --    910.5225              1021.5164              1067.8865
 Red. masses --      1.2412                 1.2998                 1.5883
 Frc consts  --      0.6063                 0.7991                 1.0672
 IR Inten    --     16.0454                 4.1103                 3.3304

                     13                     14                     15
                      A                      A                      A
 Frequencies --   1180.3606              1424.0310              1605.0276
 Red. masses --      5.6804                 5.1926                 6.6072
 Frc consts  --      4.6629                 6.2041                10.0284
 IR Inten    --     10.1498                20.9521               122.5734

                     16                     17                     18
                      A                      A                      A
 Frequencies --   2574.2480              3047.0627              3185.8072
 Red. masses --      1.0743                 1.1027                 1.1296
 Frc consts  --      4.1946                 6.0320                 6.7548
 IR Inten    --    261.9670               289.1454               204.6602

 - Thermochemistry -
 -------------------
 Temperature   298.150 Kelvin.  Pressure   1.00000 Atm.
 Atom     1 has atomic number  6 and mass  12.00000

 Molecular mass:    63.02348 amu.
 Principal axes and moments of inertia in atomic units:
                           1         2         3
     Eigenvalues --    73.19299 394.87842 434.07830
           X            0.99987   0.01257   0.00981
           Y           -0.01218   0.99917  -0.03881
           Z           -0.01029   0.03869   0.99920
 This molecule is an asymmetric top.
 Rotational symmetry number  1.
 Rotational temperatures (Kelvin)      1.18336     0.21934     0.19954
 Rotational constants (GHZ):          24.65730     4.57037     4.15764
 Zero-point vibrational energy     128224.0 (Joules/Mol)
                                   30.64627 (Kcal/Mol)
 Warning -- explicit consideration of   4 degrees of freedom as
           vibrations may cause significant error
 Vibrational temperatures:    277.92   494.57   691.00   791.33   951.45
          (Kelvin)           1000.84  1104.30  1227.20  1260.85  1310.04
                             1469.73  1536.45  1698.27  2048.86  2309.27
                             3703.76  4384.04  4583.66

 Zero-point correction=                           0.048838 (Hartree/Particle)
 Thermal correction to Energy=                    0.053637
 Thermal correction to Enthalpy=                  0.054581
 Thermal correction to Gibbs Free Energy=         0.021326
 Sum of electronic and zero-point Energies=           -191.168199
 Sum of electronic and thermal Energies=              -191.163400
 Sum of electronic and thermal Enthalpies=            -191.162456
 Sum of electronic and thermal Free Energies=         -191.195711

                     E (Thermal)             CV                S
                      KCal/Mol        Cal/Mol-Kelvin    Cal/Mol-Kelvin
 Total                   33.657             16.899             69.991
 Electronic               0.000              0.000              1.377
 Translational            0.889              2.981             38.342
 Rotational               0.889              2.981             24.043
 Vibrational             31.880             10.937              6.229
 Vibration     1          0.635              1.849              2.197
 Vibration     2          0.722              1.588              1.195
 Vibration     3          0.837              1.294              0.709
 Vibration     4          0.905              1.140              0.544

 Optimization completed.
    -- Stationary point found.
 Normal termination of Gaussian 09 at Sun Jun 19 11:52:01 2016.
