 Gaussian 09, Revision E.01,
 Gaussian 09:  EM64L-G09RevE.01 30-Nov-2015

 ---------------------------------------------
 #p b3lyp/6-311++G(3df,2p) freq symmetry=Loose
 ---------------------------------------------

 ---------
 b3lyp opt
 ---------
 Symbolic Z-matrix:
 Charge =  3 Multiplicity = 3

                         Standard orientation:
 ---------------------------------------------------------------------
 Center     Atomic      Atomic             Coordinates (Angstroms)
 Number     Number       Type             X           Y           Z
 ---------------------------------------------------------------------
      1          6           0        2.324133   -0.398332   -0.476889
      2          6           0       -0.097179    0.548952   -0.069024
      3          1           0       -0.108495    1.602336   -0.468310
      4          6           0       -1.344687   -0.001749   -0.037325
      5          6           0       -2.583091   -0.376512   -0.038144
      6          6           0        1.214600   -0.011646    0.369695
      7          1           0        1.203776   -0.950273    1.022627
      8          1           0        1.822066    0.783657    0.955799
 ---------------------------------------------------------------------

 SCF Done:  E(UB3LYP) =  -190.311642091     A.U. after   34 cycles

 The electronic state is 3-A.
 Alpha  occ. eigenvalues --  -11.09572 -11.06134 -11.01050 -11.00959 -10.92030
 Alpha  occ. eigenvalues --   -1.58135  -1.52927  -1.44839  -1.28076  -1.21661
 Alpha  occ. eigenvalues --   -1.15895  -1.13635  -1.10977  -1.07614  -1.06142
 Alpha  occ. eigenvalues --   -0.99491
 Alpha virt. eigenvalues --   -0.86756  -0.80561  -0.78452  -0.74662  -0.65937
 Alpha virt. eigenvalues --   -0.53873  -0.52724  -0.50328  -0.47661  -0.45064
 Alpha virt. eigenvalues --   -0.42679  -0.42270  -0.39903  -0.38737  -0.36992

  Beta  occ. eigenvalues --  -11.06191 -11.05909 -11.01115 -11.00245 -10.91966
  Beta  occ. eigenvalues --   -1.56273  -1.50321  -1.42750  -1.27527  -1.20699
  Beta  occ. eigenvalues --   -1.15287  -1.10578  -1.05871  -0.99639
  Beta virt. eigenvalues --   -0.90813  -0.87438  -0.84390  -0.80308  -0.78382
  Beta virt. eigenvalues --   -0.65574  -0.62656  -0.53187  -0.52360  -0.49950
  Beta virt. eigenvalues --   -0.47494  -0.44713  -0.42665  -0.41715  -0.39527

 Mulliken charges and spin densities:
               1          2
     1  C    0.421596  -0.019526
     2  C    0.310424  -0.107030
     3  H    0.318538   0.032319
     4  C    0.767502   0.468702
     5  C    0.524060   1.612334
     6  C   -0.037685   0.027022
     7  H    0.334373  -0.004482
     8  H    0.361192  -0.009339
 Sum of Mulliken charges =   3.00000   2.00000

 Dipole moment (field-independent basis, Debye):
    X=             -1.4814    Y=              0.1503    Z=              0.4787  Tot=              1.5640
 Quadrupole moment (field-independent basis, Debye-Ang):
   XX=             33.0632   YY=            -14.1237   ZZ=            -18.3427
   XY=              2.4416   XZ=              2.2220   YZ=             -1.2558

  Exact polarizability:  94.519   1.234  32.248  -2.753   0.479  28.945
 Approx polarizability: 198.688   7.274  54.161 -13.036   2.386  47.339

                      1                      2                      3
                      A                      A                      A
 Frequencies --     97.4571               209.2450               304.2291
 Red. masses --      4.1902                 3.8327                 4.8800
 Frc consts  --      0.0234                 0.0989                 0.2661
 IR Inten    --      1.5494                 4.7861                14.3826

                      4                      5                      6
                      A                      A                      A
 Frequencies --    331.7650               499.6706               567.2760
 Red. masses --      4.7351                 2.6748                 2.3942
 Frc consts  --      0.3071                 0.3935                 0.4539
 IR Inten    --      0.7837                 4.0075                 7.2674

                      7                      8                      9
                      A                      A                      A
 Frequencies --    751.6447               812.8111               912.8842
 Red. masses --      2.9418                 1.4443                 2.3110
 Frc consts  --      0.9792                 0.5622                 1.1347
 IR Inten    --     12.1209                 4.5370                51.0773

                     10                     11                     12
                      A                      A                      A
 Frequencies --   1021.4135              1090.7361              1167.8563
 Red. masses --      1.2053                 2.1517                 1.6207
 Frc consts  --      0.7409                 1.5082                 1.3024
 IR Inten    --      0.9800                45.3265               291.3530

                     13                     14                     15
                      A                      A                      A
 Frequencies --   1271.4021              1314.2176              1802.1358
 Red. masses --      1.6415                 1.7437                11.5659
 Frc consts  --      1.5634                 1.7744                22.1312
 IR Inten    --    117.8023                81.2001               389.2117

                     16                     17                     18
                      A                      A                      A
 Frequencies --   2481.2163              2617.9854              2745.3570
 Red. masses --      1.0725                 1.0765                 1.0802
 Frc consts  --      3.8902                 4.3472                 4.7968
 IR Inten    --    447.5966               258.7966               390.3245

 - Thermochemistry -
 -------------------
 Temperature   298.150 Kelvin.  Pressure   1.00000 Atm.
 Atom     1 has atomic number  6 and mass  12.00000

 Molecular mass:    63.02348 amu.
 Principal axes and moments of inertia in atomic units:
                           1         2         3
     Eigenvalues --    63.83696 698.25938 716.43311
           X            0.99986   0.00417   0.01632
           Y           -0.00107   0.98261  -0.18569
           Z           -0.01682   0.18565   0.98247
 This molecule is an asymmetric top.
 Rotational symmetry number  1.
 Rotational temperatures (Kelvin)      1.35680     0.12404     0.12090
 Rotational constants (GHZ):          28.27110     2.58463     2.51906
 Zero-point vibrational energy     119622.4 (Joules/Mol)
                                   28.59044 (Kcal/Mol)
 Warning -- explicit consideration of   6 degrees of freedom as
           vibrations may cause significant error
 Vibrational temperatures:    140.22   301.06   437.72   477.34   718.91
          (Kelvin)            816.18  1081.45  1169.45  1313.44  1469.58
                             1569.32  1680.28  1829.26  1890.86  2592.87
                             3569.91  3766.69  3949.95

 Zero-point correction=                           0.045562 (Hartree/Particle)
 Thermal correction to Energy=                    0.051203
 Thermal correction to Enthalpy=                  0.052148
 Thermal correction to Gibbs Free Energy=         0.016179
 Sum of electronic and zero-point Energies=           -190.266080
 Sum of electronic and thermal Energies=              -190.260439
 Sum of electronic and thermal Enthalpies=            -190.259494
 Sum of electronic and thermal Free Energies=         -190.295463

                     E (Thermal)             CV                S
                      KCal/Mol        Cal/Mol-Kelvin    Cal/Mol-Kelvin
 Total                   32.131             18.418             75.703
 Electronic               0.000              0.000              2.183
 Translational            0.889              2.981             38.342
 Rotational               0.889              2.981             24.972
 Vibrational             30.353             12.456             10.206
 Vibration     1          0.603              1.951              3.505
 Vibration     2          0.642              1.827              2.050
 Vibration     3          0.695              1.666              1.394
 Vibration     4          0.714              1.612              1.251
 Vibration     5          0.855              1.251              0.659
 Vibration     6          0.923              1.102              0.510

 Optimization completed.
    -- Stationary point found.
 Normal termination of Gaussian 09 at Sun Jun 19 14:15:21 2016.
