 Gaussian 09, Revision E.01,
 Gaussian 09:  EM64L-G09RevE.01 30-Nov-2015

 ---------------------------------------------
 #p b3lyp/6-311++G(3df,2p) freq symmetry=Loose
 ---------------------------------------------

 ---------
 b3lyp opt
 ---------
 Symbolic Z-matrix:
 Charge =  0 Multiplicity = 4

                         Standard orientation:
 ---------------------------------------------------------------------
 Center     Atomic      Atomic             Coordinates (Angstroms)
 Number     Number       Type             X           Y           Z
 ---------------------------------------------------------------------
      1          6           0        0.052609   -1.476376    0.000000
      2          6           0       -0.000000    0.523316   -0.000000
      3          6           0       -1.021978   -0.587799    0.000000
      4          1           0       -2.095732   -0.636933    0.000000
      5          6           0        1.074229   -0.534917   -0.000000
      6          1           0        2.148912   -0.518786   -0.000000
      7          6           0       -0.001331    1.824724   -0.000000
      8          1           0       -0.674360    2.662036    0.000000
 ---------------------------------------------------------------------

 SCF Done:  E(UB3LYP) =  -192.092554663     A.U. after   16 cycles

 The electronic state is 4-A".
 Alpha  occ. eigenvalues --  -10.23022 -10.21990 -10.21678 -10.21539 -10.20041
 Alpha  occ. eigenvalues --   -0.91936  -0.75551  -0.68443  -0.57361  -0.55028
 Alpha  occ. eigenvalues --   -0.48802  -0.44024  -0.41236  -0.41106  -0.27910
 Alpha  occ. eigenvalues --   -0.26747  -0.24828  -0.21835
 Alpha virt. eigenvalues --   -0.03919  -0.00180   0.01340   0.01616   0.03684
 Alpha virt. eigenvalues --    0.04677   0.05526   0.06062   0.07684   0.09061
 Alpha virt. eigenvalues --    0.09212   0.10451   0.10805   0.10952   0.11686

  Beta  occ. eigenvalues --  -10.22042 -10.21843 -10.20414 -10.20361 -10.18461
  Beta  occ. eigenvalues --   -0.89280  -0.72680  -0.65087  -0.54234  -0.53454
  Beta  occ. eigenvalues --   -0.45835  -0.41717  -0.39251  -0.37768  -0.24821
  Beta virt. eigenvalues --   -0.12113  -0.09532  -0.09420  -0.01862   0.00063
  Beta virt. eigenvalues --    0.01544   0.01897   0.04263   0.05227   0.06099
  Beta virt. eigenvalues --    0.06499   0.08492   0.09573   0.10151   0.10800

 Mulliken charges and spin densities:
               1          2
     1  C   -0.091486   0.711313
     2  C    0.359103  -0.142380
     3  C   -0.181627   0.767801
     4  H    0.252458  -0.022257
     5  C   -0.182943   0.713250
     6  H    0.253387  -0.020409
     7  C   -0.624068   0.971584
     8  H    0.215177   0.021098
 Sum of Mulliken charges =   0.00000   3.00000

 Dipole moment (field-independent basis, Debye):
    X=             -0.5618    Y=              0.2940    Z=              0.0000  Tot=              0.6341
 Quadrupole moment (field-independent basis, Debye-Ang):
   XX=            -24.9391   YY=            -29.9590   ZZ=            -32.0946
   XY=             -1.6157   XZ=              0.0000   YZ=              0.0000

  Exact polarizability:  58.848  -0.764  78.145  -0.000  -0.000  39.183
 Approx polarizability:  91.477  -0.444 129.716  -0.000  -0.000  55.911

                      1                      2                      3
                     A"                     A'                     A"
 Frequencies --    227.4801               353.6223               498.0435
 Red. masses --      6.9964                 2.4557                 1.4729
 Frc consts  --      0.2133                 0.1809                 0.2153
 IR Inten    --      1.3647                 4.2920                69.4763

                      4                      5                      6
                     A"                     A"                     A"
 Frequencies --    557.9680               612.3926               634.0513
 Red. masses --      1.2339                 1.2588                 2.8693
 Frc consts  --      0.2263                 0.2781                 0.6796
 IR Inten    --      4.6870                19.7618                34.7463

                      7                      8                      9
                     A'                     A'                     A'
 Frequencies --    687.7398               740.7171               841.5850
 Red. masses --      2.1148                 3.8851                 3.6307
 Frc consts  --      0.5893                 1.2559                 1.5151
 IR Inten    --      7.8188                10.9472                 9.3936

                     10                     11                     12
                     A'                     A'                     A'
 Frequencies --    889.1956              1091.0684              1113.2773
 Red. masses --      2.6169                 2.8440                 1.7079
 Frc consts  --      1.2191                 1.9947                 1.2472
 IR Inten    --      1.7920                 0.4541                 3.7202

                     13                     14                     15
                     A'                     A'                     A'
 Frequencies --   1136.7330              1365.4021              1682.6819
 Red. masses --      1.9501                 4.4646                 8.2770
 Frc consts  --      1.4847                 4.9040                13.8079
 IR Inten    --      7.4540                 0.1621                11.5208

                     16                     17                     18
                     A'                     A'                     A'
 Frequencies --   3266.2051              3271.7588              3280.0100
 Red. masses --      1.0926                 1.1009                 1.1052
 Frc consts  --      6.8677                 6.9430                 7.0054
 IR Inten    --      0.8364                 0.1777                 5.6420

 - Thermochemistry -
 -------------------
 Temperature   298.150 Kelvin.  Pressure   1.00000 Atm.
 Atom     1 has atomic number  6 and mass  12.00000

 Molecular mass:    63.02348 amu.
 Principal axes and moments of inertia in atomic units:
                           1         2         3
     Eigenvalues --   128.00836 303.05862 431.06698
           X           -0.04535   0.99897   0.00000
           Y            0.99897   0.04535   0.00000
           Z           -0.00000  -0.00000   1.00000
 This molecule is an asymmetric top.
 Rotational symmetry number  1.
 Rotational temperatures (Kelvin)      0.67663     0.28580     0.20093
 Rotational constants (GHZ):          14.09862     5.95509     4.18668
 Zero-point vibrational energy     133084.1 (Joules/Mol)
                                   31.80787 (Kcal/Mol)
 Warning -- explicit consideration of   5 degrees of freedom as
           vibrations may cause significant error
 Vibrational temperatures:    327.29   508.78   716.57   802.79   881.10
          (Kelvin)            912.26   989.50  1065.73  1210.85  1279.35
                             1569.80  1601.76  1635.50  1964.51  2421.00
                             4699.33  4707.33  4719.20

 Zero-point correction=                           0.050689 (Hartree/Particle)
 Thermal correction to Energy=                    0.055524
 Thermal correction to Enthalpy=                  0.056468
 Thermal correction to Gibbs Free Energy=         0.022450
 Sum of electronic and zero-point Energies=           -192.041866
 Sum of electronic and thermal Energies=              -192.037031
 Sum of electronic and thermal Enthalpies=            -192.036087
 Sum of electronic and thermal Free Energies=         -192.070104

                     E (Thermal)             CV                S
                      KCal/Mol        Cal/Mol-Kelvin    Cal/Mol-Kelvin
 Total                   34.842             17.342             71.596
 Electronic               0.000              0.000              2.755
 Translational            0.889              2.981             38.342
 Rotational               0.889              2.981             24.329
 Vibrational             33.064             11.380              6.171
 Vibration     1          0.651              1.799              1.899
 Vibration     2          0.730              1.568              1.150
 Vibration     3          0.854              1.254              0.663
 Vibration     4          0.914              1.122              0.528
 Vibration     5          0.972              1.006              0.429

 Optimization completed.
    -- Stationary point found.
 Normal termination of Gaussian 09 at Tue Jul 19 15:41:37 2016.
