 Gaussian 09, Revision E.01,
 Gaussian 09:  EM64L-G09RevE.01 30-Nov-2015

 ---------------------------------------------
 #p b3lyp/6-311++G(3df,2p) freq symmetry=Loose
 ---------------------------------------------

 ---------
 b3lyp opt
 ---------
 Symbolic Z-matrix:
 Charge =  0 Multiplicity = 4

                         Standard orientation:
 ---------------------------------------------------------------------
 Center     Atomic      Atomic             Coordinates (Angstroms)
 Number     Number       Type             X           Y           Z
 ---------------------------------------------------------------------
      1          6           0       -0.372997   -2.016535   -0.000000
      2          1           0        0.715917   -2.141156    0.000000
      3          1           0       -0.776337   -2.525784    0.880453
      4          1           0       -0.776337   -2.525784   -0.880453
      5          6           0       -0.739930   -0.603788   -0.000000
      6          6           0       -0.000000    0.577463    0.000000
      7          6           0        1.187121    1.235738    0.000000
      8          6           0        0.065265    2.005909    0.000000
 ---------------------------------------------------------------------

 SCF Done:  E(UB3LYP) =  -192.053965122     A.U. after   16 cycles

 The electronic state is 4-A".
 Alpha  occ. eigenvalues --  -10.26693 -10.26592 -10.23019 -10.21787 -10.21681
 Alpha  occ. eigenvalues --   -0.95025  -0.83160  -0.71148  -0.52459  -0.51915
 Alpha  occ. eigenvalues --   -0.47626  -0.46442  -0.44022  -0.41364  -0.32294
 Alpha  occ. eigenvalues --   -0.29418  -0.26930  -0.23152
 Alpha virt. eigenvalues --   -0.02513  -0.01747   0.00032   0.01948   0.02052
 Alpha virt. eigenvalues --    0.03415   0.05456   0.05999   0.06476   0.06584
 Alpha virt. eigenvalues --    0.08205   0.08953   0.10279   0.10410   0.10578

  Beta  occ. eigenvalues --  -10.26167 -10.24164 -10.21661 -10.21641 -10.21022
  Beta  occ. eigenvalues --   -0.93230  -0.79906  -0.68120  -0.49245  -0.48224
  Beta  occ. eigenvalues --   -0.45670  -0.44761  -0.39825  -0.38971  -0.25891
  Beta virt. eigenvalues --   -0.17221  -0.14403  -0.09045  -0.01486   0.00131
  Beta virt. eigenvalues --    0.02024   0.02172   0.03289   0.03943   0.05678
  Beta virt. eigenvalues --    0.06199   0.07181   0.07515   0.09204   0.09383

 Mulliken charges and spin densities:
               1          2
     1  C   -0.439889  -0.088675
     2  H    0.154236   0.066931
     3  H    0.172764   0.042680
     4  H    0.172764   0.042680
     5  C   -0.240641   1.681837
     6  C    0.699701   0.066216
     7  C   -0.169692   0.800405
     8  C   -0.349244   0.387926
 Sum of Mulliken charges =  -0.00000   3.00000

 Dipole moment (field-independent basis, Debye):
    X=             -0.3400    Y=             -4.3577    Z=             -0.0000  Tot=              4.3710
 Quadrupole moment (field-independent basis, Debye-Ang):
   XX=            -32.1481   YY=            -32.2109   ZZ=            -29.0642
   XY=              1.3851   XZ=              0.0000   YZ=              0.0000

  Exact polarizability:  67.499   2.933  83.084   0.000  -0.000  39.834
 Approx polarizability: 105.540   6.505 111.639   0.000   0.000  58.260

                      1                      2                      3
                     A"                     A'                     A"
 Frequencies --     52.3262               180.3236               202.5592
 Red. masses --      1.1439                 4.1195                 4.8469
 Frc consts  --      0.0018                 0.0789                 0.1172
 IR Inten    --      0.2038                11.2088                 0.9377

                      4                      5                      6
                     A'                     A"                     A'
 Frequencies --    460.5301               473.6112               586.0635
 Red. masses --      5.9558                 8.3633                 8.6799
 Frc consts  --      0.7442                 1.1053                 1.7565
 IR Inten    --     41.2936                 5.3896               361.8527

                      7                      8                      9
                     A'                     A"                     A'
 Frequencies --    729.8785               979.4677              1037.3203
 Red. masses --      3.8782                 1.3631                 1.7028
 Frc consts  --      1.2173                 0.7705                 1.0795
 IR Inten    --     13.4947                 1.9287                 1.8449

                     10                     11                     12
                     A'                     A'                     A'
 Frequencies --   1146.4524              1383.6280              1398.3731
 Red. masses --      6.8485                 1.2294                 9.2105
 Frc consts  --      5.3034                 1.3867                10.6116
 IR Inten    --     75.1847                 9.4077                 7.1270

                     13                     14                     15
                     A"                     A'                     A'
 Frequencies --   1433.9454              1449.1756              1672.6443
 Red. masses --      1.0424                 1.0653                11.4846
 Frc consts  --      1.2628                 1.3181                18.9311
 IR Inten    --      8.6031                13.0572                 7.3976

                     16                     17                     18
                     A'                     A'                     A"
 Frequencies --   2979.3298              3041.7703              3044.8102
 Red. masses --      1.0343                 1.0963                 1.0980
 Frc consts  --      5.4094                 5.9765                 5.9976
 IR Inten    --      1.3082                 2.7694                 1.9264

 - Thermochemistry -
 -------------------
 Temperature   298.150 Kelvin.  Pressure   1.00000 Atm.
 Atom     1 has atomic number  6 and mass  12.00000

 Molecular mass:    63.02348 amu.
 Principal axes and moments of inertia in atomic units:
                           1         2         3
     Eigenvalues --    64.63070 544.23723 597.70815
           X            0.27809   0.96056   0.00000
           Y            0.96056  -0.27809   0.00000
           Z           -0.00000  -0.00000   1.00000
 This molecule is an asymmetric top.
 Rotational symmetry number  1.
 Rotational temperatures (Kelvin)      1.34013     0.15915     0.14491
 Rotational constants (GHZ):          27.92390     3.31609     3.01944
 Zero-point vibrational energy     133097.8 (Joules/Mol)
                                   31.81113 (Kcal/Mol)
 Warning -- explicit consideration of   6 degrees of freedom as
           vibrations may cause significant error
 Vibrational temperatures:     75.29   259.45   291.44   662.60   681.42
          (Kelvin)            843.21  1050.13  1409.23  1492.47  1649.49
                             1990.73  2011.94  2063.13  2085.04  2406.56
                             4286.59  4376.42  4380.80

 Zero-point correction=                           0.050694 (Hartree/Particle)
 Thermal correction to Energy=                    0.056397
 Thermal correction to Enthalpy=                  0.057341
 Thermal correction to Gibbs Free Energy=         0.020584
 Sum of electronic and zero-point Energies=           -192.003271
 Sum of electronic and thermal Energies=              -191.997568
 Sum of electronic and thermal Enthalpies=            -191.996624
 Sum of electronic and thermal Free Energies=         -192.033381

                     E (Thermal)             CV                S
                      KCal/Mol        Cal/Mol-Kelvin    Cal/Mol-Kelvin
 Total                   35.390             17.546             77.361
 Electronic               0.000              0.000              2.755
 Translational            0.889              2.981             38.342
 Rotational               0.889              2.981             24.556
 Vibrational             33.612             11.584             11.708
 Vibration     1          0.596              1.977              4.727
 Vibration     2          0.629              1.866              2.325
 Vibration     3          0.639              1.836              2.110
 Vibration     4          0.818              1.338              0.765
 Vibration     5          0.830              1.309              0.728
 Vibration     6          0.943              1.062              0.474

 Optimization completed.
    -- Stationary point found.
 Normal termination of Gaussian 09 at Tue Jul 19 13:07:14 2016.
