 Gaussian 09, Revision E.01,
 Gaussian 09:  EM64L-G09RevE.01 30-Nov-2015

 ---------------------------------------------
 #p b3lyp/6-311++G(3df,2p) freq symmetry=Loose
 ---------------------------------------------

 ---------
 b3lyp opt
 ---------
 Symbolic Z-matrix:
 Charge =  1 Multiplicity = 1

                         Standard orientation:
 ---------------------------------------------------------------------
 Center     Atomic      Atomic             Coordinates (Angstroms)
 Number     Number       Type             X           Y           Z
 ---------------------------------------------------------------------
      1          6           0        0.707693   -1.172619    0.000000
      2          1           0        1.103194   -1.621527   -0.909304
      3          1           0        1.103194   -1.621527    0.909304
      4          6           0        0.704682    0.325666    0.000000
      5          6           0        0.000000    1.418426    0.000000
      6          1           0        0.071312    2.491601    0.000000
      7          6           0       -0.737264   -0.824338    0.000000
      8          6           0       -1.054725    0.378105    0.000000
 ---------------------------------------------------------------------

 SCF Done:  E(RB3LYP) =  -191.825647131     A.U. after   12 cycles

 The electronic state is 1-A'.
 Alpha  occ. eigenvalues --  -10.52411 -10.49392 -10.48894 -10.48385 -10.47110
 Alpha  occ. eigenvalues --   -1.21645  -1.03362  -0.95017  -0.80384  -0.74812
 Alpha  occ. eigenvalues --   -0.72925  -0.72066  -0.70988  -0.61178  -0.56207
 Alpha  occ. eigenvalues --   -0.49037
 Alpha virt. eigenvalues --   -0.34436  -0.28606  -0.27363  -0.17544  -0.16385
 Alpha virt. eigenvalues --   -0.13288  -0.12546  -0.11890  -0.10652  -0.09073
 Alpha virt. eigenvalues --   -0.07457  -0.07416  -0.05254  -0.05159  -0.04734

 Mulliken charges:
               1
     1  C   -0.385661
     2  H    0.257251
     3  H    0.257251
     4  C    0.200772
     5  C    0.168569
     6  H    0.308344
     7  C    0.204162
     8  C   -0.010687
 Sum of Mulliken charges =   1.00000

 Dipole moment (field-independent basis, Debye):
    X=              1.3551    Y=             -0.0318    Z=             -0.0000  Tot=              1.3554
 Quadrupole moment (field-independent basis, Debye-Ang):
   XX=            -22.2148   YY=            -13.3589   ZZ=            -26.2549
   XY=             -2.8290   XZ=             -0.0000   YZ=              0.0000

  Exact polarizability:  43.776  -2.608  54.133   0.000  -0.000  29.192
 Approx polarizability:  88.539  -6.207 104.798  -0.000   0.000  42.479

                      1                      2                      3
                     A"                     A"                     A'
 Frequencies --    199.8143               368.9635               494.1806
 Red. masses --      3.1885                 4.5827                 8.2369
 Frc consts  --      0.0750                 0.3676                 1.1852
 IR Inten    --     17.0218                 4.4609                 5.2996

                      4                      5                      6
                     A'                     A'                     A"
 Frequencies --    606.9508               696.2828               741.7759
 Red. masses --     10.5846                 5.8279                 1.2051
 Frc consts  --      2.2974                 1.6647                 0.3907
 IR Inten    --     43.0407                27.1071                31.9436

                      7                      8                      9
                     A"                     A'                     A'
 Frequencies --    906.4059               995.6473              1045.5482
 Red. masses --      1.5505                 9.5358                 2.3415
 Frc consts  --      0.7505                 5.5695                 1.5081
 IR Inten    --      0.1392                 5.1756                 1.2516

                     10                     11                     12
                     A"                     A'                     A'
 Frequencies --   1066.5413              1083.5592              1157.4042
 Red. masses --      1.1035                 1.6541                 1.2086
 Frc consts  --      0.7396                 1.1442                 0.9539
 IR Inten    --      0.5514                18.5867                10.5246

                     13                     14                     15
                     A'                     A'                     A'
 Frequencies --   1408.6777              1723.8018              1969.3763
 Red. masses --      1.0994                 7.6419                11.1118
 Frc consts  --      1.2854                13.3791                25.3917
 IR Inten    --     22.6590                19.3309                22.5222

                     16                     17                     18
                     A'                     A"                     A'
 Frequencies --   3088.7310              3157.2569              3292.1724
 Red. masses --      1.0556                 1.1118                 1.1162
 Frc consts  --      5.9334                 6.5299                 7.1278
 IR Inten    --     48.0538                39.6349                80.3058

 - Thermochemistry -
 -------------------
 Temperature   298.150 Kelvin.  Pressure   1.00000 Atm.
 Atom     1 has atomic number  6 and mass  12.00000

 Molecular mass:    63.02348 amu.
 Principal axes and moments of inertia in atomic units:
                           1         2         3
     Eigenvalues --   120.64697 239.62092 348.36476
           X           -0.25107   0.96797   0.00000
           Y            0.96797   0.25107   0.00000
           Z            0.00000   0.00000   1.00000
 This molecule is an asymmetric top.
 Rotational symmetry number  1.
 Rotational temperatures (Kelvin)      0.71791     0.36146     0.24863
 Rotational constants (GHZ):          14.95886     7.53165     5.18061
 Zero-point vibrational energy     143570.4 (Joules/Mol)
                                   34.31414 (Kcal/Mol)
 Warning -- explicit consideration of   4 degrees of freedom as
           vibrations may cause significant error
 Vibrational temperatures:    287.49   530.86   711.01   873.27  1001.79
          (Kelvin)           1067.25  1304.11  1432.51  1504.31  1534.51
                             1559.00  1665.24  2026.77  2480.16  2833.49
                             4443.99  4542.58  4736.70

 Zero-point correction=                           0.054683 (Hartree/Particle)
 Thermal correction to Energy=                    0.059219
 Thermal correction to Enthalpy=                  0.060163
 Thermal correction to Gibbs Free Energy=         0.028050
 Sum of electronic and zero-point Energies=           -191.770964
 Sum of electronic and thermal Energies=              -191.766428
 Sum of electronic and thermal Enthalpies=            -191.765484
 Sum of electronic and thermal Free Energies=         -191.797597

                     E (Thermal)             CV                S
                      KCal/Mol        Cal/Mol-Kelvin    Cal/Mol-Kelvin
 Total                   37.160             15.397             67.587
 Electronic               0.000              0.000              0.000
 Translational            0.889              2.981             38.342
 Rotational               0.889              2.981             23.825
 Vibrational             35.383              9.436              5.420
 Vibration     1          0.638              1.840              2.135
 Vibration     2          0.741              1.536              1.084
 Vibration     3          0.850              1.263              0.673
 Vibration     4          0.966              1.017              0.438

 Optimization completed.
    -- Stationary point found.
 Normal termination of Gaussian 09 at Sun Jun 19 09:54:22 2016.
