 Gaussian 09, Revision E.01,
 Gaussian 09:  EM64L-G09RevE.01 30-Nov-2015

 ---------------------------------------------
 #p b3lyp/6-311++G(3df,2p) freq symmetry=Loose
 ---------------------------------------------

 ---------
 b3lyp opt
 ---------
 Symbolic Z-matrix:
 Charge =  1 Multiplicity = 3

                         Standard orientation:
 ---------------------------------------------------------------------
 Center     Atomic      Atomic             Coordinates (Angstroms)
 Number     Number       Type             X           Y           Z
 ---------------------------------------------------------------------
      1          6           0        0.000000    0.304957    0.000000
      2          6           0       -0.721677   -0.912074    0.000000
      3          1           0       -1.807731   -0.854470    0.000000
      4          6           0        1.123972    1.086369    0.000000
      5          6           0       -0.093866   -2.076781    0.000000
      6          6           0       -0.043448    1.724391    0.000000
      7          1           0        0.897699   -2.504079    0.000000
      8          1           0       -0.679850    2.597375    0.000000
 ---------------------------------------------------------------------

 SCF Done:  E(UB3LYP) =  -191.827029740     A.U. after   16 cycles

 The electronic state is 3-A'.
 Alpha  occ. eigenvalues --  -10.51288 -10.50586 -10.49476 -10.44938 -10.42147
 Alpha  occ. eigenvalues --   -1.20868  -1.03493  -0.87005  -0.83974  -0.75765
 Alpha  occ. eigenvalues --   -0.72571  -0.67993  -0.65848  -0.63667  -0.53570
 Alpha  occ. eigenvalues --   -0.52562  -0.46999
 Alpha virt. eigenvalues --   -0.31494  -0.27053  -0.16540  -0.14703  -0.13937
 Alpha virt. eigenvalues --   -0.12852  -0.10634  -0.09913  -0.08845  -0.07350
 Alpha virt. eigenvalues --   -0.06727  -0.05549  -0.05420  -0.04217  -0.03841

  Beta  occ. eigenvalues --  -10.50846 -10.49290 -10.49080 -10.43223 -10.42269
  Beta  occ. eigenvalues --   -1.19688  -1.01982  -0.84206  -0.82912  -0.74212
  Beta  occ. eigenvalues --   -0.68914  -0.65836  -0.65355  -0.61614  -0.51733
  Beta virt. eigenvalues --   -0.38698  -0.30064  -0.29707  -0.25379  -0.15754
  Beta virt. eigenvalues --   -0.14463  -0.13666  -0.12324  -0.10310  -0.09919
  Beta virt. eigenvalues --   -0.08501  -0.06009  -0.05862  -0.05344  -0.04781

 Mulliken charges and spin densities:
               1          2
     1  C    0.348432   0.027240
     2  C   -0.130386  -0.068739
     3  H    0.212600   0.044428
     4  C    0.234340   0.836590
     5  C   -0.330593   1.068231
     6  C    0.093602   0.070043
     7  H    0.257543   0.017106
     8  H    0.314461   0.005101
 Sum of Mulliken charges =   1.00000   2.00000

 Dipole moment (field-independent basis, Debye):
    X=             -0.3469    Y=              1.4619    Z=              0.0000  Tot=              1.5025
 Quadrupole moment (field-independent basis, Debye-Ang):
   XX=            -21.7446   YY=             -9.3184   ZZ=            -27.1131
   XY=             -2.5062   XZ=              0.0000   YZ=              0.0000

  Exact polarizability:  44.629   1.908  73.206   0.000  -0.000  29.078
 Approx polarizability:  73.690  -0.450 118.541  -0.000  -0.000  42.824

                      1                      2                      3
                     A"                     A'                     A"
 Frequencies --    111.8917               219.6396               420.6650
 Red. masses --      2.9851                 3.5545                 3.0909
 Frc consts  --      0.0220                 0.1010                 0.3223
 IR Inten    --      7.5767                 3.2692                 0.0002

                      4                      5                      6
                     A'                     A'                     A"
 Frequencies --    483.0694               744.3233               752.5005
 Red. masses --      2.5993                 1.8859                 1.9613
 Frc consts  --      0.3574                 0.6156                 0.6544
 IR Inten    --      3.2507                29.8259                 2.7806

                      7                      8                      9
                     A"                     A"                     A'
 Frequencies --    877.8562               899.2569               908.2761
 Red. masses --      1.1843                 1.3354                 3.5038
 Frc consts  --      0.5377                 0.6363                 1.7031
 IR Inten    --      4.7023                71.0251                10.5066

                     10                     11                     12
                     A'                     A'                     A'
 Frequencies --    946.1293              1119.6436              1274.8226
 Red. masses --      1.3237                 5.1614                 1.2476
 Frc consts  --      0.6982                 3.8122                 1.1946
 IR Inten    --     19.2609                69.5210                11.6612

                     13                     14                     15
                     A'                     A'                     A'
 Frequencies --   1425.3129              1573.6373              1731.8629
 Red. masses --      8.4216                 6.4944                 8.6948
 Frc consts  --     10.0801                 9.4754                15.3651
 IR Inten    --    219.4306               125.4454               120.7863

                     16                     17                     18
                     A'                     A'                     A'
 Frequencies --   3116.4704              3246.0043              3246.0929
 Red. masses --      1.0865                 1.1091                 1.1148
 Frc consts  --      6.2175                 6.8850                 6.9209
 IR Inten    --     25.5340                81.9785                46.1368

 - Thermochemistry -
 -------------------
 Temperature   298.150 Kelvin.  Pressure   1.00000 Atm.
 Atom     1 has atomic number  6 and mass  12.00000

 Molecular mass:    63.02348 amu.
 Principal axes and moments of inertia in atomic units:
                           1         2         3
     Eigenvalues --    77.38082 467.61645 544.99727
           X            0.20069   0.97966   0.00000
           Y            0.97966  -0.20069   0.00000
           Z            0.00000  -0.00000   1.00000
 This molecule is an asymmetric top.
 Rotational symmetry number  1.
 Rotational temperatures (Kelvin)      1.11932     0.18522     0.15893
 Rotational constants (GHZ):          23.32285     3.85945     3.31147
 Zero-point vibrational energy     138153.5 (Joules/Mol)
                                   33.01947 (Kcal/Mol)
 Warning -- explicit consideration of   4 degrees of freedom as
           vibrations may cause significant error
 Vibrational temperatures:    160.99   316.01   605.24   695.03  1070.91
          (Kelvin)           1082.68  1263.04  1293.83  1306.81  1361.27
                             1610.92  1834.18  2050.70  2264.11  2491.76
                             4483.90  4670.27  4670.40

 Zero-point correction=                           0.052620 (Hartree/Particle)
 Thermal correction to Energy=                    0.057669
 Thermal correction to Enthalpy=                  0.058613
 Thermal correction to Gibbs Free Energy=         0.023941
 Sum of electronic and zero-point Energies=           -191.774410
 Sum of electronic and thermal Energies=              -191.769360
 Sum of electronic and thermal Enthalpies=            -191.768416
 Sum of electronic and thermal Free Energies=         -191.803089

                     E (Thermal)             CV                S
                      KCal/Mol        Cal/Mol-Kelvin    Cal/Mol-Kelvin
 Total                   36.188             16.477             72.975
 Electronic               0.000              0.000              2.183
 Translational            0.889              2.981             38.342
 Rotational               0.889              2.981             24.493
 Vibrational             34.411             10.516              7.958
 Vibration     1          0.607              1.940              3.236
 Vibration     2          0.647              1.811              1.962
 Vibration     3          0.783              1.425              0.890
 Vibration     4          0.839              1.288              0.702

 Optimization completed.
    -- Stationary point found.
 Normal termination of Gaussian 09 at Sun Jun 19 11:04:43 2016.
