 Gaussian 09, Revision E.01,
 Gaussian 09:  EM64L-G09RevE.01 30-Nov-2015

 ---------------------------------------------
 #p b3lyp/6-311++G(3df,2p) freq symmetry=Loose
 ---------------------------------------------

 ---------
 b3lyp opt
 ---------
 Symbolic Z-matrix:
 Charge =  1 Multiplicity = 1

                         Standard orientation:
 ---------------------------------------------------------------------
 Center     Atomic      Atomic             Coordinates (Angstroms)
 Number     Number       Type             X           Y           Z
 ---------------------------------------------------------------------
      1          6           0        0.000000    0.000000   -2.497393
      2          6           0       -0.000000    0.000000    0.070442
      3          6           0        0.000000    0.000000   -1.171515
      4          1           0       -0.932084    0.000000   -3.056822
      5          1           0        0.932084   -0.000000   -3.056822
      6          6           0       -0.000000    0.000000    1.393828
      7          6           0       -0.000000    0.000000    2.610214
      8          1           0       -0.000000    0.000000    3.680184
 ---------------------------------------------------------------------

 SCF Done:  E(RB3LYP) =  -191.938419613     A.U. after   13 cycles

 The electronic state is 1-A1.
 Alpha  occ. eigenvalues --  -10.47458 -10.46942 -10.44501 -10.44020 -10.42448
 Alpha  occ. eigenvalues --   -1.06238  -1.01489  -0.95301  -0.86059  -0.74813
 Alpha  occ. eigenvalues --   -0.73163  -0.69398  -0.60644  -0.58705  -0.52633
 Alpha  occ. eigenvalues --   -0.48409
 Alpha virt. eigenvalues --   -0.37604  -0.26025  -0.21301  -0.15095  -0.12150
 Alpha virt. eigenvalues --   -0.10938  -0.10668  -0.09084  -0.08402  -0.07548
 Alpha virt. eigenvalues --   -0.06576  -0.05930  -0.05330  -0.04613  -0.02394

 Mulliken charges:
               1
     1  C   -0.424111
     2  C   -0.940884
     3  C    1.081956
     4  H    0.255411
     5  H    0.255411
     6  C   -0.123762
     7  C    0.522175
     8  H    0.373804
 Sum of Mulliken charges =   1.00000

 Dipole moment (field-independent basis, Debye):
    X=              0.0000    Y=             -0.0000    Z=             -1.0281  Tot=              1.0281
 Quadrupole moment (field-independent basis, Debye-Ang):
   XX=            -26.1125   YY=            -26.7473   ZZ=             12.4424
   XY=             -0.0000   XZ=             -0.0000   YZ=              0.0000

  Exact polarizability:  31.301  -0.000  28.453   0.000  -0.000 137.267
 Approx polarizability:  42.741  -0.000  39.945  -0.000   0.000 331.949

                      1                      2                      3
                     B2                     B1                     B2
 Frequencies --    137.9240               149.5676               307.1609
 Red. masses --      3.8544                 3.5891                 4.8506
 Frc consts  --      0.0432                 0.0473                 0.2696
 IR Inten    --     13.8336                13.9189                 0.1518

                      4                      5                      6
                     B1                     B1                     B2
 Frequencies --    324.2953               544.4385               644.7503
 Red. masses --      3.6644                 8.0320                 8.2211
 Frc consts  --      0.2271                 1.4027                 2.0136
 IR Inten    --      0.1350                 1.9087                14.8241

                      7                      8                      9
                     B1                     A1                     B2
 Frequencies --    648.9179               760.3297               849.3420
 Red. masses --      1.2682                 5.5556                 1.3687
 Frc consts  --      0.3146                 1.8923                 0.5817
 IR Inten    --     46.3557                 9.9055                11.6291

                     10                     11                     12
                     B1                     B2                     A1
 Frequencies --   1017.7404              1068.5778              1367.4316
 Red. masses --      1.4520                 1.3455                 1.7550
 Frc consts  --      0.8861                 0.9052                 1.9335
 IR Inten    --      0.0127                19.0070                30.5383

                     13                     14                     15
                     A1                     A1                     A1
 Frequencies --   1508.2725              2099.4251              2209.7641
 Red. masses --      2.1537                 7.5511                 9.1959
 Frc consts  --      2.8867                19.6092                26.4568
 IR Inten    --      2.1887                 0.0009               943.1771

                     16                     17                     18
                     A1                     B1                     A1
 Frequencies --   3101.3345              3193.6861              3390.8796
 Red. masses --      1.0569                 1.1183                 1.1561
 Frc consts  --      5.9891                 6.7206                 7.8321
 IR Inten    --     46.0795                30.9958               140.5383

 - Thermochemistry -
 -------------------
 Temperature   298.150 Kelvin.  Pressure   1.00000 Atm.
 Atom     1 has atomic number  6 and mass  12.00000

 Molecular mass:    63.02348 amu.
 Principal axes and moments of inertia in atomic units:
                           1         2         3
     Eigenvalues --     6.25349 817.18840 823.44189
           X            0.00000   1.00000   0.00000
           Y            0.00000  -0.00000   1.00000
           Z            1.00000   0.00000  -0.00000
 This molecule is an asymmetric top.
 Rotational symmetry number  2.
 Rotational temperatures (Kelvin)     13.85047     0.10599     0.10519
 Rotational constants (GHZ):         288.59740     2.20848     2.19170
 Zero-point vibrational energy     139507.5 (Joules/Mol)
                                   33.34310 (Kcal/Mol)
 Warning -- explicit consideration of   5 degrees of freedom as
           vibrations may cause significant error
 Vibrational temperatures:    198.44   215.19   441.94   466.59   783.32
          (Kelvin)            927.65   933.65  1093.94  1222.01  1464.30
                             1537.44  1967.43  2170.06  3020.60  3179.35
                             4462.12  4595.00  4878.71

 Zero-point correction=                           0.053136 (Hartree/Particle)
 Thermal correction to Energy=                    0.058776
 Thermal correction to Enthalpy=                  0.059721
 Thermal correction to Gibbs Free Energy=         0.026457
 Sum of electronic and zero-point Energies=           -191.885284
 Sum of electronic and thermal Energies=              -191.879643
 Sum of electronic and thermal Enthalpies=            -191.878699
 Sum of electronic and thermal Free Energies=         -191.911963

                     E (Thermal)             CV                S
                      KCal/Mol        Cal/Mol-Kelvin    Cal/Mol-Kelvin
 Total                   36.883             18.250             70.010
 Electronic               0.000              0.000              0.000
 Translational            0.889              2.981             38.342
 Rotational               0.889              2.981             21.580
 Vibrational             35.105             12.288             10.088
 Vibration     1          0.614              1.915              2.832
 Vibration     2          0.618              1.903              2.678
 Vibration     3          0.697              1.660              1.378
 Vibration     4          0.709              1.627              1.288
 Vibration     5          0.900              1.152              0.556

 Optimization completed.
    -- Stationary point found.
 Normal termination of Gaussian 09 at Tue Jul 19 15:52:01 2016.
