 Gaussian 09, Revision E.01,
 Gaussian 09:  EM64L-G09RevE.01 30-Nov-2015

 ---------------------------------------------
 #p b3lyp/6-311++G(3df,2p) freq symmetry=Loose
 ---------------------------------------------

 ---------
 b3lyp opt
 ---------
 Symbolic Z-matrix:
 Charge =  0 Multiplicity = 4

                         Standard orientation:
 ---------------------------------------------------------------------
 Center     Atomic      Atomic             Coordinates (Angstroms)
 Number     Number       Type             X           Y           Z
 ---------------------------------------------------------------------
      1          6           0        0.000000    0.469176    0.000000
      2          6           0       -0.842250   -0.597902    0.000000
      3          1           0       -1.900955   -0.353089    0.000000
      4          6           0        1.382299    1.063734    0.000000
      5          6           0       -0.463368   -1.931102    0.000000
      6          6           0        0.345609    1.877324    0.000000
      7          1           0        0.576393   -2.223909    0.000000
      8          1           0       -1.209176   -2.710377    0.000000
 ---------------------------------------------------------------------

 SCF Done:  E(UB3LYP) =  -192.060020368     A.U. after   18 cycles

 The electronic state is 4-A".
 Alpha  occ. eigenvalues --  -10.28255 -10.27910 -10.25257 -10.19131 -10.17442
 Alpha  occ. eigenvalues --   -0.95475  -0.79752  -0.66567  -0.54423  -0.53279
 Alpha  occ. eigenvalues --   -0.47456  -0.44285  -0.42747  -0.39089  -0.37151
 Alpha  occ. eigenvalues --   -0.30735  -0.27961  -0.17581
 Alpha virt. eigenvalues --   -0.05068  -0.00074   0.01555   0.02589   0.02941
 Alpha virt. eigenvalues --    0.04249   0.05074   0.05364   0.07441   0.08670
 Alpha virt. eigenvalues --    0.08809   0.08939   0.10067   0.10902   0.12070

  Beta  occ. eigenvalues --  -10.26475 -10.26318 -10.23998 -10.19397 -10.16509
  Beta  occ. eigenvalues --   -0.92111  -0.78502  -0.63782  -0.52082  -0.47708
  Beta  occ. eigenvalues --   -0.43650  -0.41617  -0.39401  -0.37853  -0.27967
  Beta virt. eigenvalues --   -0.20922  -0.13940  -0.06866  -0.01579   0.00157
  Beta virt. eigenvalues --    0.01683   0.03220   0.04415   0.04844   0.05554
  Beta virt. eigenvalues --    0.05679   0.07682   0.09224   0.09286   0.09571

 Mulliken charges and spin densities:
               1          2
     1  C    0.371138   0.549426
     2  C   -0.114138  -0.164501
     3  H    0.152309   0.030016
     4  C    0.010350   1.155244
     5  C   -0.718317   0.736062
     6  C    0.001059   0.730956
     7  H    0.133747  -0.016644
     8  H    0.163851  -0.020560
 Sum of Mulliken charges =  -0.00000   3.00000

 Dipole moment (field-independent basis, Debye):
    X=             -0.2371    Y=              0.1228    Z=              0.0000  Tot=              0.2670
 Quadrupole moment (field-independent basis, Debye-Ang):
   XX=            -27.7189   YY=            -30.0426   ZZ=            -32.0682
   XY=             -0.5305   XZ=              0.0000   YZ=              0.0000

  Exact polarizability:  60.208  14.419  90.836   0.000   0.000  43.153
 Approx polarizability: 102.203  12.511 134.608  -0.000  -0.000  57.938

                      1                      2                      3
                     A"                     A'                     A"
 Frequencies --    171.2418               187.9775               268.0272
 Red. masses --      8.3167                 4.2114                 2.3569
 Frc consts  --      0.1437                 0.0877                 0.0998
 IR Inten    --      1.2373                 0.8587                 4.5161

                      4                      5                      6
                     A'                     A"                     A'
 Frequencies --    463.8124               525.5827               583.6914
 Red. masses --      6.6788                 1.4947                 5.6493
 Frc consts  --      0.8465                 0.2433                 1.1340
 IR Inten    --     20.3667                 3.5227                73.1933

                      7                      8                      9
                     A"                     A'                     A"
 Frequencies --    713.8956               741.6415               868.8693
 Red. masses --      1.3456                 3.7426                 1.1833
 Frc consts  --      0.4041                 1.2129                 0.5263
 IR Inten    --     48.6905                 8.0204                20.8414

                     10                     11                     12
                     A'                     A'                     A'
 Frequencies --   1041.1131              1209.3230              1341.1185
 Red. masses --      1.4710                 2.3104                 1.5408
 Frc consts  --      0.9394                 1.9908                 1.6328
 IR Inten    --      4.2984                 8.6447                23.7780

                     13                     14                     15
                     A'                     A'                     A'
 Frequencies --   1479.9929              1497.6848              1664.1486
 Red. masses --      7.0896                 1.3255                11.4726
 Frc consts  --      9.1493                 1.7517                18.7196
 IR Inten    --     13.5516                 8.9036                68.9422

                     16                     17                     18
                     A'                     A'                     A'
 Frequencies --   3115.9918              3153.3820              3250.5181
 Red. masses --      1.0844                 1.0539                 1.1177
 Frc consts  --      6.2035                 6.1744                 6.9577
 IR Inten    --      3.0799                 3.6667                 4.5447

 - Thermochemistry -
 -------------------
 Temperature   298.150 Kelvin.  Pressure   1.00000 Atm.
 Atom     1 has atomic number  6 and mass  12.00000

 Molecular mass:    63.02348 amu.
 Principal axes and moments of inertia in atomic units:
                           1         2         3
     Eigenvalues --    73.66477 499.24221 572.90698
           X            0.41143   0.91144   0.00000
           Y            0.91144  -0.41143   0.00000
           Z            0.00000  -0.00000   1.00000
 This molecule is an asymmetric top.
 Rotational symmetry number  1.
 Rotational temperatures (Kelvin)      1.17578     0.17349     0.15118
 Rotational constants (GHZ):          24.49938     3.61496     3.15015
 Zero-point vibrational energy     133252.1 (Joules/Mol)
                                   31.84802 (Kcal/Mol)
 Warning -- explicit consideration of   6 degrees of freedom as
           vibrations may cause significant error
 Vibrational temperatures:    246.38   270.46   385.63   667.32   756.20
          (Kelvin)            839.80  1027.14  1067.06  1250.11  1497.93
                             1739.94  1929.57  2129.38  2154.83  2394.34
                             4483.21  4537.01  4676.76

 Zero-point correction=                           0.050753 (Hartree/Particle)
 Thermal correction to Energy=                    0.056196
 Thermal correction to Enthalpy=                  0.057140
 Thermal correction to Gibbs Free Energy=         0.021674
 Sum of electronic and zero-point Energies=           -192.009267
 Sum of electronic and thermal Energies=              -192.003824
 Sum of electronic and thermal Enthalpies=            -192.002880
 Sum of electronic and thermal Free Energies=         -192.038346

                     E (Thermal)             CV                S
                      KCal/Mol        Cal/Mol-Kelvin    Cal/Mol-Kelvin
 Total                   35.264             17.977             74.645
 Electronic               0.000              0.000              2.755
 Translational            0.889              2.981             38.342
 Rotational               0.889              2.981             24.558
 Vibrational             33.486             12.015              8.990
 Vibration     1          0.626              1.878              2.422
 Vibration     2          0.633              1.856              2.248
 Vibration     3          0.673              1.732              1.609
 Vibration     4          0.821              1.330              0.755
 Vibration     5          0.881              1.193              0.597
 Vibration     6          0.941              1.067              0.479

 Optimization completed.
    -- Stationary point found.
 Normal termination of Gaussian 09 at Sun Jun 19 09:25:39 2016.
