 Gaussian 09, Revision E.01,
 Gaussian 09:  EM64L-G09RevE.01 30-Nov-2015

 ---------------------------------------------
 #p b3lyp/6-311++G(3df,2p) freq symmetry=Loose
 ---------------------------------------------

 ---------
 b3lyp opt
 ---------
 Symbolic Z-matrix:
 Charge =  0 Multiplicity = 2

                         Standard orientation:
 ---------------------------------------------------------------------
 Center     Atomic      Atomic             Coordinates (Angstroms)
 Number     Number       Type             X           Y           Z
 ---------------------------------------------------------------------
      1          6           0       -0.583758    0.163655   -0.000266
      2          6           0        0.819757   -0.160464   -0.000243
      3          6           0        2.010998   -0.340164   -0.000065
      4          1           0        3.057883   -0.521907    0.000936
      5          6           0       -0.410436    1.503557    0.000299
      6          6           0       -1.654518   -0.723540   -0.000045
      7          1           0       -2.665762   -0.348477    0.000989
      8          1           0       -1.484373   -1.787880    0.000009
 ---------------------------------------------------------------------

 SCF Done:  E(UB3LYP) =  -192.134188200     A.U. after   19 cycles

 The electronic state is 2-A.
 Alpha  occ. eigenvalues --  -10.25359 -10.22319 -10.22137 -10.21122 -10.20877
 Alpha  occ. eigenvalues --   -0.87426  -0.77232  -0.71887  -0.58874  -0.54226
 Alpha  occ. eigenvalues --   -0.49923  -0.43908  -0.39942  -0.32668  -0.31470
 Alpha  occ. eigenvalues --   -0.29945  -0.22720
 Alpha virt. eigenvalues --   -0.11640  -0.03443  -0.00542   0.00669   0.02253
 Alpha virt. eigenvalues --    0.02709   0.04732   0.05115   0.06346   0.06636
 Alpha virt. eigenvalues --    0.08218   0.09145   0.09784   0.10369   0.11259

  Beta  occ. eigenvalues --  -10.24560 -10.22602 -10.22094 -10.20948 -10.20115
  Beta  occ. eigenvalues --   -0.86883  -0.76907  -0.69673  -0.58440  -0.53961
  Beta  occ. eigenvalues --   -0.49365  -0.43143  -0.38617  -0.32576  -0.30322
  Beta  occ. eigenvalues --   -0.28213
  Beta virt. eigenvalues --   -0.10935  -0.10831  -0.01587  -0.00489   0.00721
  Beta virt. eigenvalues --    0.02320   0.02749   0.04769   0.05162   0.06676
  Beta virt. eigenvalues --    0.06937   0.08257   0.09281   0.10427   0.10558

 Mulliken charges and spin densities:
               1          2
     1  C    1.131249  -0.220317
     2  C   -0.423478   0.016441
     3  C   -0.064556  -0.038775
     4  H    0.298986   0.001656
     5  C   -0.564253   0.525548
     6  C   -0.745439   0.761926
     7  H    0.184952  -0.021898
     8  H    0.182540  -0.024580
 Sum of Mulliken charges =  -0.00000   1.00000

 Dipole moment (field-independent basis, Debye):
    X=              0.2897    Y=             -2.3432    Z=              0.0015  Tot=              2.3610
 Quadrupole moment (field-independent basis, Debye-Ang):
   XX=            -20.4469   YY=            -33.9243   ZZ=            -32.2034
   XY=             -0.5354   XZ=              0.0013   YZ=             -0.0020

  Exact polarizability:  85.206  -0.097  61.551  -0.001   0.004  39.289
 Approx polarizability: 140.688  -6.992 100.483  -0.004   0.012  55.036

                      1                      2                      3
                      A                      A                      A
 Frequencies --    115.8589               220.2257               275.1502
 Red. masses --      6.3997                 3.9255                 3.5594
 Frc consts  --      0.0506                 0.1122                 0.1588
 IR Inten    --      0.5674                 8.7547                 3.5038

                      4                      5                      6
                      A                      A                      A
 Frequencies --    439.9197               469.2837               555.6923
 Red. masses --      4.1806                 1.4212                 2.6829
 Frc consts  --      0.4767                 0.1844                 0.4881
 IR Inten    --      6.9794                 0.1522                 0.0742

                      7                      8                      9
                      A                      A                      A
 Frequencies --    605.0805               710.5569               749.2752
 Red. masses --      1.2335                 1.4489                 1.2791
 Frc consts  --      0.2661                 0.4310                 0.4231
 IR Inten    --     50.6633                49.5180                29.0250

                     10                     11                     12
                      A                      A                      A
 Frequencies --    811.7471              1017.0387              1216.9764
 Red. masses --      3.9566                 1.7436                 4.1123
 Frc consts  --      1.5361                 1.0626                 3.5884
 IR Inten    --      5.2085                 2.9064                 3.0498

                     13                     14                     15
                      A                      A                      A
 Frequencies --   1416.7855              1474.3511              2155.1044
 Red. masses --      8.4212                 1.2166                 6.1179
 Frc consts  --      9.9594                 1.5581                16.7414
 IR Inten    --      7.0148                 3.4996                 5.9647

                     16                     17                     18
                      A                      A                      A
 Frequencies --   3166.3638              3273.5684              3455.6193
 Red. masses --      1.0512                 1.1202                 1.1556
 Frc consts  --      6.2096                 7.0728                 8.1302
 IR Inten    --      2.2695                 0.2244                74.2334

 - Thermochemistry -
 -------------------
 Temperature   298.150 Kelvin.  Pressure   1.00000 Atm.
 Atom     1 has atomic number  6 and mass  12.00000

 Molecular mass:    63.02348 amu.
 Principal axes and moments of inertia in atomic units:
                           1         2         3
     Eigenvalues --   138.85524 408.51145 547.36666
           X            0.99964   0.02672   0.00002
           Y           -0.02672   0.99964  -0.00013
           Z           -0.00002   0.00013   1.00000
 This molecule is an asymmetric top.
 Rotational symmetry number  1.
 Rotational temperatures (Kelvin)      0.62377     0.21202     0.15824
 Rotational constants (GHZ):          12.99729     4.41785     3.29713
 Zero-point vibrational energy     132358.4 (Joules/Mol)
                                   31.63442 (Kcal/Mol)
 Warning -- explicit consideration of   7 degrees of freedom as
           vibrations may cause significant error
 Vibrational temperatures:    166.69   316.86   395.88   632.95   675.19
          (Kelvin)            799.52   870.57  1022.33  1078.04  1167.92
                             1463.29  1750.96  2038.44  2121.26  3100.71
                             4555.69  4709.93  4971.86

 Zero-point correction=                           0.050413 (Hartree/Particle)
 Thermal correction to Energy=                    0.056136
 Thermal correction to Enthalpy=                  0.057080
 Thermal correction to Gibbs Free Energy=         0.021544
 Sum of electronic and zero-point Energies=           -192.083776
 Sum of electronic and thermal Energies=              -192.078052
 Sum of electronic and thermal Enthalpies=            -192.077108
 Sum of electronic and thermal Free Energies=         -192.112644

                     E (Thermal)             CV                S
                      KCal/Mol        Cal/Mol-Kelvin    Cal/Mol-Kelvin
 Total                   35.226             19.197             74.793
 Electronic               0.000              0.000              1.377
 Translational            0.889              2.981             38.342
 Rotational               0.889              2.981             24.944
 Vibrational             33.449             13.236             10.130
 Vibration     1          0.608              1.936              3.168
 Vibration     2          0.647              1.810              1.957
 Vibration     3          0.677              1.719              1.564
 Vibration     4          0.800              1.383              0.827
 Vibration     5          0.826              1.318              0.740
 Vibration     6          0.911              1.127              0.533
 Vibration     7          0.964              1.021              0.441

 Optimization completed.
    -- Stationary point found.
 Normal termination of Gaussian 09 at Sun Jun 19 07:16:47 2016.
