 Gaussian 09, Revision E.01,
 Gaussian 09:  EM64L-G09RevE.01 30-Nov-2015

 ---------------------------------------------
 #p b3lyp/6-311++G(3df,2p) freq symmetry=Loose
 ---------------------------------------------

 ---------
 b3lyp opt
 ---------
 Symbolic Z-matrix:
 Charge =  2 Multiplicity = 2

                         Standard orientation:
 ---------------------------------------------------------------------
 Center     Atomic      Atomic             Coordinates (Angstroms)
 Number     Number       Type             X           Y           Z
 ---------------------------------------------------------------------
      1          6           0       -2.508598    0.000208    0.000418
      2          1           0       -3.078509   -0.942570    0.000458
      3          1           0       -3.078091    0.943223    0.000449
      4          6           0       -1.185940   -0.000223    0.000129
      5          6           0        0.086668   -0.000260   -0.000095
      6          6           0        1.382297   -0.000038   -0.000328
      7          6           0        2.631675    0.000145   -0.000253
      8          1           0        3.720002    0.000351   -0.000124
 ---------------------------------------------------------------------

 SCF Done:  E(UB3LYP) =  -191.373179258     A.U. after   16 cycles

 The electronic state is 2-A.
 Alpha  occ. eigenvalues --  -10.73761 -10.73681 -10.71797 -10.70111 -10.69258
 Alpha  occ. eigenvalues --   -1.31655  -1.26936  -1.20111  -1.11586  -0.98426
 Alpha  occ. eigenvalues --   -0.95503  -0.91516  -0.84795  -0.84167  -0.76533
 Alpha  occ. eigenvalues --   -0.74451
 Alpha virt. eigenvalues --   -0.60638  -0.52465  -0.45142  -0.33681  -0.31888
 Alpha virt. eigenvalues --   -0.29414  -0.29187  -0.28198  -0.24902  -0.24042
 Alpha virt. eigenvalues --   -0.23680  -0.22307  -0.21730  -0.20085  -0.19642

  Beta  occ. eigenvalues --  -10.73542 -10.72764 -10.71312 -10.70213 -10.69221
  Beta  occ. eigenvalues --   -1.30390  -1.25466  -1.18925  -1.10781  -0.97579
  Beta  occ. eigenvalues --   -0.95070  -0.90143  -0.84447  -0.80917  -0.75947
  Beta virt. eigenvalues --   -0.64562  -0.60314  -0.48309  -0.44727  -0.31729
  Beta virt. eigenvalues --   -0.31081  -0.28858  -0.28509  -0.27973  -0.24633
  Beta virt. eigenvalues --   -0.23655  -0.23617  -0.21742  -0.21334  -0.19898

 Mulliken charges and spin densities:
               1          2
     1  C   -0.248681  -0.049345
     2  H    0.315806   0.028306
     3  H    0.315871   0.028300
     4  C    1.028761   0.053196
     5  C   -0.684436   0.309171
     6  C    0.279813   0.252205
     7  C    0.554366   0.393772
     8  H    0.438501  -0.015605
 Sum of Mulliken charges =   2.00000   1.00000

 Dipole moment (field-independent basis, Debye):
    X=             -0.0452    Y=              0.0008    Z=              0.0005  Tot=              0.0453
 Quadrupole moment (field-independent basis, Debye-Ang):
   XX=             40.9835   YY=            -21.7781   ZZ=            -24.5431
   XY=              0.0005   XZ=             -0.0071   YZ=             -0.0000

  Exact polarizability: 132.228   0.001  26.471  -0.014  -0.000  24.231
 Approx polarizability: 326.151   0.006  36.726  -0.038  -0.000  33.610

                      1                      2                      3
                      A                      A                      A
 Frequencies --    140.3859               144.2094               301.8625
 Red. masses --      3.8519                 3.4730                 4.9858
 Frc consts  --      0.0447                 0.0426                 0.2677
 IR Inten    --     24.5594                20.8193                 0.1007

                      4                      5                      6
                      A                      A                      A
 Frequencies --    339.3795               540.3566               633.9447
 Red. masses --      2.9995                 4.3583                 8.0210
 Frc consts  --      0.2036                 0.7498                 1.8992
 IR Inten    --      0.1495                 5.1498                17.2767

                      7                      8                      9
                      A                      A                      A
 Frequencies --    724.4980               754.8035               813.4125
 Red. masses --      1.4249                 5.4943                 1.3582
 Frc consts  --      0.4407                 1.8443                 0.5295
 IR Inten    --     17.9117                 3.7767                15.5989

                     10                     11                     12
                      A                      A                      A
 Frequencies --    901.3241              1048.0116              1312.1386
 Red. masses --      1.6747                 1.3527                 1.2642
 Frc consts  --      0.8016                 0.8754                 1.2824
 IR Inten    --      4.0194                24.2555               173.4111

                     13                     14                     15
                      A                      A                      A
 Frequencies --   1417.7889              1866.6737              2099.5309
 Red. masses --      4.0505                 9.4509                 8.0660
 Frc consts  --      4.7972                19.4026                20.9484
 IR Inten    --     55.3704                 1.9981               738.8279

                     16                     17                     18
                      A                      A                      A
 Frequencies --   2960.8497              3047.6412              3211.5133
 Red. masses --      1.0519                 1.1149                 1.1546
 Frc consts  --      5.4333                 6.1012                 7.0163
 IR Inten    --    512.1394               180.5106               332.4600

 - Thermochemistry -
 -------------------
 Temperature   298.150 Kelvin.  Pressure   1.00000 Atm.
 Atom     1 has atomic number  6 and mass  12.00000

 Molecular mass:    63.02348 amu.
 Principal axes and moments of inertia in atomic units:
                           1         2         3
     Eigenvalues --     6.39944 826.61570 833.01514
           X            1.00000  -0.00000   0.00013
           Y            0.00000   1.00000   0.00000
           Z           -0.00013  -0.00000   1.00000
 This molecule is an asymmetric top.
 Rotational symmetry number  1.
 Rotational temperatures (Kelvin)     13.53460     0.10478     0.10398
 Rotational constants (GHZ):         282.01567     2.18329     2.16652
 Zero-point vibrational energy     133134.3 (Joules/Mol)
                                   31.81987 (Kcal/Mol)
 Warning -- explicit consideration of   5 degrees of freedom as
           vibrations may cause significant error
 Vibrational temperatures:    201.98   207.48   434.31   488.29   777.45
          (Kelvin)            912.10  1042.39  1085.99  1170.32  1296.80
                             1507.85  1887.87  2039.88  2685.72  3020.75
                             4260.00  4384.87  4620.65

 Zero-point correction=                           0.050708 (Hartree/Particle)
 Thermal correction to Energy=                    0.056357
 Thermal correction to Enthalpy=                  0.057301
 Thermal correction to Gibbs Free Energy=         0.022695
 Sum of electronic and zero-point Energies=           -191.322471
 Sum of electronic and thermal Energies=              -191.316822
 Sum of electronic and thermal Enthalpies=            -191.315878
 Sum of electronic and thermal Free Energies=         -191.350484

                     E (Thermal)             CV                S
                      KCal/Mol        Cal/Mol-Kelvin    Cal/Mol-Kelvin
 Total                   35.365             18.408             72.834
 Electronic               0.000              0.000              1.377
 Translational            0.889              2.981             38.342
 Rotational               0.889              2.981             23.004
 Vibrational             33.587             12.446             10.111
 Vibration     1          0.615              1.913              2.799
 Vibration     2          0.616              1.909              2.747
 Vibration     3          0.694              1.670              1.407
 Vibration     4          0.719              1.597              1.215
 Vibration     5          0.895              1.161              0.565

 Optimization completed.
    -- Stationary point found.
 Normal termination of Gaussian 09 at Sun Jun 19 11:35:11 2016.
