 Gaussian 09, Revision E.01,
 Gaussian 09:  EM64L-G09RevE.01 30-Nov-2015

 ---------------------------------------------
 #p b3lyp/6-311++G(3df,2p) freq symmetry=Loose
 ---------------------------------------------

 ---------
 b3lyp opt
 ---------
 Symbolic Z-matrix:
 Charge =  1 Multiplicity = 1

                         Standard orientation:
 ---------------------------------------------------------------------
 Center     Atomic      Atomic             Coordinates (Angstroms)
 Number     Number       Type             X           Y           Z
 ---------------------------------------------------------------------
      1          6           0       -0.000000    0.228856   -0.000000
      2          6           0        0.502715    1.510106   -0.000000
      3          1           0        0.332425    2.575791   -0.000000
      4          6           0       -0.847941   -1.950253    0.000000
      5          6           0        1.354707    0.470848    0.000000
      6          6           0       -1.103672   -0.655104    0.000000
      7          1           0        2.367946    0.098618    0.000000
      8          1           0       -2.135226   -0.301125   -0.000000
 ---------------------------------------------------------------------

 SCF Done:  E(RB3LYP) =  -191.872584356     A.U. after   13 cycles

 The electronic state is 1-A'.
 Alpha  occ. eigenvalues --  -10.50744 -10.48665 -10.48522 -10.48259 -10.41389
 Alpha  occ. eigenvalues --   -1.20545  -1.04155  -0.85448  -0.84048  -0.79631
 Alpha  occ. eigenvalues --   -0.73289  -0.66149  -0.63754  -0.61235  -0.52749
 Alpha  occ. eigenvalues --   -0.51388
 Alpha virt. eigenvalues --   -0.32587  -0.30129  -0.27646  -0.16170  -0.14933
 Alpha virt. eigenvalues --   -0.13829  -0.13557  -0.11898  -0.10180  -0.09482
 Alpha virt. eigenvalues --   -0.07959  -0.06657  -0.05852  -0.04600  -0.03840

 Mulliken charges:
               1
     1  C    0.134837
     2  C    0.050545
     3  H    0.318677
     4  C   -0.431847
     5  C    0.299359
     6  C    0.083899
     7  H    0.319885
     8  H    0.224645
 Sum of Mulliken charges =   1.00000

 Dipole moment (field-independent basis, Debye):
    X=              0.9533    Y=              3.2189    Z=             -0.0000  Tot=              3.3571
 Quadrupole moment (field-independent basis, Debye-Ang):
   XX=            -13.9882   YY=            -20.1284   ZZ=            -27.2730
   XY=              2.9760   XZ=              0.0000   YZ=              0.0000

  Exact polarizability:  50.053  10.686  61.179  -0.001   0.001  29.128
 Approx polarizability:  77.481  14.416 102.988   0.000  -0.000  43.635

                      1                      2                      3
                     A'                     A"                     A'
 Frequencies --    143.8867               155.7645               390.2584
 Red. masses --      7.5620                 4.0505                 3.3615
 Frc consts  --      0.0922                 0.0579                 0.3016
 IR Inten    --     14.2433                 2.4879                 5.9656

                      4                      5                      6
                     A"                     A"                     A'
 Frequencies --    438.9215               728.6709               813.5524
 Red. masses --      2.3803                 1.3951                 3.1312
 Frc consts  --      0.2702                 0.4364                 1.2211
 IR Inten    --     25.9579                 9.0971                 1.7023

                      7                      8                      9
                     A"                     A'                     A"
 Frequencies --    866.1182               987.0430               995.2042
 Red. masses --      1.5132                 1.2233                 1.4273
 Frc consts  --      0.6688                 0.7022                 0.8329
 IR Inten    --     54.0789                 4.4821                 0.0863

                     10                     11                     12
                     A'                     A'                     A'
 Frequencies --    996.2690              1070.4907              1265.4121
 Red. masses --      1.3604                 1.3555                 5.4480
 Frc consts  --      0.7955                 0.9152                 5.1399
 IR Inten    --      9.2426                 8.4763                35.2756

                     13                     14                     15
                     A'                     A'                     A'
 Frequencies --   1416.2724              1636.5129              1774.1646
 Red. masses --      6.9919                 7.8027                 7.0016
 Frc consts  --      8.2630                12.3121                12.9848
 IR Inten    --    187.6511               198.0901               189.9304

                     16                     17                     18
                     A'                     A'                     A'
 Frequencies --   3104.2018              3239.5969              3273.2270
 Red. masses --      1.0873                 1.0973                 1.1439
 Frc consts  --      6.1732                 6.7851                 7.2208
 IR Inten    --     80.0961                77.9740                55.4293

 - Thermochemistry -
 -------------------
 Temperature   298.150 Kelvin.  Pressure   1.00000 Atm.
 Atom     1 has atomic number  6 and mass  12.00000

 Molecular mass:    63.02348 amu.
 Principal axes and moments of inertia in atomic units:
                           1         2         3
     Eigenvalues --    86.17141 438.05494 524.22635
           X            0.59190   0.80601   0.00000
           Y            0.80601  -0.59190   0.00000
           Z            0.00000   0.00000   1.00000
 This molecule is an asymmetric top.
 Rotational symmetry number  1.
 Rotational temperatures (Kelvin)      1.00513     0.19772     0.16522
 Rotational constants (GHZ):          20.94362     4.11990     3.44268
 Zero-point vibrational energy     139338.4 (Joules/Mol)
                                   33.30268 (Kcal/Mol)
 Warning -- explicit consideration of   4 degrees of freedom as
           vibrations may cause significant error
 Vibrational temperatures:    207.02   224.11   561.49   631.51  1048.39
          (Kelvin)           1170.52  1246.15  1420.13  1431.88  1433.41
                             1540.20  1820.64  2037.70  2354.57  2552.62
                             4466.25  4661.05  4709.44

 Zero-point correction=                           0.053071 (Hartree/Particle)
 Thermal correction to Energy=                    0.058187
 Thermal correction to Enthalpy=                  0.059131
 Thermal correction to Gibbs Free Energy=         0.025365
 Sum of electronic and zero-point Energies=           -191.819513
 Sum of electronic and thermal Energies=              -191.814397
 Sum of electronic and thermal Enthalpies=            -191.813453
 Sum of electronic and thermal Free Energies=         -191.847220

                     E (Thermal)             CV                S
                      KCal/Mol        Cal/Mol-Kelvin    Cal/Mol-Kelvin
 Total                   36.513             16.397             71.067
 Electronic               0.000              0.000              0.000
 Translational            0.889              2.981             38.342
 Rotational               0.889              2.981             24.496
 Vibrational             34.735             10.436              8.229
 Vibration     1          0.616              1.909              2.752
 Vibration     2          0.620              1.896              2.601
 Vibration     3          0.758              1.491              0.999
 Vibration     4          0.799              1.385              0.830

 Optimization completed.
    -- Stationary point found.
 Normal termination of Gaussian 09 at Tue Jul 19 17:28:55 2016.
