 Gaussian 09, Revision E.01,
 Gaussian 09:  EM64L-G09RevE.01 30-Nov-2015

 ---------------------------------------------
 #p b3lyp/6-311++G(3df,2p) freq symmetry=Loose
 ---------------------------------------------

 ---------
 b3lyp opt
 ---------
 Symbolic Z-matrix:
 Charge =  3 Multiplicity = 3

                         Standard orientation:
 ---------------------------------------------------------------------
 Center     Atomic      Atomic             Coordinates (Angstroms)
 Number     Number       Type             X           Y           Z
 ---------------------------------------------------------------------
      1          6           0       -0.778527   -0.836730    0.000664
      2          6           0       -0.752494    0.851386   -0.000809
      3          6           0       -1.883373    0.023540    0.000299
      4          6           0        0.375185   -0.010116   -0.000298
      5          6           0        1.817324   -0.125188   -0.000427
      6          1           0        2.485896    0.836241    0.510223
      7          1           0        2.358060   -1.092579   -0.002906
      8          1           0        2.487357    0.838985   -0.503893
 ---------------------------------------------------------------------

 SCF Done:  E(UB3LYP) =  -190.300921115     A.U. after   18 cycles

 The electronic state is 3-A.
 Alpha  occ. eigenvalues --  -11.07580 -11.06852 -11.04634 -11.04619 -11.03267
 Alpha  occ. eigenvalues --   -1.75338  -1.55867  -1.44094  -1.33123  -1.29992
 Alpha  occ. eigenvalues --   -1.21721  -1.17940  -1.16435  -1.09493  -1.07056
 Alpha  occ. eigenvalues --   -1.01525
 Alpha virt. eigenvalues --   -0.87566  -0.81980  -0.79505  -0.66849  -0.66760
 Alpha virt. eigenvalues --   -0.56875  -0.56417  -0.53783  -0.50316  -0.47400
 Alpha virt. eigenvalues --   -0.44263  -0.43438  -0.42304  -0.41738  -0.40296

  Beta  occ. eigenvalues --  -11.06715 -11.05254 -11.04293 -11.04260 -11.02182
  Beta  occ. eigenvalues --   -1.74493  -1.52988  -1.41731  -1.32103  -1.28272
  Beta  occ. eigenvalues --   -1.20532  -1.15657  -1.15529  -1.02860
  Beta virt. eigenvalues --   -0.94910  -0.86403  -0.82282  -0.80912  -0.77532
  Beta virt. eigenvalues --   -0.65141  -0.63044  -0.55602  -0.53265  -0.52766
  Beta virt. eigenvalues --   -0.49844  -0.46067  -0.43736  -0.43084  -0.40946

 Mulliken charges and spin densities:
               1          2
     1  C    1.092446   0.191346
     2  C    1.233918   0.212971
     3  C   -0.172569   0.937020
     4  C    0.251000  -0.047120
     5  C   -0.482669   0.619618
     6  H    0.339321   0.051262
     7  H    0.399326  -0.016687
     8  H    0.339227   0.051590
 Sum of Mulliken charges =   3.00000   2.00000

 Dipole moment (field-independent basis, Debye):
    X=              6.2668    Y=              1.4995    Z=              0.0066  Tot=              6.4438
 Quadrupole moment (field-independent basis, Debye-Ang):
   XX=             27.6702   YY=            -14.6805   ZZ=            -20.2788
   XY=              4.2440   XZ=              0.0166   YZ=              0.0108

  Exact polarizability:  67.166   1.829  37.714   0.005  -0.003  22.985
 Approx polarizability: 118.998   3.669  96.017   0.001  -0.042  35.298

                      1                      2                      3
                      A                      A                      A
 Frequencies --    213.0579               235.9905               266.8758
 Red. masses --      1.1294                 1.3797                 2.5584
 Frc consts  --      0.0302                 0.0453                 0.1074
 IR Inten    --     13.2841                11.6817                33.6619

                      4                      5                      6
                      A                      A                      A
 Frequencies --    341.1801               556.5661               585.8038
 Red. masses --      2.6867                 7.6365                 4.9415
 Frc consts  --      0.1843                 1.3937                 0.9991
 IR Inten    --     32.6461                65.3237                28.1610

                      7                      8                      9
                      A                      A                      A
 Frequencies --    709.2643               780.6543               821.9562
 Red. masses --      3.2269                 1.6436                 5.1017
 Frc consts  --      0.9564                 0.5901                 2.0308
 IR Inten    --     14.3706                86.5017                 5.2053

                     10                     11                     12
                      A                      A                      A
 Frequencies --    944.0197              1217.2670              1258.3481
 Red. masses --      2.7090                10.0528                 1.2071
 Frc consts  --      1.4224                 8.7762                 1.1262
 IR Inten    --     10.1535                 8.5969               437.9973

                     13                     14                     15
                      A                      A                      A
 Frequencies --   1385.8783              1456.1169              1553.4661
 Red. masses --     11.0379                 1.6471                 1.0227
 Frc consts  --     12.4907                 2.0577                 1.4541
 IR Inten    --    225.4869               388.5779               263.0091

                     16                     17                     18
                      A                      A                      A
 Frequencies --   1574.6798              2235.8203              2955.8156
 Red. masses --      2.2367                 1.0587                 1.0978
 Frc consts  --      3.2677                 3.1181                 5.6512
 IR Inten    --     16.1236               377.1323               327.7923

 - Thermochemistry -
 -------------------
 Temperature   298.150 Kelvin.  Pressure   1.00000 Atm.
 Atom     1 has atomic number  6 and mass  12.00000

 Molecular mass:    63.02348 amu.
 Principal axes and moments of inertia in atomic units:
                           1         2         3
     Eigenvalues --    72.84089 413.27560 482.41486
           X            0.99985   0.01724   0.00008
           Y           -0.01724   0.99985   0.00037
           Z           -0.00007  -0.00037   1.00000
 This molecule is an asymmetric top.
 Rotational symmetry number  1.
 Rotational temperatures (Kelvin)      1.18908     0.20958     0.17954
 Rotational constants (GHZ):          24.77648     4.36692     3.74106
 Zero-point vibrational energy     114200.1 (Joules/Mol)
                                   27.29447 (Kcal/Mol)
 Warning -- explicit consideration of   6 degrees of freedom as
           vibrations may cause significant error
 Vibrational temperatures:    306.54   339.54   383.97   490.88   800.77
          (Kelvin)            842.84  1020.47  1123.19  1182.61  1358.23
                             1751.37  1810.48  1993.97  2095.02  2235.09
                             2265.61  3216.84  4252.75

 Zero-point correction=                           0.043497 (Hartree/Particle)
 Thermal correction to Energy=                    0.048925
 Thermal correction to Enthalpy=                  0.049870
 Thermal correction to Gibbs Free Energy=         0.015023
 Sum of electronic and zero-point Energies=           -190.257425
 Sum of electronic and thermal Energies=              -190.251996
 Sum of electronic and thermal Enthalpies=            -190.251051
 Sum of electronic and thermal Free Energies=         -190.285898

                     E (Thermal)             CV                S
                      KCal/Mol        Cal/Mol-Kelvin    Cal/Mol-Kelvin
 Total                   30.701             18.322             73.341
 Electronic               0.000              0.000              2.183
 Translational            0.889              2.981             38.342
 Rotational               0.889              2.981             24.189
 Vibrational             28.924             12.360              8.628
 Vibration     1          0.644              1.821              2.017
 Vibration     2          0.655              1.786              1.833
 Vibration     3          0.672              1.734              1.616
 Vibration     4          0.721              1.593              1.207
 Vibration     5          0.912              1.125              0.531
 Vibration     6          0.943              1.062              0.475

 Normal termination of Gaussian 09 at Sun Jun 19 14:28:47 2016.
