 Gaussian 09, Revision E.01,
 Gaussian 09:  EM64L-G09RevE.01 30-Nov-2015

 ---------------------------------------------
 #p b3lyp/6-311++G(3df,2p) freq symmetry=Loose
 ---------------------------------------------

 ---------
 b3lyp opt
 ---------
 Symbolic Z-matrix:
 Charge =  2 Multiplicity = 2

                         Standard orientation:
 ---------------------------------------------------------------------
 Center     Atomic      Atomic             Coordinates (Angstroms)
 Number     Number       Type             X           Y           Z
 ---------------------------------------------------------------------
      1          6           0       -1.012011    0.012468   -0.000651
      2          6           0        0.284240    0.003912   -0.000215
      3          6           0        1.543649   -0.003609    0.000017
      4          6           0        2.944157   -0.001918    0.000211
      5          6           0       -2.372188    0.019229   -0.000482
      6          1           0       -2.831486    1.027006   -0.003672
      7          1           0       -2.750006   -0.609615   -0.860590
      8          1           0       -2.745589   -0.597883    0.870982
 ---------------------------------------------------------------------

 SCF Done:  E(UB3LYP) =  -191.232611437     A.U. after   32 cycles

 The electronic state is 2-A.
 Alpha  occ. eigenvalues --  -10.79846 -10.78671 -10.73733 -10.73229 -10.65486
 Alpha  occ. eigenvalues --   -1.33978  -1.28112  -1.21359  -1.13801  -0.95916
 Alpha  occ. eigenvalues --   -0.91952  -0.89855  -0.84658  -0.82681  -0.77539
 Alpha  occ. eigenvalues --   -0.74331
 Alpha virt. eigenvalues --   -0.67261  -0.55680  -0.53284  -0.36101  -0.35125
 Alpha virt. eigenvalues --   -0.34222  -0.29671  -0.28705  -0.26626  -0.26027
 Alpha virt. eigenvalues --   -0.24611  -0.23529  -0.22605  -0.21519  -0.21028

  Beta  occ. eigenvalues --  -10.79180 -10.78077 -10.73423 -10.73272 -10.65501
  Beta  occ. eigenvalues --   -1.32865  -1.26843  -1.20093  -1.12836  -0.95369
  Beta  occ. eigenvalues --   -0.89889  -0.89660  -0.82533  -0.82216  -0.76357
  Beta virt. eigenvalues --   -0.66436  -0.64771  -0.52616  -0.51008  -0.34751
  Beta virt. eigenvalues --   -0.34077  -0.33288  -0.29468  -0.27631  -0.26608
  Beta virt. eigenvalues --   -0.25849  -0.24477  -0.23063  -0.22305  -0.21199

 Mulliken charges and spin densities:
               1          2
     1  C    0.416950   0.178694
     2  C   -0.189087   0.201502
     3  C    1.122288   0.293649
     4  C   -0.008733   0.264259
     5  C   -0.219471  -0.001310
     6  H    0.282414   0.047495
     7  H    0.297663   0.008484
     8  H    0.297974   0.007227
 Sum of Mulliken charges =   2.00000   1.00000

 Dipole moment (field-independent basis, Debye):
    X=             -3.0324    Y=             -0.3122    Z=              0.0095  Tot=              3.0484
 Quadrupole moment (field-independent basis, Debye-Ang):
   XX=             22.2498   YY=            -22.5199   ZZ=            -21.6005
   XY=              0.8467   XZ=             -0.0252   YZ=             -0.0083

  Exact polarizability: 130.446   0.861  30.425  -0.020   0.017  30.093
 Approx polarizability: 310.046   3.640  43.153  -0.091  -0.016  44.994

                      1                      2                      3
                      A                      A                      A
 Frequencies --     83.2228                92.2066               115.1223
 Red. masses --      1.2935                 7.2599                 5.8943
 Frc consts  --      0.0053                 0.0364                 0.0460
 IR Inten    --     77.9762                 0.0247                38.5990

                      4                      5                      6
                      A                      A                      A
 Frequencies --    245.8884               290.5423               443.0143
 Red. masses --      3.9990                 9.0917                 5.3870
 Frc consts  --      0.1425                 0.4522                 0.6229
 IR Inten    --     12.1890                 3.6404                 0.2424

                      7                      8                      9
                      A                      A                      A
 Frequencies --    617.6718               685.2375               850.5315
 Red. masses --      5.2812                 5.5161                 1.5757
 Frc consts  --      1.1871                 1.5260                 0.6716
 IR Inten    --     62.4671                66.3423                61.4485

                     10                     11                     12
                      A                      A                      A
 Frequencies --   1061.5426              1064.8276              1140.0161
 Red. masses --      1.1995                 1.1624                 3.0171
 Frc consts  --      0.7964                 0.7766                 2.3103
 IR Inten    --    265.3909               155.5320                86.4149

                     13                     14                     15
                      A                      A                      A
 Frequencies --   1303.5003              1677.9258              2149.8254
 Red. masses --      1.2658                11.4418                11.9623
 Frc consts  --      1.2671                18.9797                32.5739
 IR Inten    --     19.2530              1032.1352                54.9334

                     16                     17                     18
                      A                      A                      A
 Frequencies --   2641.9366              2720.6026              2916.7787
 Red. masses --      1.0630                 1.0504                 1.0845
 Frc consts  --      4.3715                 4.5808                 5.4363
 IR Inten    --    266.3136              1133.1349               265.3343

 - Thermochemistry -
 -------------------
 Temperature   298.150 Kelvin.  Pressure   1.00000 Atm.
 Atom     1 has atomic number  6 and mass  12.00000

 Molecular mass:    63.02348 amu.
 Principal axes and moments of inertia in atomic units:
                           1         2         3
     Eigenvalues --    11.83507 846.79041 847.83388
           X            1.00000   0.00184  -0.00006
           Y           -0.00184   1.00000   0.00022
           Z            0.00006  -0.00022   1.00000
 This molecule is an asymmetric top.
 Rotational symmetry number  1.
 Rotational temperatures (Kelvin)      7.31840     0.10228     0.10216
 Rotational constants (GHZ):         152.49095     2.13127     2.12865
 Zero-point vibrational energy     120227.0 (Joules/Mol)
                                   28.73495 (Kcal/Mol)
 Warning -- explicit consideration of   7 degrees of freedom as
           vibrations may cause significant error
 Vibrational temperatures:    119.74   132.66   165.64   353.78   418.03
          (Kelvin)            637.40   888.69   985.90  1223.72  1527.32
                             1532.05  1640.23  1875.44  2414.16  3093.12
                             3801.15  3914.34  4196.59

 Zero-point correction=                           0.045792 (Hartree/Particle)
 Thermal correction to Energy=                    0.052469
 Thermal correction to Enthalpy=                  0.053413
 Thermal correction to Gibbs Free Energy=         0.015794
 Sum of electronic and zero-point Energies=           -191.186819
 Sum of electronic and thermal Energies=              -191.180143
 Sum of electronic and thermal Enthalpies=            -191.179199
 Sum of electronic and thermal Free Energies=         -191.216817

                     E (Thermal)             CV                S
                      KCal/Mol        Cal/Mol-Kelvin    Cal/Mol-Kelvin
 Total                   32.925             20.143             79.175
 Electronic               0.000              0.000              1.377
 Translational            0.889              2.981             38.342
 Rotational               0.889              2.981             23.656
 Vibrational             31.147             14.181             15.800
 Vibration     1          0.600              1.961              3.813
 Vibration     2          0.602              1.955              3.613
 Vibration     3          0.608              1.937              3.181
 Vibration     4          0.660              1.770              1.760
 Vibration     5          0.687              1.691              1.471
 Vibration     6          0.803              1.376              0.817
 Vibration     7          0.977              0.995              0.420

 Normal termination of Gaussian 09 at Sun Jun 19 11:22:16 2016.
