 Gaussian 09, Revision E.01,
 Gaussian 09:  EM64L-G09RevE.01 30-Nov-2015

 ---------------------------------------------
 #p b3lyp/6-311++G(3df,2p) freq symmetry=Loose
 ---------------------------------------------

 ---------
 b3lyp opt
 ---------
 Symbolic Z-matrix:
 Charge =  0 Multiplicity = 4

                         Standard orientation:
 ---------------------------------------------------------------------
 Center     Atomic      Atomic             Coordinates (Angstroms)
 Number     Number       Type             X           Y           Z
 ---------------------------------------------------------------------
      1          6           0        0.153322    1.916442   -0.000000
      2          1           0        0.925435    2.663831   -0.000000
      3          6           0       -0.000000    0.622791   -0.000000
      4          6           0        0.852124   -0.626649    0.000000
      5          1           0        1.919649   -0.796998    0.000000
      6          6           0       -0.281576   -1.458412    0.000000
      7          1           0       -0.426470   -2.525310    0.000000
      8          6           0       -1.126972   -0.344425   -0.000000
 ---------------------------------------------------------------------

 SCF Done:  E(UB3LYP) =  -192.095701156     A.U. after   16 cycles

 The electronic state is 4-A".
 Alpha  occ. eigenvalues --  -10.22978 -10.21494 -10.21321 -10.20919 -10.20590
 Alpha  occ. eigenvalues --   -0.91390  -0.75958  -0.65659  -0.61568  -0.52189
 Alpha  occ. eigenvalues --   -0.48376  -0.43700  -0.41355  -0.40756  -0.29769
 Alpha  occ. eigenvalues --   -0.27000  -0.24084  -0.20924
 Alpha virt. eigenvalues --   -0.04878  -0.00289   0.00748   0.02142   0.04414
 Alpha virt. eigenvalues --    0.05110   0.05711   0.06974   0.07074   0.08175
 Alpha virt. eigenvalues --    0.09674   0.09979   0.11052   0.11333   0.11413

  Beta  occ. eigenvalues --  -10.21458 -10.21169 -10.20455 -10.20212 -10.18989
  Beta  occ. eigenvalues --   -0.89016  -0.73672  -0.61313  -0.60323  -0.50918
  Beta  occ. eigenvalues --   -0.44231  -0.41054  -0.39944  -0.37624  -0.25670
  Beta virt. eigenvalues --   -0.12634  -0.08762  -0.07247  -0.03548  -0.00185
  Beta virt. eigenvalues --    0.00830   0.02529   0.04809   0.05738   0.06795
  Beta virt. eigenvalues --    0.07224   0.07721   0.08529   0.10401   0.10764

 Mulliken charges and spin densities:
               1          2
     1  C   -0.568020   1.039629
     2  H    0.213057   0.013610
     3  C    0.136673  -0.263781
     4  C    0.046482   0.874324
     5  H    0.245592   0.020818
     6  C   -0.289849  -0.374623
     7  H    0.240168   0.007294
     8  C   -0.024102   1.682728
 Sum of Mulliken charges =  -0.00000   3.00000

 Dipole moment (field-independent basis, Debye):
    X=              1.5196    Y=             -0.8908    Z=              0.0000  Tot=              1.7614
 Quadrupole moment (field-independent basis, Debye-Ang):
   XX=            -28.7434   YY=            -25.1226   ZZ=            -32.0923
   XY=              1.8675   XZ=             -0.0000   YZ=             -0.0000

  Exact polarizability:  57.140   3.533  82.051  -0.000  -0.000  38.411
 Approx polarizability:  90.325   5.902 133.604   0.000  -0.000  54.789

                      1                      2                      3
                     A"                     A'                     A"
 Frequencies --    261.5125               339.9892               561.5325
 Red. masses --      3.4705                 2.4853                 1.2629
 Frc consts  --      0.1398                 0.1693                 0.2346
 IR Inten    --      8.6844                 4.6715                38.4782

                      4                      5                      6
                     A"                     A"                     A'
 Frequencies --    642.8921               677.2571               716.9890
 Red. masses --      1.4308                 3.6825                 2.0773
 Frc consts  --      0.3484                 0.9952                 0.6292
 IR Inten    --     50.0974                14.2635                14.6230

                      7                      8                      9
                     A'                     A'                     A"
 Frequencies --    751.0298               835.8351               862.1006
 Red. masses --      5.0645                 3.5691                 1.3066
 Frc consts  --      1.6831                 1.4691                 0.5722
 IR Inten    --      1.5285                 8.7571                11.4899

                     10                     11                     12
                     A'                     A'                     A'
 Frequencies --    935.1782               972.1340              1114.3229
 Red. masses --      1.9157                 4.1527                 1.8492
 Frc consts  --      0.9871                 2.3122                 1.3529
 IR Inten    --     19.1598                 2.8498                 1.5343

                     13                     14                     15
                     A'                     A'                     A'
 Frequencies --   1246.3250              1363.1954              1711.8368
 Red. masses --      1.6856                 4.9211                 8.3833
 Frc consts  --      1.5426                 5.3880                14.4741
 IR Inten    --      5.0024                 0.0101                 6.5029

                     16                     17                     18
                     A'                     A'                     A'
 Frequencies --   3187.4910              3252.4360              3277.9670
 Red. masses --      1.0913                 1.1023                 1.1048
 Frc consts  --      6.5327                 6.8699                 6.9944
 IR Inten    --      1.4678                 0.2541                 4.5978

 - Thermochemistry -
 -------------------
 Temperature   298.150 Kelvin.  Pressure   1.00000 Atm.
 Atom     1 has atomic number  6 and mass  12.00000

 Molecular mass:    63.02348 amu.
 Principal axes and moments of inertia in atomic units:
                           1         2         3
     Eigenvalues --   102.46506 341.97351 444.43857
           X            0.13171   0.99129   0.00000
           Y            0.99129  -0.13171   0.00000
           Z            0.00000   0.00000   1.00000
 This molecule is an asymmetric top.
 Rotational symmetry number  1.
 Rotational temperatures (Kelvin)      0.84530     0.25328     0.19488
 Rotational constants (GHZ):          17.61324     5.27743     4.06072
 Zero-point vibrational energy     135836.1 (Joules/Mol)
                                   32.46561 (Kcal/Mol)
 Warning -- explicit consideration of   3 degrees of freedom as
           vibrations may cause significant error
 Vibrational temperatures:    376.26   489.17   807.92   924.98   974.42
          (Kelvin)           1031.59  1080.56  1202.58  1240.37  1345.51
                             1398.68  1603.26  1793.18  1961.33  2462.95
                             4586.08  4679.52  4716.26

 Zero-point correction=                           0.051737 (Hartree/Particle)
 Thermal correction to Energy=                    0.056322
 Thermal correction to Enthalpy=                  0.057267
 Thermal correction to Gibbs Free Energy=         0.023684
 Sum of electronic and zero-point Energies=           -192.043964
 Sum of electronic and thermal Energies=              -192.039379
 Sum of electronic and thermal Enthalpies=            -192.038435
 Sum of electronic and thermal Free Energies=         -192.072017

                     E (Thermal)             CV                S
                      KCal/Mol        Cal/Mol-Kelvin    Cal/Mol-Kelvin
 Total                   35.343             16.372             70.680
 Electronic               0.000              0.000              2.755
 Translational            0.889              2.981             38.342
 Rotational               0.889              2.981             24.258
 Vibrational             33.565             10.410              5.325
 Vibration     1          0.669              1.743              1.652
 Vibration     2          0.720              1.596              1.212
 Vibration     3          0.917              1.115              0.521

 Optimization completed.
    -- Stationary point found.
 Normal termination of Gaussian 09 at Sun Jun 19 08:56:50 2016.
