 Gaussian 09, Revision E.01,
 Gaussian 09:  EM64L-G09RevE.01 30-Nov-2015

 ---------------------------------------------
 #p b3lyp/6-311++G(3df,2p) freq symmetry=Loose
 ---------------------------------------------

 ---------
 b3lyp opt
 ---------
 Symbolic Z-matrix:
 Charge =  1 Multiplicity = 1

                         Standard orientation:
 ---------------------------------------------------------------------
 Center     Atomic      Atomic             Coordinates (Angstroms)
 Number     Number       Type             X           Y           Z
 ---------------------------------------------------------------------
      1          6           0        0.373027    1.386322   -0.000054
      2          6           0        0.973282    0.092907    0.000045
      3          6           0       -0.435827    0.252749   -0.000111
      4          6           0        1.799878   -0.980284   -0.000004
      5          6           0       -1.690634   -0.457973   -0.000231
      6          1           0       -2.259340   -0.116700    0.877038
      7          1           0       -2.266486   -0.106769   -0.868711
      8          1           0       -1.592534   -1.538853   -0.006195
 ---------------------------------------------------------------------

 SCF Done:  E(RB3LYP) =  -191.757284138     A.U. after   14 cycles

 The electronic state is 1-A.
 Alpha  occ. eigenvalues --  -10.55707 -10.54932 -10.50807 -10.50324 -10.43021
 Alpha  occ. eigenvalues --   -1.21742  -1.02066  -1.00491  -0.77735  -0.74100
 Alpha  occ. eigenvalues --   -0.70090  -0.66134  -0.64436  -0.62757  -0.56940
 Alpha  occ. eigenvalues --   -0.51711
 Alpha virt. eigenvalues --   -0.43545  -0.36227  -0.27942  -0.20975  -0.17549
 Alpha virt. eigenvalues --   -0.11960  -0.11404  -0.11361  -0.09674  -0.09350
 Alpha virt. eigenvalues --   -0.09043  -0.07689  -0.06308  -0.06149  -0.05249

 Mulliken charges:
               1
     1  C   -0.133840
     2  C    0.765739
     3  C    0.357928
     4  C   -0.375394
     5  C   -0.270117
     6  H    0.227751
     7  H    0.227490
     8  H    0.200444
 Sum of Mulliken charges =   1.00000

 Dipole moment (field-independent basis, Debye):
    X=             -2.0023    Y=             -1.1248    Z=              0.0028  Tot=              2.2966
 Quadrupole moment (field-independent basis, Debye-Ang):
   XX=            -15.5532   YY=            -27.7267   ZZ=            -24.4306
   XY=              0.9464   XZ=             -0.0055   YZ=             -0.0009

  Exact polarizability:  68.735  -9.480  55.743  -0.014  -0.006  34.276
 Approx polarizability: 139.848 -56.054 134.501  -0.028  -0.011  54.371

                      1                      2                      3
                      A                      A                      A
 Frequencies --     77.7911               171.0286               226.2491
 Red. masses --      1.0768                 6.6798                11.3245
 Frc consts  --      0.0038                 0.1151                 0.3415
 IR Inten    --      1.9116                 1.1925                22.8991

                      4                      5                      6
                      A                      A                      A
 Frequencies --    382.0514               399.7382               742.4775
 Red. masses --      3.6954                 2.9697                 5.3478
 Frc consts  --      0.3178                 0.2796                 1.7370
 IR Inten    --      1.5375                 0.3282                 2.4010

                      7                      8                      9
                      A                      A                      A
 Frequencies --    839.6646               939.8060               956.8627
 Red. masses --      5.0706                 7.7674                 1.5826
 Frc consts  --      2.1063                 4.0421                 0.8537
 IR Inten    --      1.6998                99.0075                 5.7129

                     10                     11                     12
                      A                      A                      A
 Frequencies --   1074.0482              1332.0877              1406.9928
 Red. masses --      1.7780                 1.1141                 1.0420
 Frc consts  --      1.2085                 1.1647                 1.2154
 IR Inten    --     54.9852                66.1355                17.9010

                     13                     14                     15
                      A                      A                      A
 Frequencies --   1431.0309              1475.8368              1650.5808
 Red. masses --      1.1210                 9.8383                10.7393
 Frc consts  --      1.3525                12.6255                17.2385
 IR Inten    --     17.9349                65.4827               530.8453

                     16                     17                     18
                      A                      A                      A
 Frequencies --   2976.1790              3012.1642              3156.9524
 Red. masses --      1.0415                 1.0929                 1.0986
 Frc consts  --      5.4353                 5.8424                 6.4512
 IR Inten    --    135.6388                30.9417                13.5182

 - Thermochemistry -
 -------------------
 Temperature   298.150 Kelvin.  Pressure   1.00000 Atm.
 Atom     1 has atomic number  6 and mass  12.00000

 Molecular mass:    63.02348 amu.
 Principal axes and moments of inertia in atomic units:
                           1         2         3
     Eigenvalues --   148.99035 365.95451 503.97585
           X            0.99869   0.05112  -0.00003
           Y           -0.05112   0.99869  -0.00001
           Z            0.00003   0.00001   1.00000
 This molecule is an asymmetric top.
 Rotational symmetry number  1.
 Rotational temperatures (Kelvin)      0.58134     0.23668     0.17186
 Rotational constants (GHZ):          12.11314     4.93160     3.58101
 Zero-point vibrational energy     133093.8 (Joules/Mol)
                                   31.81018 (Kcal/Mol)
 Warning -- explicit consideration of   5 degrees of freedom as
           vibrations may cause significant error
 Vibrational temperatures:    111.92   246.07   325.52   549.69   575.13
          (Kelvin)           1068.26  1208.09  1352.17  1376.71  1545.31
                             1916.57  2024.35  2058.93  2123.40  2374.81
                             4282.05  4333.83  4542.14

 Zero-point correction=                           0.050693 (Hartree/Particle)
 Thermal correction to Energy=                    0.056382
 Thermal correction to Enthalpy=                  0.057326
 Thermal correction to Gibbs Free Energy=         0.022048
 Sum of electronic and zero-point Energies=           -191.706591
 Sum of electronic and thermal Energies=              -191.700902
 Sum of electronic and thermal Enthalpies=            -191.699958
 Sum of electronic and thermal Free Energies=         -191.735237

                     E (Thermal)             CV                S
                      KCal/Mol        Cal/Mol-Kelvin    Cal/Mol-Kelvin
 Total                   35.380             17.557             74.250
 Electronic               0.000              0.000              0.000
 Translational            0.889              2.981             38.342
 Rotational               0.889              2.981             24.822
 Vibrational             33.603             11.595             11.086
 Vibration     1          0.599              1.964              3.946
 Vibration     2          0.626              1.878              2.424
 Vibration     3          0.650              1.801              1.909
 Vibration     4          0.752              1.508              1.031
 Vibration     5          0.766              1.471              0.964

 Normal termination of Gaussian 09 at Sun Jun 19 09:37:01 2016.
