 Gaussian 09, Revision E.01,
 Gaussian 09:  EM64L-G09RevE.01 30-Nov-2015

 ---------------------------------------------
 #p b3lyp/6-311++G(3df,2p) freq symmetry=Loose
 ---------------------------------------------

 ---------
 b3lyp opt
 ---------
 Symbolic Z-matrix:
 Charge =  1 Multiplicity = 3

                         Standard orientation:
 ---------------------------------------------------------------------
 Center     Atomic      Atomic             Coordinates (Angstroms)
 Number     Number       Type             X           Y           Z
 ---------------------------------------------------------------------
      1          6           0        1.645292   -0.860774   -0.389847
      2          6           0       -1.054023    0.119141   -0.076616
      3          6           0       -1.874296   -0.786084    0.040917
      4          6           0        0.059863    1.039548   -0.146737
      5          1           0       -0.023662    1.899497    0.514472
      6          1           0        0.304112    1.342243   -1.163232
      7          6           0        0.988891   -0.031717    0.428972
      8          1           0        1.125189   -0.122424    1.508622
 ---------------------------------------------------------------------

 SCF Done:  E(UB3LYP) =  -191.693001767     A.U. after   29 cycles

 The electronic state is 3-A.
 Alpha  occ. eigenvalues --  -10.51638 -10.51486 -10.47975 -10.47148 -10.46880
 Alpha  occ. eigenvalues --   -1.11685  -1.03679  -0.96900  -0.79372  -0.75880
 Alpha  occ. eigenvalues --   -0.70963  -0.67246  -0.64719  -0.59261  -0.55564
 Alpha  occ. eigenvalues --   -0.54408  -0.53413
 Alpha virt. eigenvalues --   -0.35491  -0.27356  -0.22781  -0.19357  -0.15877
 Alpha virt. eigenvalues --   -0.13998  -0.11203  -0.10606  -0.09312  -0.08686
 Alpha virt. eigenvalues --   -0.07453  -0.06571  -0.05898  -0.05498  -0.05073

  Beta  occ. eigenvalues --  -10.50948 -10.48746 -10.47698 -10.47082 -10.46576
  Beta  occ. eigenvalues --   -1.10601  -1.00421  -0.94745  -0.78759  -0.74787
  Beta  occ. eigenvalues --   -0.70406  -0.67100  -0.54743  -0.53695  -0.53386
  Beta virt. eigenvalues --   -0.42520  -0.41981  -0.34727  -0.23571  -0.19875
  Beta virt. eigenvalues --   -0.15936  -0.15574  -0.13774  -0.10986  -0.09968
  Beta virt. eigenvalues --   -0.08730  -0.08568  -0.07220  -0.06077  -0.05561

 Mulliken charges and spin densities:
               1          2
     1  C   -0.381035   0.342991
     2  C    0.496725  -0.007549
     3  C    0.039768   1.438500
     4  C   -0.163130   0.089516
     5  H    0.217077  -0.008120
     6  H    0.246650  -0.007889
     7  C    0.300688   0.157386
     8  H    0.243255  -0.004836
 Sum of Mulliken charges =   1.00000   2.00000

 Dipole moment (field-independent basis, Debye):
    X=             -0.6334    Y=              1.1567    Z=              1.2908  Tot=              1.8454
 Quadrupole moment (field-independent basis, Debye-Ang):
   XX=            -19.0039   YY=            -21.9291   ZZ=            -23.9528
   XY=              2.6842   XZ=              2.5501   YZ=             -1.5986

  Exact polarizability:  84.827  -0.718  47.240  -1.184   1.881  41.349
 Approx polarizability: 156.282   1.485  78.032  -3.822   1.979  58.980

                      1                      2                      3
                      A                      A                      A
 Frequencies --    116.3556               186.3237               210.2949
 Red. masses --      7.9637                 5.5027                 3.9053
 Frc consts  --      0.0635                 0.1126                 0.1018
 IR Inten    --      6.1571                 3.8419                 5.2932

                      4                      5                      6
                      A                      A                      A
 Frequencies --    240.3940               403.1563               725.6170
 Red. masses --      4.5430                 7.2420                 1.3893
 Frc consts  --      0.1547                 0.6935                 0.4310
 IR Inten    --      1.9945                 7.4582                13.0692

                      7                      8                      9
                      A                      A                      A
 Frequencies --    861.9732               892.8433               984.9716
 Red. masses --      4.1379                 1.2982                 4.8975
 Frc consts  --      1.8114                 0.6097                 2.7994
 IR Inten    --      9.3789                12.9747                 5.3759

                     10                     11                     12
                      A                      A                      A
 Frequencies --   1032.7676              1138.4971              1245.7575
 Red. masses --      1.2788                 1.1571                 1.2484
 Frc consts  --      0.8036                 0.8837                 1.1414
 IR Inten    --      7.9960                17.2024                 2.8196

                     13                     14                     15
                      A                      A                      A
 Frequencies --   1461.8224              1517.6255              2076.8496
 Red. masses --      1.1152                 5.0780                11.8137
 Frc consts  --      1.4040                 6.8909                30.0225
 IR Inten    --     21.1086               351.9106               191.0353

                     16                     17                     18
                      A                      A                      A
 Frequencies --   3079.2089              3098.4400              3143.0670
 Red. masses --      1.0559                 1.0871                 1.1110
 Frc consts  --      5.8987                 6.1489                 6.4665
 IR Inten    --     16.9015                73.3717                37.3922

 - Thermochemistry -
 -------------------
 Temperature   298.150 Kelvin.  Pressure   1.00000 Atm.
 Atom     1 has atomic number  6 and mass  12.00000

 Molecular mass:    63.02348 amu.
 Principal axes and moments of inertia in atomic units:
                           1         2         3
     Eigenvalues --   153.71517 390.54427 485.30238
           X            0.99988   0.00495   0.01434
           Y           -0.00456   0.99962  -0.02701
           Z           -0.01447   0.02695   0.99953
 This molecule is an asymmetric top.
 Rotational symmetry number  1.
 Rotational temperatures (Kelvin)      0.56347     0.22178     0.17847
 Rotational constants (GHZ):          11.74081     4.62109     3.71880
 Zero-point vibrational energy     134077.2 (Joules/Mol)
                                   32.04523 (Kcal/Mol)
 Warning -- explicit consideration of   5 degrees of freedom as
           vibrations may cause significant error
 Vibrational temperatures:    167.41   268.08   302.57   345.87   580.05
          (Kelvin)           1044.00  1240.19  1284.60  1417.15  1485.92
                             1638.04  1792.36  2103.23  2183.52  2988.12
                             4430.29  4457.96  4522.17

 Zero-point correction=                           0.051067 (Hartree/Particle)
 Thermal correction to Energy=                    0.056875
 Thermal correction to Enthalpy=                  0.057820
 Thermal correction to Gibbs Free Energy=         0.021472
 Sum of electronic and zero-point Energies=           -191.641934
 Sum of electronic and thermal Energies=              -191.636126
 Sum of electronic and thermal Enthalpies=            -191.635182
 Sum of electronic and thermal Free Energies=         -191.671530

                     E (Thermal)             CV                S
                      KCal/Mol        Cal/Mol-Kelvin    Cal/Mol-Kelvin
 Total                   35.690             17.995             76.500
 Electronic               0.000              0.000              2.183
 Translational            0.889              2.981             38.342
 Rotational               0.889              2.981             24.880
 Vibrational             33.912             12.034             11.094
 Vibration     1          0.608              1.936              3.160
 Vibration     2          0.632              1.859              2.264
 Vibration     3          0.642              1.825              2.041
 Vibration     4          0.657              1.779              1.800
 Vibration     5          0.769              1.463              0.951

 Optimization completed.
    -- Stationary point found.
 Normal termination of Gaussian 09 at Sun Jun 19 10:23:27 2016.
