 Gaussian 09, Revision E.01,
 Gaussian 09:  EM64L-G09RevE.01 30-Nov-2015

 ---------------------------------------------
 #p b3lyp/6-311++G(3df,2p) freq symmetry=Loose
 ---------------------------------------------

 ---------
 b3lyp opt
 ---------
 Symbolic Z-matrix:
 Charge =  0 Multiplicity = 2

                         Standard orientation:
 ---------------------------------------------------------------------
 Center     Atomic      Atomic             Coordinates (Angstroms)
 Number     Number       Type             X           Y           Z
 ---------------------------------------------------------------------
      1          6           0       -0.000000    0.765220   -0.000000
      2          6           0       -1.141706   -0.135426   -0.000000
      3          6           0        0.539042    1.938613   -0.000000
      4          6           0        0.812571   -0.616563    0.000000
      5          1           0        1.402488   -0.723173    0.907282
      6          1           0        1.402488   -0.723173   -0.907282
      7          6           0       -0.538872   -1.318603    0.000000
      8          1           0       -0.831189   -2.353095    0.000000
 ---------------------------------------------------------------------

 SCF Done:  E(UB3LYP) =  -192.101997531     A.U. after   20 cycles

 The electronic state is 2-A'.
 Alpha  occ. eigenvalues --  -10.25127 -10.24966 -10.22744 -10.21916 -10.20406
 Alpha  occ. eigenvalues --   -0.92461  -0.76205  -0.69150  -0.61785  -0.49221
 Alpha  occ. eigenvalues --   -0.47997  -0.47350  -0.42052  -0.34186  -0.30012
 Alpha  occ. eigenvalues --   -0.27300  -0.26970
 Alpha virt. eigenvalues --   -0.11604  -0.05385  -0.01038   0.01028   0.01527
 Alpha virt. eigenvalues --    0.03633   0.05288   0.05881   0.06226   0.06612
 Alpha virt. eigenvalues --    0.07696   0.08085   0.10266   0.10287   0.11091

  Beta  occ. eigenvalues --  -10.25048 -10.23525 -10.22574 -10.21861 -10.20270
  Beta  occ. eigenvalues --   -0.91494  -0.75470  -0.68043  -0.61333  -0.49117
  Beta  occ. eigenvalues --   -0.46414  -0.44765  -0.41331  -0.33435  -0.29655
  Beta  occ. eigenvalues --   -0.26739
  Beta virt. eigenvalues --   -0.14154  -0.09241  -0.04817  -0.00998   0.01073
  Beta virt. eigenvalues --    0.01678   0.04221   0.05795   0.05982   0.06545
  Beta virt. eigenvalues --    0.06886   0.07715   0.08187   0.10314   0.10726

 Mulliken charges and spin densities:
               1          2
     1  C    0.518877   0.058034
     2  C    0.120894   0.889374
     3  C   -0.752877   0.148137
     4  C   -0.436158   0.022736
     5  H    0.175518   0.006732
     6  H    0.175518   0.006732
     7  C   -0.060174  -0.136213
     8  H    0.258403   0.004466
 Sum of Mulliken charges =  -0.00000   1.00000

 Dipole moment (field-independent basis, Debye):
    X=              0.2056    Y=             -3.8161    Z=             -0.0000  Tot=              3.8216
 Quadrupole moment (field-independent basis, Debye-Ang):
   XX=            -29.4678   YY=            -33.5864   ZZ=            -30.6459
   XY=             -3.1552   XZ=             -0.0000   YZ=              0.0000

  Exact polarizability:  55.092   8.077  78.957   0.000   0.000  40.189
 Approx polarizability:  88.313  13.838 144.404  -0.000   0.000  58.293

                      1                      2                      3
                     A'                     A"                     A"
 Frequencies --    179.3674               211.7855               514.7842
 Red. masses --      7.1899                 4.0985                 3.8411
 Frc consts  --      0.1363                 0.1083                 0.5997
 IR Inten    --     12.0547                 0.2077                 0.7169

                      4                      5                      6
                     A'                     A'                     A"
 Frequencies --    577.1256               730.4063               746.1900
 Red. masses --      8.5265                 7.3075                 1.1893
 Frc consts  --      1.6733                 2.2969                 0.3901
 IR Inten    --     33.9670                 1.0013                34.2827

                      7                      8                      9
                     A'                     A"                     A'
 Frequencies --    897.7509               931.3909               957.9888
 Red. masses --      2.4280                 1.5128                 4.6712
 Frc consts  --      1.1529                 0.7732                 2.5258
 IR Inten    --      1.4776                 0.0219                 1.9149

                     10                     11                     12
                     A"                     A'                     A'
 Frequencies --   1083.6757              1171.1242              1179.3980
 Red. masses --      1.1018                 1.2842                 1.6973
 Frc consts  --      0.7624                 1.0377                 1.3910
 IR Inten    --      0.3916                 2.9028                14.1933

                     13                     14                     15
                     A'                     A'                     A'
 Frequencies --   1451.0546              1576.0063              1788.1483
 Red. masses --      1.1653                 5.6999                11.5363
 Frc consts  --      1.4456                 8.3413                21.7331
 IR Inten    --     10.3802                30.0141               183.1326

                     16                     17                     18
                     A'                     A"                     A'
 Frequencies --   3063.7245              3142.5472              3265.7403
 Red. masses --      1.0509                 1.1142                 1.1015
 Frc consts  --      5.8119                 6.4828                 6.9214
 IR Inten    --      9.0864                 1.2294                 1.2894

 - Thermochemistry -
 -------------------
 Temperature   298.150 Kelvin.  Pressure   1.00000 Atm.
 Atom     1 has atomic number  6 and mass  12.00000

 Molecular mass:    63.02348 amu.
 Principal axes and moments of inertia in atomic units:
                           1         2         3
     Eigenvalues --   112.50913 325.43201 426.09088
           X            0.29787   0.95461   0.00000
           Y            0.95461  -0.29787   0.00000
           Z           -0.00000   0.00000   1.00000
 This molecule is an asymmetric top.
 Rotational symmetry number  1.
 Rotational temperatures (Kelvin)      0.76984     0.26615     0.20328
 Rotational constants (GHZ):          16.04084     5.54568     4.23558
 Zero-point vibrational energy     140371.1 (Joules/Mol)
                                   33.54949 (Kcal/Mol)
 Warning -- explicit consideration of   4 degrees of freedom as
           vibrations may cause significant error
 Vibrational temperatures:    258.07   304.71   740.66   830.35  1050.89
          (Kelvin)           1073.60  1291.66  1340.06  1378.33  1559.17
                             1684.98  1696.89  2087.74  2267.52  2572.74
                             4408.01  4521.42  4698.67

 Zero-point correction=                           0.053465 (Hartree/Particle)
 Thermal correction to Energy=                    0.058237
 Thermal correction to Enthalpy=                  0.059181
 Thermal correction to Gibbs Free Energy=         0.025664
 Sum of electronic and zero-point Energies=           -192.048533
 Sum of electronic and thermal Energies=              -192.043761
 Sum of electronic and thermal Enthalpies=            -192.042817
 Sum of electronic and thermal Free Energies=         -192.076334

                     E (Thermal)             CV                S
                      KCal/Mol        Cal/Mol-Kelvin    Cal/Mol-Kelvin
 Total                   36.544             15.763             70.543
 Electronic               0.000              0.000              1.377
 Translational            0.889              2.981             38.342
 Rotational               0.889              2.981             24.260
 Vibrational             34.767              9.802              6.564
 Vibration     1          0.629              1.868              2.335
 Vibration     2          0.643              1.823              2.028
 Vibration     3          0.870              1.217              0.622
 Vibration     4          0.934              1.081              0.491

 Normal termination of Gaussian 09 at Tue Jul 19 11:15:01 2016.
