 Gaussian 09, Revision E.01,
 Gaussian 09:  EM64L-G09RevE.01 30-Nov-2015

 ---------------------------------------------
 #p b3lyp/6-311++G(3df,2p) freq symmetry=Loose
 ---------------------------------------------

 ---------
 b3lyp opt
 ---------
 Symbolic Z-matrix:
 Charge =  0 Multiplicity = 4

                         Standard orientation:
 ---------------------------------------------------------------------
 Center     Atomic      Atomic             Coordinates (Angstroms)
 Number     Number       Type             X           Y           Z
 ---------------------------------------------------------------------
      1          6           0        0.507571    0.889580   -0.076736
      2          6           0       -0.618593   -0.000570    0.452313
      3          1           0       -0.662383   -0.001795    1.538514
      4          6           0       -1.901904    0.000032   -0.195644
      5          1           0       -2.225654    0.002460   -1.225128
      6          6           0        0.507869   -0.889493   -0.078189
      7          6           0        1.553119    0.000230   -0.097500
      8          1           0        2.599664    0.000659   -0.338847
 ---------------------------------------------------------------------

 SCF Done:  E(UB3LYP) =  -192.044170914     A.U. after   15 cycles

 The electronic state is 4-A.
 Alpha  occ. eigenvalues --  -10.24307 -10.23460 -10.23459 -10.23018 -10.22461
 Alpha  occ. eigenvalues --   -0.95055  -0.77970  -0.64519  -0.58553  -0.56729
 Alpha  occ. eigenvalues --   -0.48273  -0.45791  -0.43171  -0.35637  -0.30805
 Alpha  occ. eigenvalues --   -0.28182  -0.25003  -0.20563
 Alpha virt. eigenvalues --   -0.04713  -0.03104   0.00347   0.01183   0.01540
 Alpha virt. eigenvalues --    0.04817   0.05572   0.07291   0.07487   0.08164
 Alpha virt. eigenvalues --    0.08881   0.08946   0.10701   0.11160   0.11652

  Beta  occ. eigenvalues --  -10.24272 -10.22500 -10.22396 -10.22382 -10.20229
  Beta  occ. eigenvalues --   -0.93617  -0.74979  -0.60925  -0.55526  -0.55364
  Beta  occ. eigenvalues --   -0.46068  -0.44209  -0.40839  -0.33105  -0.27601
  Beta virt. eigenvalues --   -0.10340  -0.10076  -0.08197  -0.02449  -0.01872
  Beta virt. eigenvalues --    0.00577   0.01469   0.02176   0.05504   0.06009
  Beta virt. eigenvalues --    0.07845   0.08464   0.08706   0.09268   0.09590

 Mulliken charges and spin densities:
               1          2
     1  C   -0.569975   0.662869
     2  C    0.686428  -0.252900
     3  H    0.213538   0.019564
     4  C   -0.662552   2.013374
     5  H    0.221746   0.006224
     6  C   -0.569587   0.662892
     7  C    0.420958  -0.118091
     8  H    0.259444   0.006069
 Sum of Mulliken charges =  -0.00000   3.00000

 Dipole moment (field-independent basis, Debye):
    X=              0.5709    Y=              0.0006    Z=              0.4481  Tot=              0.7258
 Quadrupole moment (field-independent basis, Debye-Ang):
   XX=            -25.6152   YY=            -35.1086   ZZ=            -28.2727
   XY=             -0.0015   XZ=              0.6506   YZ=             -0.0086

  Exact polarizability:  68.914  -0.002  60.346   0.492   0.012  42.298
 Approx polarizability:  97.600  -0.006 126.202   0.600   0.050  60.527

                      1                      2                      3
                      A                      A                      A
 Frequencies --    280.9957               283.4090               440.0366
 Red. masses --      2.9501                 1.4430                 3.1469
 Frc consts  --      0.1372                 0.0683                 0.3590
 IR Inten    --      1.3593                24.9163                 0.3899

                      4                      5                      6
                      A                      A                      A
 Frequencies --    575.1998               619.6230               729.3066
 Red. masses --      3.4190                 9.7522                 6.4210
 Frc consts  --      0.6665                 2.2060                 2.0122
 IR Inten    --     32.9125                46.3848                 4.8563

                      7                      8                      9
                      A                      A                      A
 Frequencies --    846.8436               892.3004               935.8687
 Red. masses --      1.4224                 1.7490                 1.6409
 Frc consts  --      0.6010                 0.8205                 0.8468
 IR Inten    --     16.1908                 4.4035                37.8164

                     10                     11                     12
                      A                      A                      A
 Frequencies --   1022.9379              1067.0433              1136.8481
 Red. masses --      3.9024                 1.4784                 1.8302
 Frc consts  --      2.4059                 0.9918                 1.3936
 IR Inten    --      0.4762                 0.3848                 0.3648

                     13                     14                     15
                      A                      A                      A
 Frequencies --   1172.4925              1311.2744              1486.7222
 Red. masses --      2.5612                 1.5904                 7.0177
 Frc consts  --      2.0745                 1.6112                 9.1391
 IR Inten    --     17.1258                26.7272                 2.3744

                     16                     17                     18
                      A                      A                      A
 Frequencies --   3102.7352              3225.3796              3283.6754
 Red. masses --      1.0835                 1.0914                 1.1070
 Frc consts  --      6.1454                 6.6896                 7.0325
 IR Inten    --      0.5360                 1.4723                 1.6334

 - Thermochemistry -
 -------------------
 Temperature   298.150 Kelvin.  Pressure   1.00000 Atm.
 Atom     1 has atomic number  6 and mass  12.00000

 Molecular mass:    63.02348 amu.
 Principal axes and moments of inertia in atomic units:
                           1         2         3
     Eigenvalues --    93.45257 366.25671 408.43761
           X            0.99996  -0.00003   0.00930
           Y            0.00003   1.00000  -0.00051
           Z           -0.00930   0.00051   0.99996
 This molecule is an asymmetric top.
 Rotational symmetry number  1.
 Rotational temperatures (Kelvin)      0.92682     0.23648     0.21206
 Rotational constants (GHZ):          19.31184     4.92753     4.41865
 Zero-point vibrational energy     134057.7 (Joules/Mol)
                                   32.04055 (Kcal/Mol)
 Warning -- explicit consideration of   5 degrees of freedom as
           vibrations may cause significant error
 Vibrational temperatures:    404.29   407.76   633.11   827.58   891.50
          (Kelvin)           1049.31  1218.42  1283.82  1346.50  1471.78
                             1535.24  1635.67  1686.95  1886.63  2139.06
                             4464.14  4640.60  4724.47

 Zero-point correction=                           0.051060 (Hartree/Particle)
 Thermal correction to Energy=                    0.055763
 Thermal correction to Enthalpy=                  0.056707
 Thermal correction to Gibbs Free Energy=         0.022957
 Sum of electronic and zero-point Energies=           -191.993111
 Sum of electronic and thermal Energies=              -191.988408
 Sum of electronic and thermal Enthalpies=            -191.987464
 Sum of electronic and thermal Free Energies=         -192.021214

                     E (Thermal)             CV                S
                      KCal/Mol        Cal/Mol-Kelvin    Cal/Mol-Kelvin
 Total                   34.991             16.504             71.032
 Electronic               0.000              0.000              2.755
 Translational            0.889              2.981             38.342
 Rotational               0.889              2.981             24.151
 Vibrational             33.214             10.543              5.784
 Vibration     1          0.681              1.709              1.528
 Vibration     2          0.682              1.704              1.513
 Vibration     3          0.800              1.383              0.826
 Vibration     4          0.932              1.085              0.494
 Vibration     5          0.980              0.990              0.417

 Optimization completed.
    -- Stationary point found.
 Normal termination of Gaussian 09 at Sun Jun 19 08:59:13 2016.
