 Gaussian 09, Revision E.01,
 Gaussian 09:  EM64L-G09RevE.01 30-Nov-2015

 ------------------------------------------------------
 #p b3lyp/6-311++G(3df,2p) freq IOp(2/17=3) IOp(2/18=3)
 ------------------------------------------------------

 ---------
 b3lyp opt
 ---------
 Symbolic Z-matrix:
 Charge =  1 Multiplicity = 1

                         Standard orientation:
 ---------------------------------------------------------------------
 Center     Atomic      Atomic             Coordinates (Angstroms)
 Number     Number       Type             X           Y           Z
 ---------------------------------------------------------------------
      1          6           0       -0.267256   -0.759285    0.000000
      2          6           0       -0.577915    0.593593    0.000000
      3          6           0       -0.767013   -1.981193    0.000000
      4          6           0        1.033175   -0.003149    0.000000
      5          1           0        1.561260    0.049799   -0.943599
      6          1           0        1.561260    0.049799    0.943599
      7          6           0        0.000000    1.683861    0.000000
      8          1           0        0.351824    2.697489    0.000000
 ---------------------------------------------------------------------

 SCF Done:  E(RB3LYP) =  -191.790680114     A.U. after   13 cycles

 The electronic state is 1-A'.
 Alpha  occ. eigenvalues --  -10.52219 -10.50999 -10.49647 -10.49128 -10.45786
 Alpha  occ. eigenvalues --   -1.18662  -1.01909  -0.93755  -0.87378  -0.78687
 Alpha  occ. eigenvalues --   -0.74355  -0.68671  -0.63506  -0.59352  -0.52426
 Alpha  occ. eigenvalues --   -0.51333
 Alpha virt. eigenvalues --   -0.35549  -0.28977  -0.27452  -0.25003  -0.16468
 Alpha virt. eigenvalues --   -0.14492  -0.14061  -0.12197  -0.11543  -0.09053
 Alpha virt. eigenvalues --   -0.08892  -0.06919  -0.06600  -0.05505  -0.04966

 Mulliken charges:
               1
     1  C    0.978145
     2  C    0.038857
     3  C   -0.560074
     4  C   -0.595980
     5  H    0.267888
     6  H    0.267888
     7  C    0.228258
     8  H    0.375018
 Sum of Mulliken charges =   1.00000

 Dipole moment (field-independent basis, Debye):
    X=              2.4299    Y=              3.6169    Z=              0.0000  Tot=              4.3573
 Quadrupole moment (field-independent basis, Debye-Ang):
   XX=            -21.0040   YY=            -17.5404   ZZ=            -26.6066
   XY=              0.1212   XZ=             -0.0000   YZ=             -0.0000

  Exact polarizability:  43.536   7.635  72.117  -0.000  -0.000  31.852
 Approx polarizability:  75.696  18.713 141.183   0.000  -0.000  46.250

                      1                      2                      3
                     A'                     A"                     A'
 Frequencies --     66.6989               195.4677               226.0183
 Red. masses --      6.8676                 5.5607                 8.0165
 Frc consts  --      0.0180                 0.1252                 0.2413
 IR Inten    --      6.8503                 1.7263                 5.4123

                      4                      5                      6
                     A"                     A'                     A"
 Frequencies --    447.2088               609.2784               610.6926
 Red. masses --      5.4872                10.8060                 1.2281
 Frc consts  --      0.6466                 2.3635                 0.2698
 IR Inten    --      0.0662                 7.8145                49.0995

                      7                      8                      9
                     A'                     A'                     A"
 Frequencies --    807.6129               938.0106               947.0172
 Red. masses --      1.4449                 4.3185                 1.0939
 Frc consts  --      0.5552                 2.2387                 0.5780
 IR Inten    --     17.7222                 8.0489                 0.0341

                     10                     11                     12
                     A'                     A"                     A'
 Frequencies --    961.8859              1024.5908              1120.5099
 Red. masses --      3.3888                 1.2401                 1.2623
 Frc consts  --      1.8473                 0.7670                 0.9338
 IR Inten    --      6.8464                 0.0573                 3.2852

                     13                     14                     15
                     A'                     A'                     A'
 Frequencies --   1444.7244              1758.1355              2022.5672
 Red. masses --      1.0933                 9.9353                 6.6670
 Frc consts  --      1.3445                18.0940                16.0689
 IR Inten    --      0.9981               289.7238                43.3379

                     16                     17                     18
                     A'                     A"                     A'
 Frequencies --   3118.3023              3254.7114              3352.9541
 Red. masses --      1.0460                 1.1285                 1.1488
 Frc consts  --      5.9929                 7.0432                 7.6097
 IR Inten    --     16.4242                31.8321               245.0204

 - Thermochemistry -
 -------------------
 Temperature   298.150 Kelvin.  Pressure   1.00000 Atm.
 Atom     1 has atomic number  6 and mass  12.00000

 Molecular mass:    63.02348 amu.
 Principal axes and moments of inertia in atomic units:
                           1         2         3
     Eigenvalues --    97.32122 376.42260 460.92588
           X            0.22975   0.97325   0.00000
           Y            0.97325  -0.22975   0.00000
           Z           -0.00000  -0.00000   1.00000
 This molecule is an asymmetric top.
 Rotational symmetry number  1.
 Rotational temperatures (Kelvin)      0.88998     0.23010     0.18791
 Rotational constants (GHZ):          18.54417     4.79446     3.91547
 Zero-point vibrational energy     137010.6 (Joules/Mol)
                                   32.74632 (Kcal/Mol)
 Warning -- explicit consideration of   6 degrees of freedom as
           vibrations may cause significant error
 Vibrational temperatures:     95.96   281.23   325.19   643.43   876.61
          (Kelvin)            878.65  1161.97  1349.59  1362.54  1383.94
                             1474.16  1612.16  2078.63  2529.56  2910.02
                             4486.54  4682.80  4824.15

 Zero-point correction=                           0.052185 (Hartree/Particle)
 Thermal correction to Energy=                    0.057757
 Thermal correction to Enthalpy=                  0.058702
 Thermal correction to Gibbs Free Energy=         0.023830
 Sum of electronic and zero-point Energies=           -191.738496
 Sum of electronic and thermal Energies=              -191.732923
 Sum of electronic and thermal Enthalpies=            -191.731979
 Sum of electronic and thermal Free Energies=         -191.766850

                     E (Thermal)             CV                S
                      KCal/Mol        Cal/Mol-Kelvin    Cal/Mol-Kelvin
 Total                   36.243             17.661             73.392
 Electronic               0.000              0.000              0.000
 Translational            0.889              2.981             38.342
 Rotational               0.889              2.981             24.338
 Vibrational             34.466             11.700             10.712
 Vibration     1          0.598              1.970              4.248
 Vibration     2          0.636              1.846              2.175
 Vibration     3          0.650              1.801              1.910
 Vibration     4          0.806              1.367              0.804
 Vibration     5          0.968              1.012              0.434
 Vibration     6          0.970              1.009              0.432

 Normal termination of Gaussian 09 at Thu Jan 31 05:45:31 2019.
