 Gaussian 09, Revision E.01,
 Gaussian 09:  EM64L-G09RevE.01 30-Nov-2015

 ---------------------------------------------
 #p b3lyp/6-311++G(3df,2p) freq symmetry=Loose
 ---------------------------------------------

 ---------
 b3lyp opt
 ---------
 Symbolic Z-matrix:
 Charge =  3 Multiplicity = 3

                         Standard orientation:
 ---------------------------------------------------------------------
 Center     Atomic      Atomic             Coordinates (Angstroms)
 Number     Number       Type             X           Y           Z
 ---------------------------------------------------------------------
      1          6           0       -0.000000   -0.000000    0.404376
      2          1           0       -0.000000   -0.000000    1.504806
      3          6           0        0.000000   -1.273155   -0.272357
      4          6           0       -0.000000   -2.496110    0.178861
      5          1           0        0.000000   -1.472028   -1.404551
      6          6           0        0.000000    1.273155   -0.272357
      7          1           0        0.000000    1.472028   -1.404551
      8          6           0        0.000000    2.496110    0.178861
 ---------------------------------------------------------------------

 SCF Done:  E(UB3LYP) =  -190.328385752     A.U. after   14 cycles

 The electronic state is 3-B2.
 Alpha  occ. eigenvalues --  -11.09405 -11.09405 -10.99771 -10.93867 -10.93867
 Alpha  occ. eigenvalues --   -1.56969  -1.53711  -1.42625  -1.25372  -1.23241
 Alpha  occ. eigenvalues --   -1.17530  -1.13000  -1.09648  -1.09379  -1.06658
 Alpha  occ. eigenvalues --   -1.02361
 Alpha virt. eigenvalues --   -0.86168  -0.83811  -0.82651  -0.69970  -0.62001
 Alpha virt. eigenvalues --   -0.52424  -0.52149  -0.47865  -0.44568  -0.43122
 Alpha virt. eigenvalues --   -0.41272  -0.41158  -0.40895  -0.39169  -0.37434

  Beta  occ. eigenvalues --  -11.06990 -11.06990 -10.99896 -10.93662 -10.93662
  Beta  occ. eigenvalues --   -1.55969  -1.51460  -1.40999  -1.23671  -1.22745
  Beta  occ. eigenvalues --   -1.16128  -1.10012  -1.06404  -1.00048
  Beta virt. eigenvalues --   -0.89098  -0.87980  -0.83970  -0.80134  -0.78505
  Beta virt. eigenvalues --   -0.67208  -0.61093  -0.52391  -0.52018  -0.47469
  Beta virt. eigenvalues --   -0.44362  -0.42705  -0.41199  -0.40451  -0.40413

 Mulliken charges and spin densities:
               1          2
     1  C    0.605578  -0.162194
     2  H    0.294094  -0.003467
     3  C    0.418611   0.104833
     4  C    0.341587   0.979831
     5  H    0.289966  -0.001833
     6  C    0.418611   0.104833
     7  H    0.289966  -0.001833
     8  C    0.341587   0.979831
 Sum of Mulliken charges =   3.00000   2.00000

 Dipole moment (field-independent basis, Debye):
    X=              0.0000    Y=              0.0000    Z=             -0.5130  Tot=              0.5130
 Quadrupole moment (field-independent basis, Debye-Ang):
   XX=            -23.4479   YY=             41.0678   ZZ=            -10.8679
   XY=              0.0000   XZ=             -0.0000   YZ=             -0.0000

  Exact polarizability:  24.847  -0.000  86.616  -0.000   0.000  33.392
 Approx polarizability:  33.298   0.000 195.294   0.000   0.000  55.830

                      1                      2                      3
                     B1                     A2                     A1
 Frequencies --    150.3295               204.8796               216.3410
 Red. masses --      6.4370                 2.5068                 8.3354
 Frc consts  --      0.0857                 0.0620                 0.2299
 IR Inten    --      7.3022                 0.0000                 8.3348

                      4                      5                      6
                     B2                     A1                     A2
 Frequencies --    338.4597               419.5408               573.5396
 Red. masses --      6.5911                 4.2496                 1.5242
 Frc consts  --      0.4449                 0.4407                 0.2954
 IR Inten    --      3.5223                 3.9849                 0.0000

                      7                      8                      9
                     B1                     A1                     B2
 Frequencies --    653.2264               841.4488               929.3410
 Red. masses --      1.4184                 2.7767                 1.1101
 Frc consts  --      0.3566                 1.1583                 0.5649
 IR Inten    --     76.6786                41.1815                 0.4840

                     10                     11                     12
                     B1                     A1                     B2
 Frequencies --    939.4599              1095.8467              1168.8068
 Red. masses --      1.5882                 1.6694                 3.2309
 Frc consts  --      0.8259                 1.1812                 2.6005
 IR Inten    --      3.5521                 0.7299                51.0526

                     13                     14                     15
                     B2                     B2                     A1
 Frequencies --   1391.9303              1594.3493              1617.1648
 Red. masses --      1.4036                 7.6640                 9.1879
 Frc consts  --      1.6022                11.4781                14.1572
 IR Inten    --      9.6746               936.2100                 5.1588

                     16                     17                     18
                     B2                     A1                     A1
 Frequencies --   2559.6740              2587.4843              3028.0458
 Red. masses --      1.0748                 1.0754                 1.0950
 Frc consts  --      4.1489                 4.2419                 5.9155
 IR Inten    --     56.5890               781.1212               144.1489

 - Thermochemistry -
 -------------------
 Temperature   298.150 Kelvin.  Pressure   1.00000 Atm.
 Atom     1 has atomic number  6 and mass  12.00000

 Molecular mass:    63.02348 amu.
 Principal axes and moments of inertia in atomic units:
                           1         2         3
     Eigenvalues --    38.36146 688.51365 726.87511
           X            0.00000   0.00000   1.00000
           Y            1.00000   0.00000  -0.00000
           Z            0.00000   1.00000   0.00000
 This molecule is an asymmetric top.
 Rotational symmetry number  2.
 Rotational temperatures (Kelvin)      2.25783     0.12580     0.11916
 Rotational constants (GHZ):          47.04568     2.62121     2.48288
 Zero-point vibrational energy     121480.0 (Joules/Mol)
                                   29.03441 (Kcal/Mol)
 Warning -- explicit consideration of   6 degrees of freedom as
           vibrations may cause significant error
 Vibrational temperatures:    216.29   294.78   311.27   486.97   603.62
          (Kelvin)            825.19   939.85  1210.66  1337.11  1351.67
                             1576.68  1681.65  2002.67  2293.91  2326.74
                             3682.80  3722.81  4356.68

 Zero-point correction=                           0.046269 (Hartree/Particle)
 Thermal correction to Energy=                    0.052027
 Thermal correction to Enthalpy=                  0.052971
 Thermal correction to Gibbs Free Energy=         0.017858
 Sum of electronic and zero-point Energies=           -190.282116
 Sum of electronic and thermal Energies=              -190.276359
 Sum of electronic and thermal Enthalpies=            -190.275415
 Sum of electronic and thermal Free Energies=         -190.310527

                     E (Thermal)             CV                S
                      KCal/Mol        Cal/Mol-Kelvin    Cal/Mol-Kelvin
 Total                   32.647             18.768             73.901
 Electronic               0.000              0.000              2.183
 Translational            0.889              2.981             38.342
 Rotational               0.889              2.981             23.089
 Vibrational             30.870             12.806             10.287
 Vibration     1          0.618              1.902              2.668
 Vibration     2          0.640              1.833              2.089
 Vibration     3          0.645              1.816              1.990
 Vibration     4          0.719              1.599              1.219
 Vibration     5          0.782              1.428              0.894
 Vibration     6          0.930              1.088              0.497

 Optimization completed.
    -- Stationary point found.
 Normal termination of Gaussian 09 at Tue Jul 19 16:39:31 2016.
