 Gaussian 09, Revision E.01,
 Gaussian 09:  EM64L-G09RevE.01 30-Nov-2015

 ---------------------------------------------
 #p b3lyp/6-311++G(3df,2p) freq symmetry=Loose
 ---------------------------------------------

 ---------
 b3lyp opt
 ---------
 Symbolic Z-matrix:
 Charge =  2 Multiplicity = 4

                         Standard orientation:
 ---------------------------------------------------------------------
 Center     Atomic      Atomic             Coordinates (Angstroms)
 Number     Number       Type             X           Y           Z
 ---------------------------------------------------------------------
      1          6           0       -0.976130   -0.901212   -0.086745
      2          6           0       -1.111761    0.484785   -0.034867
      3          1           0       -2.024500    1.084738    0.002301
      4          6           0        0.293264    1.010627    0.037530
      5          1           0        0.551350    2.041895    0.304261
      6          6           0        1.258720   -0.033843   -0.122759
      7          1           0        2.344941    0.019305   -0.208594
      8          6           0        0.390609   -1.084680    0.190513
 ---------------------------------------------------------------------

 SCF Done:  E(UB3LYP) =  -191.228052098     A.U. after   18 cycles

 The electronic state is 4-A.
 Alpha  occ. eigenvalues --  -10.82201 -10.78410 -10.76375 -10.75518 -10.74590
 Alpha  occ. eigenvalues --   -1.45165  -1.27092  -1.22630  -1.07490  -1.03455
 Alpha  occ. eigenvalues --   -1.00721  -0.93699  -0.92209  -0.90953  -0.82384
 Alpha  occ. eigenvalues --   -0.78594  -0.77280
 Alpha virt. eigenvalues --   -0.65713  -0.50258  -0.48774  -0.32435  -0.31953
 Alpha virt. eigenvalues --   -0.30650  -0.29364  -0.28126  -0.27181  -0.25513
 Alpha virt. eigenvalues --   -0.25056  -0.24181  -0.21964  -0.21204  -0.20491

  Beta  occ. eigenvalues --  -10.80790 -10.75983 -10.75777 -10.74926 -10.73918
  Beta  occ. eigenvalues --   -1.41923  -1.23624  -1.19513  -1.05400  -1.00635
  Beta  occ. eigenvalues --   -0.98376  -0.91425  -0.89941  -0.86577
  Beta virt. eigenvalues --   -0.66471  -0.65154  -0.64141  -0.58187  -0.45056
  Beta virt. eigenvalues --   -0.42017  -0.31771  -0.30868  -0.29446  -0.28808
  Beta virt. eigenvalues --   -0.26770  -0.26471  -0.24511  -0.24145  -0.23191

 Mulliken charges and spin densities:
               1          2
     1  C    0.413827   1.297603
     2  C   -0.030359   0.335212
     3  H    0.313324   0.009289
     4  C    0.235155   0.293137
     5  H    0.290529   0.013397
     6  C   -0.013475   0.404794
     7  H    0.325369   0.004589
     8  C    0.465631   0.641980
 Sum of Mulliken charges =   2.00000   3.00000

 Dipole moment (field-independent basis, Debye):
    X=              0.4976    Y=              0.9887    Z=              0.0377  Tot=              1.1074
 Quadrupole moment (field-independent basis, Debye-Ang):
   XX=             -6.4808   YY=            -10.7798   ZZ=            -23.9223
   XY=             -1.1108   XZ=             -0.3583   YZ=              0.5601

  Exact polarizability:  49.116  -1.576  49.047   0.334  -0.402  23.952
 Approx polarizability:  87.500  -5.380 105.664   1.843  -3.157  37.209

                      1                      2                      3
                      A                      A                      A
 Frequencies --    308.8803               456.5419               534.9076
 Red. masses --      2.1858                 4.5587                 4.1391
 Frc consts  --      0.1229                 0.5598                 0.6978
 IR Inten    --      5.3018                14.7946                 4.9154

                      4                      5                      6
                      A                      A                      A
 Frequencies --    602.4692               780.0483               863.5152
 Red. masses --      4.9501                 1.6807                 1.7803
 Frc consts  --      1.0586                 0.6025                 0.7821
 IR Inten    --     12.7061                54.2844                 8.7985

                      7                      8                      9
                      A                      A                      A
 Frequencies --    881.9068               942.9418               972.8871
 Red. masses --      1.8605                 1.7991                 4.7236
 Frc consts  --      0.8526                 0.9425                 2.6342
 IR Inten    --      5.6471                 4.9525                36.2696

                     10                     11                     12
                      A                      A                      A
 Frequencies --   1060.9666              1144.6899              1213.7850
 Red. masses --      1.3063                 1.6573                 3.9794
 Frc consts  --      0.8664                 1.2795                 3.4542
 IR Inten    --      1.3790                 5.6484                11.0460

                     13                     14                     15
                      A                      A                      A
 Frequencies --   1231.0209              1309.9954              1359.1217
 Red. masses --      1.9384                 2.6266                 3.3030
 Frc consts  --      1.7307                 2.6557                 3.5948
 IR Inten    --     31.7429                63.9969               102.2150

                     16                     17                     18
                      A                      A                      A
 Frequencies --   3069.8815              3107.1842              3131.9595
 Red. masses --      1.0934                 1.0966                 1.1033
 Frc consts  --      6.0712                 6.2380                 6.3764
 IR Inten    --    135.1745               247.4146               164.6433

 - Thermochemistry -
 -------------------
 Temperature   298.150 Kelvin.  Pressure   1.00000 Atm.
 Atom     1 has atomic number  6 and mass  12.00000

 Molecular mass:    63.02348 amu.
 Principal axes and moments of inertia in atomic units:
                           1         2         3
     Eigenvalues --   160.67828 210.84295 365.34804
           X            0.99759  -0.06917  -0.00587
           Y            0.06925   0.99749   0.01443
           Z            0.00486  -0.01481   0.99988
 This molecule is an asymmetric top.
 Rotational symmetry number  1.
 Rotational temperatures (Kelvin)      0.53905     0.41080     0.23707
 Rotational constants (GHZ):          11.23202     8.55965     4.93979
 Zero-point vibrational energy     137407.3 (Joules/Mol)
                                   32.84113 (Kcal/Mol)
 Warning -- explicit consideration of   4 degrees of freedom as
           vibrations may cause significant error
 Vibrational temperatures:    444.41   656.86   769.61   866.82  1122.31
          (Kelvin)           1242.40  1268.87  1356.68  1399.77  1526.49
                             1646.95  1746.36  1771.16  1884.79  1955.47
                             4416.87  4470.54  4506.19

 Zero-point correction=                           0.052336 (Hartree/Particle)
 Thermal correction to Energy=                    0.056585
 Thermal correction to Enthalpy=                  0.057529
 Thermal correction to Gibbs Free Energy=         0.024603
 Sum of electronic and zero-point Energies=           -191.175716
 Sum of electronic and thermal Energies=              -191.171467
 Sum of electronic and thermal Enthalpies=            -191.170523
 Sum of electronic and thermal Free Energies=         -191.203449

                     E (Thermal)             CV                S
                      KCal/Mol        Cal/Mol-Kelvin    Cal/Mol-Kelvin
 Total                   35.508             14.983             69.299
 Electronic               0.000              0.000              2.755
 Translational            0.889              2.981             38.342
 Rotational               0.889              2.981             24.030
 Vibrational             33.730              9.021              4.172
 Vibration     1          0.698              1.657              1.368
 Vibration     2          0.815              1.346              0.776
 Vibration     3          0.890              1.173              0.576
 Vibration     4          0.961              1.027              0.445

 Optimization completed.
    -- Stationary point found.
 Normal termination of Gaussian 09 at Sun Jun 19 13:21:13 2016.
