 Gaussian 09, Revision E.01,
 Gaussian 09:  EM64L-G09RevE.01 30-Nov-2015

 ---------------------------------------------
 #p b3lyp/6-311++G(3df,2p) freq symmetry=Loose
 ---------------------------------------------

 ---------
 b3lyp opt
 ---------
 Symbolic Z-matrix:
 Charge =  1 Multiplicity = 3

                         Standard orientation:
 ---------------------------------------------------------------------
 Center     Atomic      Atomic             Coordinates (Angstroms)
 Number     Number       Type             X           Y           Z
 ---------------------------------------------------------------------
      1          6           0       -1.252790   -0.253010    0.000130
      2          1           0       -1.872087   -0.411363   -0.885597
      3          1           0       -1.871900   -0.411377    0.885986
      4          6           0        0.023364   -1.105485   -0.000011
      5          6           0        1.235872   -0.363422   -0.000133
      6          1           0        2.242693   -0.753779   -0.000243
      7          6           0       -0.501973    1.039496    0.000061
      8          6           0        0.745743    0.945175   -0.000071
 ---------------------------------------------------------------------

 SCF Done:  E(UB3LYP) =  -191.779890402     A.U. after   23 cycles

 The electronic state is 3-A.
 Alpha  occ. eigenvalues --  -10.51337 -10.49623 -10.49016 -10.47032 -10.46912
 Alpha  occ. eigenvalues --   -1.17436  -0.99280  -0.97974  -0.81878  -0.75755
 Alpha  occ. eigenvalues --   -0.72880  -0.71466  -0.66968  -0.60329  -0.57594
 Alpha  occ. eigenvalues --   -0.52091  -0.48945
 Alpha virt. eigenvalues --   -0.37523  -0.31861  -0.18542  -0.15947  -0.12580
 Alpha virt. eigenvalues --   -0.12064  -0.11756  -0.10418  -0.08614  -0.08089
 Alpha virt. eigenvalues --   -0.07579  -0.05626  -0.05307  -0.03884  -0.02265

  Beta  occ. eigenvalues --  -10.49317 -10.49159 -10.48407 -10.46863 -10.46610
  Beta  occ. eigenvalues --   -1.15171  -0.98511  -0.94510  -0.79997  -0.74745
  Beta  occ. eigenvalues --   -0.70976  -0.69842  -0.65897  -0.58090  -0.53749
  Beta virt. eigenvalues --   -0.40991  -0.36162  -0.33766  -0.27075  -0.15757
  Beta virt. eigenvalues --   -0.15560  -0.12497  -0.11934  -0.10897  -0.10085
  Beta virt. eigenvalues --   -0.08378  -0.07788  -0.07420  -0.05079  -0.04287

 Mulliken charges and spin densities:
               1          2
     1  C   -0.384699  -0.038452
     2  H    0.225547  -0.000745
     3  H    0.225547  -0.000745
     4  C    0.199275   1.378973
     5  C   -0.104805   0.102958
     6  H    0.253414  -0.004945
     7  C    0.090707   0.328724
     8  C    0.495014   0.234231
 Sum of Mulliken charges =   1.00000   2.00000

 Dipole moment (field-independent basis, Debye):
    X=             -0.2308    Y=             -0.6563    Z=              0.0000  Tot=              0.6957
 Quadrupole moment (field-independent basis, Debye-Ang):
   XX=            -14.8020   YY=            -24.1557   ZZ=            -25.4188
   XY=             -0.4742   XZ=             -0.0011   YZ=              0.0001

  Exact polarizability:  57.058  -0.912  52.059  -0.003   0.000  29.990
 Approx polarizability: 119.948  -4.431 102.698  -0.008   0.001  44.882

                      1                      2                      3
                      A                      A                      A
 Frequencies --    213.2210               371.0986               557.9464
 Red. masses --      3.3080                 2.1777                10.1320
 Frc consts  --      0.0886                 0.1767                 1.8584
 IR Inten    --      3.5095                 6.4741                69.0631

                      4                      5                      6
                      A                      A                      A
 Frequencies --    742.5221               812.5466               857.0470
 Red. masses --      6.6790                 4.7102                 2.0256
 Frc consts  --      2.1696                 1.8323                 0.8766
 IR Inten    --     15.7288                 7.8753                 3.6177

                      7                      8                      9
                      A                      A                      A
 Frequencies --    877.4530               986.2793              1098.5780
 Red. masses --      1.3629                 7.7854                 1.0686
 Frc consts  --      0.6183                 4.4620                 0.7598
 IR Inten    --      3.9037                 6.3583                 0.8674

                     10                     11                     12
                      A                      A                      A
 Frequencies --   1144.5045              1195.5775              1267.0525
 Red. masses --      1.9872                 1.3215                 4.8614
 Frc consts  --      1.5337                 1.1129                 4.5984
 IR Inten    --      0.7044                23.7675                23.6579

                     13                     14                     15
                      A                      A                      A
 Frequencies --   1290.9343              1393.4894              1922.7694
 Red. masses --      2.3470                 1.0930                11.2672
 Frc consts  --      2.3045                 1.2505                24.5427
 IR Inten    --      7.2184                46.6461                92.3684

                     16                     17                     18
                      A                      A                      A
 Frequencies --   3058.4988              3099.3593              3235.9589
 Red. masses --      1.0589                 1.1037                 1.1000
 Frc consts  --      5.8360                 6.2465                 6.7867
 IR Inten    --     47.0534                36.9355                28.4044

 - Thermochemistry -
 -------------------
 Temperature   298.150 Kelvin.  Pressure   1.00000 Atm.
 Atom     1 has atomic number  6 and mass  12.00000

 Molecular mass:    63.02348 amu.
 Principal axes and moments of inertia in atomic units:
                           1         2         3
     Eigenvalues --   154.13015 216.21318 359.04781
           X            0.99998  -0.00645   0.00011
           Y            0.00645   0.99998  -0.00001
           Z           -0.00011   0.00001   1.00000
 This molecule is an asymmetric top.
 Rotational symmetry number  1.
 Rotational temperatures (Kelvin)      0.56195     0.40059     0.24123
 Rotational constants (GHZ):          11.70920     8.34705     5.02646
 Zero-point vibrational energy     144298.6 (Joules/Mol)
                                   34.48818 (Kcal/Mol)
 Warning -- explicit consideration of   3 degrees of freedom as
           vibrations may cause significant error
 Vibrational temperatures:    306.78   533.93   802.76  1068.32  1169.07
          (Kelvin)           1233.10  1262.46  1419.03  1580.61  1646.68
                             1720.17  1823.00  1857.36  2004.92  2766.43
                             4400.49  4459.28  4655.82

 Zero-point correction=                           0.054960 (Hartree/Particle)
 Thermal correction to Energy=                    0.059285
 Thermal correction to Enthalpy=                  0.060229
 Thermal correction to Gibbs Free Energy=         0.027326
 Sum of electronic and zero-point Energies=           -191.724930
 Sum of electronic and thermal Energies=              -191.720605
 Sum of electronic and thermal Enthalpies=            -191.719661
 Sum of electronic and thermal Free Energies=         -191.752565

                     E (Thermal)             CV                S
                      KCal/Mol        Cal/Mol-Kelvin    Cal/Mol-Kelvin
 Total                   37.202             14.477             69.251
 Electronic               0.000              0.000              2.183
 Translational            0.889              2.981             38.342
 Rotational               0.889              2.981             23.996
 Vibrational             35.424              8.515              4.730
 Vibration     1          0.644              1.821              2.016
 Vibration     2          0.743              1.532              1.075
 Vibration     3          0.913              1.122              0.528

 Optimization completed.
    -- Stationary point found.
 Normal termination of Gaussian 09 at Tue Jul 19 22:22:31 2016.
