 Gaussian 09, Revision E.01,
 Gaussian 09:  EM64L-G09RevE.01 30-Nov-2015

 ---------------------------------------------
 #p b3lyp/6-311++G(3df,2p) freq symmetry=Loose
 ---------------------------------------------

 ---------
 b3lyp opt
 ---------
 Symbolic Z-matrix:
 Charge =  1 Multiplicity = 3

                         Standard orientation:
 ---------------------------------------------------------------------
 Center     Atomic      Atomic             Coordinates (Angstroms)
 Number     Number       Type             X           Y           Z
 ---------------------------------------------------------------------
      1          6           0        0.343134   -1.081807   -0.000012
      2          6           0        0.449672    0.971835    0.000032
      3          1           0        0.437837    1.566351    0.912077
      4          1           0        0.437888    1.566387   -0.911989
      5          6           0        1.405351   -0.201692    0.000035
      6          1           0        2.482629   -0.290040    0.000063
      7          6           0       -0.714211   -0.167196   -0.000023
      8          6           0       -2.043671    0.005077   -0.000057
 ---------------------------------------------------------------------

 SCF Done:  E(UB3LYP) =  -191.754474512     A.U. after   19 cycles

 The electronic state is 3-A.
 Alpha  occ. eigenvalues --  -10.51931 -10.50929 -10.50319 -10.47650 -10.47200
 Alpha  occ. eigenvalues --   -1.17814  -1.02264  -0.92708  -0.86981  -0.72303
 Alpha  occ. eigenvalues --   -0.72196  -0.71134  -0.65972  -0.59310  -0.54868
 Alpha  occ. eigenvalues --   -0.52905  -0.51892
 Alpha virt. eigenvalues --   -0.36407  -0.32430  -0.19435  -0.16178  -0.15040
 Alpha virt. eigenvalues --   -0.12115  -0.12073  -0.11132  -0.08644  -0.08121
 Alpha virt. eigenvalues --   -0.06904  -0.06565  -0.05921  -0.04586  -0.03591

  Beta  occ. eigenvalues --  -10.51216 -10.49496 -10.49267 -10.47634 -10.46917
  Beta  occ. eigenvalues --   -1.15910  -0.99461  -0.91252  -0.85198  -0.70877
  Beta  occ. eigenvalues --   -0.70587  -0.67992  -0.65071  -0.56228  -0.53510
  Beta virt. eigenvalues --   -0.42689  -0.37412  -0.33158  -0.27408  -0.16246
  Beta virt. eigenvalues --   -0.16009  -0.14552  -0.11604  -0.11584  -0.10782
  Beta virt. eigenvalues --   -0.08167  -0.07890  -0.06623  -0.06007  -0.05330

 Mulliken charges and spin densities:
               1          2
     1  C    0.364811   0.933138
     2  C   -0.387350  -0.042337
     3  H    0.229420   0.015850
     4  H    0.229419   0.015850
     5  C    0.042859   0.438305
     6  H    0.336578  -0.012091
     7  C    0.502630   0.217658
     8  C   -0.318366   0.433626
 Sum of Mulliken charges =   1.00000   2.00000

 Dipole moment (field-independent basis, Debye):
    X=              2.7939    Y=              0.8350    Z=              0.0001  Tot=              2.9160
 Quadrupole moment (field-independent basis, Debye-Ang):
   XX=            -19.2147   YY=            -22.0220   ZZ=            -25.6785
   XY=              0.7167   XZ=              0.0002   YZ=              0.0001

  Exact polarizability:  76.011  -1.863  45.334   0.001   0.000  33.527
 Approx polarizability: 151.568  -5.610  75.140   0.003   0.000  48.746

                      1                      2                      3
                      A                      A                      A
 Frequencies --    145.6900               190.0075               388.1501
 Red. masses --      3.7390                 7.0981                 3.5960
 Frc consts  --      0.0468                 0.1510                 0.3192
 IR Inten    --      0.0521                 3.9145                10.5566

                      4                      5                      6
                      A                      A                      A
 Frequencies --    552.1736               716.3337               763.4309
 Red. masses --     10.1382                 6.3917                 1.1732
 Frc consts  --      1.8212                 1.9324                 0.4029
 IR Inten    --     26.9003                 0.9972                26.0771

                      7                      8                      9
                      A                      A                      A
 Frequencies --    906.7064               950.9931              1003.4643
 Red. masses --      1.9768                 1.5523                 6.7989
 Frc consts  --      0.9575                 0.8271                 4.0336
 IR Inten    --      6.0394                 0.0339                39.9614

                     10                     11                     12
                      A                      A                      A
 Frequencies --   1094.2670              1172.5658              1226.4169
 Red. masses --      1.1445                 1.3646                 1.8174
 Frc consts  --      0.8074                 1.1054                 1.6106
 IR Inten    --      0.4764                12.9203                54.7337

                     13                     14                     15
                      A                      A                      A
 Frequencies --   1327.2416              1447.5818              1639.8877
 Red. masses --      3.9501                 1.1995                11.5511
 Frc consts  --      4.0998                 1.4809                18.3022
 IR Inten    --     33.5602                16.5970               343.5115

                     16                     17                     18
                      A                      A                      A
 Frequencies --   3063.1135              3150.1732              3230.7754
 Red. masses --      1.0516                 1.1150                 1.1000
 Frc consts  --      5.8132                 6.5189                 6.7648
 IR Inten    --     15.9279                19.4180                44.2860

 - Thermochemistry -
 -------------------
 Temperature   298.150 Kelvin.  Pressure   1.00000 Atm.
 Atom     1 has atomic number  6 and mass  12.00000

 Molecular mass:    63.02348 amu.
 Principal axes and moments of inertia in atomic units:
                           1         2         3
     Eigenvalues --   117.02755 328.14173 433.19460
           X            0.99991   0.01346  -0.00003
           Y           -0.01346   0.99991  -0.00002
           Z            0.00003   0.00002   1.00000
 This molecule is an asymmetric top.
 Rotational symmetry number  1.
 Rotational temperatures (Kelvin)      0.74011     0.26395     0.19994
 Rotational constants (GHZ):          15.42151     5.49988     4.16612
 Zero-point vibrational energy     137385.0 (Joules/Mol)
                                   32.83579 (Kcal/Mol)
 Warning -- explicit consideration of   4 degrees of freedom as
           vibrations may cause significant error
 Vibrational temperatures:    209.62   273.38   558.46   794.45  1030.64
          (Kelvin)           1098.41  1304.55  1368.27  1443.76  1574.40
                             1687.06  1764.54  1909.60  2082.74  2359.43
                             4407.13  4532.39  4648.36

 Zero-point correction=                           0.052327 (Hartree/Particle)
 Thermal correction to Energy=                    0.057304
 Thermal correction to Enthalpy=                  0.058248
 Thermal correction to Gibbs Free Energy=         0.023843
 Sum of electronic and zero-point Energies=           -191.702147
 Sum of electronic and thermal Energies=              -191.697171
 Sum of electronic and thermal Enthalpies=            -191.696226
 Sum of electronic and thermal Free Energies=         -191.730632

                     E (Thermal)             CV                S
                      KCal/Mol        Cal/Mol-Kelvin    Cal/Mol-Kelvin
 Total                   35.959             16.130             72.413
 Electronic               0.000              0.000              2.183
 Translational            0.889              2.981             38.342
 Rotational               0.889              2.981             24.324
 Vibrational             34.181             10.169              7.564
 Vibration     1          0.617              1.907              2.728
 Vibration     2          0.633              1.854              2.228
 Vibration     3          0.756              1.495              1.007
 Vibration     4          0.908              1.135              0.540

 Optimization completed.
    -- Stationary point found.
 Normal termination of Gaussian 09 at Tue Jul 19 20:42:44 2016.
