 Gaussian 09, Revision E.01,
 Gaussian 09:  EM64L-G09RevE.01 30-Nov-2015

 ---------------------------------------------
 #p b3lyp/6-311++G(3df,2p) freq symmetry=Loose
 ---------------------------------------------

 ---------
 b3lyp opt
 ---------
 Symbolic Z-matrix:
 Charge =  3 Multiplicity = 3

                         Standard orientation:
 ---------------------------------------------------------------------
 Center     Atomic      Atomic             Coordinates (Angstroms)
 Number     Number       Type             X           Y           Z
 ---------------------------------------------------------------------
      1          6           0        0.000000    2.475875   -0.358665
      2          1           0        0.000000    3.537394   -0.703580
      3          6           0        0.000000    1.254139    0.031657
      4          6           0        0.000000   -0.000000    0.598894
      5          1           0        0.000000   -0.000000    1.737886
      6          6           0       -0.000000   -1.254139    0.031657
      7          6           0       -0.000000   -2.475875   -0.358665
      8          1           0       -0.000000   -3.537394   -0.703580
 ---------------------------------------------------------------------

 SCF Done:  E(UB3LYP) =  -190.507617285     A.U. after   15 cycles

 The electronic state is 3-B2.
 Alpha  occ. eigenvalues --  -11.00541 -11.00540 -10.99002 -10.97809 -10.97806
 Alpha  occ. eigenvalues --   -1.56636  -1.51983  -1.45397  -1.31508  -1.21006
 Alpha  occ. eigenvalues --   -1.19600  -1.18923  -1.07453  -1.04392  -1.02651
 Alpha  occ. eigenvalues --   -1.00763
 Alpha virt. eigenvalues --   -0.84680  -0.72056  -0.71449  -0.68352  -0.57589
 Alpha virt. eigenvalues --   -0.55118  -0.49859  -0.48917  -0.46028  -0.44151
 Alpha virt. eigenvalues --   -0.41684  -0.40031  -0.38856  -0.37730  -0.36905

  Beta  occ. eigenvalues --  -10.99665 -10.99664 -10.99127 -10.96972 -10.96970
  Beta  occ. eigenvalues --   -1.54534  -1.47879  -1.42766  -1.30069  -1.19605
  Beta  occ. eigenvalues --   -1.18687  -1.16797  -1.06915  -0.99307
  Beta virt. eigenvalues --   -0.89564  -0.88743  -0.84178  -0.67219  -0.65708
  Beta virt. eigenvalues --   -0.64579  -0.56854  -0.53316  -0.48227  -0.48009
  Beta virt. eigenvalues --   -0.45452  -0.43599  -0.40952  -0.40032  -0.38062

 Mulliken charges and spin densities:
               1          2
     1  C    0.535560   0.435865
     2  H    0.496093  -0.014415
     3  C    0.285345   0.467631
     4  C    0.042054   0.165312
     5  H    0.323950   0.056526
     6  C    0.285345   0.467631
     7  C    0.535560   0.435865
     8  H    0.496093  -0.014415
 Sum of Mulliken charges =   3.00000   2.00000

 Dipole moment (field-independent basis, Debye):
    X=             -0.0000    Y=              0.0000    Z=             -0.7359  Tot=              0.7359
 Quadrupole moment (field-independent basis, Debye-Ang):
   XX=            -23.0620   YY=             58.9918   ZZ=            -13.3824
   XY=              0.0000   XZ=              0.0000   YZ=             -0.0000

  Exact polarizability:  21.958   0.000 102.628   0.000   0.000  29.493
 Approx polarizability:  30.152   0.000 218.133   0.000  -0.000  47.515

                      1                      2                      3
                     A1                     B1                     A2
 Frequencies --    155.3269               264.9029               295.1936
 Red. masses --      3.7487                 2.3537                 4.7510
 Frc consts  --      0.0533                 0.0973                 0.2439
 IR Inten    --     17.1881                70.9864                 0.0000

                      4                      5                      6
                     B2                     A1                     B2
 Frequencies --    335.3125               540.3841               727.7840
 Red. masses --      3.7136                 5.1323                 1.3361
 Frc consts  --      0.2460                 0.8830                 0.4170
 IR Inten    --      5.7486                13.1709                 2.1267

                      7                      8                      9
                     A1                     A2                     B1
 Frequencies --    731.0356               806.3904               807.7283
 Red. masses --      1.4055                 1.3228                 1.3346
 Frc consts  --      0.4426                 0.5068                 0.5130
 IR Inten    --     29.7001                 0.0000                42.1755

                     10                     11                     12
                     B1                     A1                     B2
 Frequencies --    820.6799               845.7637              1051.6209
 Red. masses --      1.8901                 7.0981                 1.4024
 Frc consts  --      0.7500                 2.9915                 0.9138
 IR Inten    --      2.4964                 1.5845                 8.4321

                     13                     14                     15
                     B2                     B2                     A1
 Frequencies --   1328.1130              1813.5864              1871.3106
 Red. masses --      3.1271                 6.1824                 5.9628
 Frc consts  --      3.2499                11.9806                12.3025
 IR Inten    --     41.2185              1882.4083                46.2932

                     16                     17                     18
                     A1                     B2                     A1
 Frequencies --   2621.3341              2946.1981              2952.0804
 Red. masses --      1.0761                 1.1754                 1.1689
 Frc consts  --      4.3566                 6.0114                 6.0020
 IR Inten    --    499.9738               984.9517                67.0105

 - Thermochemistry -
 -------------------
 Temperature   298.150 Kelvin.  Pressure   1.00000 Atm.
 Atom     1 has atomic number  6 and mass  12.00000

 Molecular mass:    63.02348 amu.
 Principal axes and moments of inertia in atomic units:
                           1         2         3
     Eigenvalues --    40.90827 750.24473 791.15301
           X            0.00000   0.00000   1.00000
           Y            1.00000   0.00000  -0.00000
           Z            0.00000   1.00000   0.00000
 This molecule is an asymmetric top.
 Rotational symmetry number  2.
 Rotational temperatures (Kelvin)      2.11727     0.11545     0.10948
 Rotational constants (GHZ):          44.11678     2.40554     2.28115
 Zero-point vibrational energy     125098.0 (Joules/Mol)
                                   29.89913 (Kcal/Mol)
 Warning -- explicit consideration of   5 degrees of freedom as
           vibrations may cause significant error
 Vibrational temperatures:    223.48   381.14   424.72   482.44   777.49
          (Kelvin)           1047.12  1051.80  1160.21  1162.14  1180.77
                             1216.86  1513.05  1910.86  2609.34  2692.40
                             3771.51  4238.92  4247.38

 Zero-point correction=                           0.047647 (Hartree/Particle)
 Thermal correction to Energy=                    0.053117
 Thermal correction to Enthalpy=                  0.054061
 Thermal correction to Gibbs Free Energy=         0.019498
 Sum of electronic and zero-point Energies=           -190.459970
 Sum of electronic and thermal Energies=              -190.454501
 Sum of electronic and thermal Enthalpies=            -190.453556
 Sum of electronic and thermal Free Energies=         -190.488120

                     E (Thermal)             CV                S
                      KCal/Mol        Cal/Mol-Kelvin    Cal/Mol-Kelvin
 Total                   33.331             18.570             72.745
 Electronic               0.000              0.000              2.183
 Translational            0.889              2.981             38.342
 Rotational               0.889              2.981             23.322
 Vibrational             31.554             12.608              8.898
 Vibration     1          0.620              1.897              2.606
 Vibration     2          0.671              1.737              1.629
 Vibration     3          0.689              1.683              1.444
 Vibration     4          0.716              1.605              1.234
 Vibration     5          0.895              1.161              0.564

 Optimization completed.
    -- Stationary point found.
 Normal termination of Gaussian 09 at Tue Jul 19 17:28:21 2016.
