 Gaussian 09, Revision E.01,
 Gaussian 09:  EM64L-G09RevE.01 30-Nov-2015

 ---------------------------------------------
 #p b3lyp/6-311++G(3df,2p) freq symmetry=Loose
 ---------------------------------------------

 ---------
 b3lyp opt
 ---------
 Symbolic Z-matrix:
 Charge =  0 Multiplicity = 2

                         Standard orientation:
 ---------------------------------------------------------------------
 Center     Atomic      Atomic             Coordinates (Angstroms)
 Number     Number       Type             X           Y           Z
 ---------------------------------------------------------------------
      1          6           0       -2.164502   -0.403003    0.000788
      2          1           0       -2.684742   -0.607412    0.930440
      3          1           0       -2.651067   -0.702552   -0.921279
      4          6           0       -1.007201    0.164040   -0.007698
      5          6           0        0.193075    0.752750   -0.013728
      6          1           0        0.234755    1.838384   -0.076098
      7          6           0        1.370168    0.024629    0.063688
      8          6           0        2.458636   -0.626486   -0.031893
 ---------------------------------------------------------------------

 SCF Done:  E(UB3LYP) =  -192.161440974     A.U. after   22 cycles

 The electronic state is 2-A.
 Alpha  occ. eigenvalues --  -10.26207 -10.24899 -10.22524 -10.20087 -10.19613
 Alpha  occ. eigenvalues --   -0.87010  -0.79973  -0.73679  -0.60370  -0.53763
 Alpha  occ. eigenvalues --   -0.51541  -0.50179  -0.38036  -0.33294  -0.28773
 Alpha  occ. eigenvalues --   -0.28371  -0.27598
 Alpha virt. eigenvalues --   -0.07585  -0.04531  -0.01992   0.00423   0.01519
 Alpha virt. eigenvalues --    0.03134   0.04012   0.04806   0.05486   0.07172
 Alpha virt. eigenvalues --    0.07283   0.07908   0.09058   0.09712   0.09917

  Beta  occ. eigenvalues --  -10.25685 -10.24995 -10.22601 -10.19572 -10.19056
  Beta  occ. eigenvalues --   -0.86110  -0.79209  -0.71616  -0.59559  -0.53383
  Beta  occ. eigenvalues --   -0.51343  -0.49273  -0.35380  -0.33018  -0.27613
  Beta  occ. eigenvalues --   -0.27215
  Beta virt. eigenvalues --   -0.18031  -0.04830  -0.04171  -0.01918   0.00501
  Beta virt. eigenvalues --    0.01673   0.03529   0.04212   0.04847   0.06137
  Beta virt. eigenvalues --    0.07271   0.07441   0.08612   0.09392   0.10019

 Mulliken charges and spin densities:
               1          2
     1  C   -0.429738  -0.031089
     2  H    0.188025   0.027037
     3  H    0.188743   0.027191
     4  C    0.598133   0.331319
     5  C   -0.785074  -0.096550
     6  H    0.159759  -0.000003
     7  C    0.700163   0.366958
     8  C   -0.620011   0.375136
 Sum of Mulliken charges =  -0.00000   1.00000

 Dipole moment (field-independent basis, Debye):
    X=             -5.5596    Y=              1.7228    Z=              0.2351  Tot=              5.8252
 Quadrupole moment (field-independent basis, Debye-Ang):
   XX=            -36.6899   YY=            -30.0396   ZZ=            -28.5986
   XY=              5.8928   XZ=              0.8333   YZ=             -0.2554

  Exact polarizability: 127.418  -5.764  52.839   5.168  -1.928  42.485
 Approx polarizability: 180.323  -6.520  79.682   0.814  -0.296  58.664

                      1                      2                      3
                      A                      A                      A
 Frequencies --    132.0643               177.1680               299.8096
 Red. masses --      5.8080                 3.7729                 2.6083
 Frc consts  --      0.0597                 0.0698                 0.1381
 IR Inten    --      3.7252                63.3999                16.5880

                      4                      5                      6
                      A                      A                      A
 Frequencies --    326.0919               494.1581               593.1967
 Red. masses --      3.8244                 1.5180                 8.0309
 Frc consts  --      0.2396                 0.2184                 1.6650
 IR Inten    --      2.4341                25.3179                10.4189

                      7                      8                      9
                      A                      A                      A
 Frequencies --    868.7130               881.8943               956.0108
 Red. masses --      1.2571                 1.3208                 1.6314
 Frc consts  --      0.5590                 0.6052                 0.8785
 IR Inten    --     19.5585                50.8590                 2.1183

                     10                     11                     12
                      A                      A                      A
 Frequencies --    969.8926              1102.3758              1346.5528
 Red. masses --      5.9552                 2.1505                 1.3447
 Frc consts  --      3.3006                 1.5398                 1.4366
 IR Inten    --      6.7949                13.5396                 5.4753

                     13                     14                     15
                      A                      A                      A
 Frequencies --   1425.0600              1919.7530              1960.4239
 Red. masses --      1.3682                11.7571                 9.9380
 Frc consts  --      1.6371                25.5295                22.5035
 IR Inten    --      7.1187                95.9063               227.6640

                     16                     17                     18
                      A                      A                      A
 Frequencies --   3097.6431              3109.9178              3181.2319
 Red. masses --      1.0852                 1.0589                 1.1132
 Frc consts  --      6.1349                 6.0342                 6.6378
 IR Inten    --      3.4990                 9.9270                 3.4429

 - Thermochemistry -
 -------------------
 Temperature   298.150 Kelvin.  Pressure   1.00000 Atm.
 Atom     1 has atomic number  6 and mass  12.00000

 Molecular mass:    63.02348 amu.
 Principal axes and moments of inertia in atomic units:
                           1         2         3
     Eigenvalues --    70.57948 642.06031 699.80345
           X            0.99971   0.02408  -0.00046
           Y           -0.02408   0.99970  -0.00367
           Z            0.00038   0.00368   0.99999
 This molecule is an asymmetric top.
 Rotational symmetry number  1.
 Rotational temperatures (Kelvin)      1.22718     0.13490     0.12377
 Rotational constants (GHZ):          25.57034     2.81086     2.57893
 Zero-point vibrational energy     136625.2 (Joules/Mol)
                                   32.65422 (Kcal/Mol)
 Warning -- explicit consideration of   6 degrees of freedom as
           vibrations may cause significant error
 Vibrational temperatures:    190.01   254.90   431.36   469.17   710.98
          (Kelvin)            853.48  1249.88  1268.85  1375.48  1395.46
                             1586.07  1937.39  2050.34  2762.09  2820.61
                             4456.81  4474.47  4577.08

 Zero-point correction=                           0.052038 (Hartree/Particle)
 Thermal correction to Energy=                    0.057590
 Thermal correction to Enthalpy=                  0.058534
 Thermal correction to Gibbs Free Energy=         0.023175
 Sum of electronic and zero-point Energies=           -192.109403
 Sum of electronic and thermal Energies=              -192.103851
 Sum of electronic and thermal Enthalpies=            -192.102907
 Sum of electronic and thermal Free Energies=         -192.138266

                     E (Thermal)             CV                S
                      KCal/Mol        Cal/Mol-Kelvin    Cal/Mol-Kelvin
 Total                   36.138             17.801             74.419
 Electronic               0.000              0.000              1.377
 Translational            0.889              2.981             38.342
 Rotational               0.889              2.981             24.965
 Vibrational             34.361             11.839              9.735
 Vibration     1          0.612              1.921              2.916
 Vibration     2          0.628              1.870              2.358
 Vibration     3          0.692              1.674              1.418
 Vibration     4          0.710              1.623              1.279
 Vibration     5          0.850              1.263              0.673
 Vibration     6          0.951              1.046              0.462

 Optimization completed.
    -- Stationary point found.
 Normal termination of Gaussian 09 at Sun Jun 19 07:17:49 2016.
