 Gaussian 09, Revision E.01,
 Gaussian 09:  EM64L-G09RevE.01 30-Nov-2015

 ---------------------------------------------
 #p b3lyp/6-311++G(3df,2p) freq symmetry=Loose
 ---------------------------------------------

 ---------
 b3lyp opt
 ---------
 Symbolic Z-matrix:
 Charge =  1 Multiplicity = 1

                         Standard orientation:
 ---------------------------------------------------------------------
 Center     Atomic      Atomic             Coordinates (Angstroms)
 Number     Number       Type             X           Y           Z
 ---------------------------------------------------------------------
      1          6           0        0.000000   -2.301891    0.407163
      2          6           0        0.000000   -1.241677   -0.402166
      3          1           0        0.000000   -1.364166   -1.485590
      4          6           0        0.000000    0.000000    0.260663
      5          1           0        0.000000    0.000000    1.347240
      6          6           0        0.000000    1.241677   -0.402166
      7          1           0        0.000000    1.364166   -1.485590
      8          6           0        0.000000    2.301891    0.407163
 ---------------------------------------------------------------------

 SCF Done:  E(RB3LYP) =  -191.770370438     A.U. after   11 cycles

 The electronic state is 1-A1.
 Alpha  occ. eigenvalues --  -10.52234 -10.52232 -10.51917 -10.44049 -10.44047
 Alpha  occ. eigenvalues --   -1.11871  -1.05257  -0.92010  -0.82082  -0.76181
 Alpha  occ. eigenvalues --   -0.74315  -0.66966  -0.62325  -0.55111  -0.54098
 Alpha  occ. eigenvalues --   -0.53848
 Alpha virt. eigenvalues --   -0.37577  -0.36567  -0.33946  -0.23100  -0.19618
 Alpha virt. eigenvalues --   -0.15590  -0.14373  -0.12792  -0.10533  -0.09634
 Alpha virt. eigenvalues --   -0.08179  -0.07417  -0.05764  -0.04231  -0.04146

 Mulliken charges:
               1
     1  C   -0.264807
     2  C    0.287481
     3  H    0.208537
     4  C    0.301155
     5  H    0.236423
     6  C    0.287481
     7  H    0.208537
     8  C   -0.264807
 Sum of Mulliken charges =   1.00000

 Dipole moment (field-independent basis, Debye):
    X=              0.0000    Y=              0.0000    Z=             -2.0594  Tot=              2.0594
 Quadrupole moment (field-independent basis, Debye-Ang):
   XX=            -28.3233   YY=            -19.4659   ZZ=            -21.2555
   XY=             -0.0000   XZ=             -0.0000   YZ=              0.0000

  Exact polarizability:  32.357  -0.000  96.582  -0.000  -0.000  42.573
 Approx polarizability:  48.537   0.000 195.345   0.000   0.000  68.892

                      1                      2                      3
                     A1                     B1                     B2
 Frequencies --    118.5539               172.6511               204.3318
 Red. masses --      9.9951                 4.1759                 6.5712
 Frc consts  --      0.0828                 0.0733                 0.1616
 IR Inten    --     13.5187                 1.7122                20.6160

                      4                      5                      6
                     A2                     A1                     A2
 Frequencies --    229.5392               408.4159               736.8728
 Red. masses --      4.1508                 3.6668                 1.2280
 Frc consts  --      0.1289                 0.3604                 0.3928
 IR Inten    --      0.0000                 0.0592                 0.0000

                      7                      8                      9
                     B1                     B1                     A1
 Frequencies --    855.1421               993.7917              1014.3630
 Red. masses --      1.6374                 1.2720                 2.2000
 Frc consts  --      0.7055                 0.7402                 1.3337
 IR Inten    --     59.2296                28.0556                 0.8244

                     10                     11                     12
                     B2                     A1                     B2
 Frequencies --   1016.4925              1178.2021              1294.6503
 Red. masses --      1.0920                 2.1063                 1.8340
 Frc consts  --      0.6648                 1.7227                 1.8111
 IR Inten    --      0.0855                 1.5849               141.2229

                     13                     14                     15
                     B2                     B2                     A1
 Frequencies --   1422.7878              1607.9015              1624.3948
 Red. masses --      2.7759                 4.1347                 7.7806
 Frc consts  --      3.3108                 6.2981                12.0962
 IR Inten    --     85.7856               976.1868                39.8840

                     16                     17                     18
                     B2                     A1                     A1
 Frequencies --   3107.8406              3109.4501              3148.0260
 Red. masses --      1.0899                 1.0886                 1.0903
 Frc consts  --      6.2021                 6.2013                 6.3659
 IR Inten    --      0.5342               125.1212                30.9160

 - Thermochemistry -
 -------------------
 Temperature   298.150 Kelvin.  Pressure   1.00000 Atm.
 Atom     1 has atomic number  6 and mass  12.00000

 Molecular mass:    63.02348 amu.
 Principal axes and moments of inertia in atomic units:
                           1         2         3
     Eigenvalues --    53.25303 599.66092 652.91395
           X            0.00000   0.00000   1.00000
           Y            1.00000   0.00000  -0.00000
           Z            0.00000   1.00000   0.00000
 This molecule is an asymmetric top.
 Rotational symmetry number  2.
 Rotational temperatures (Kelvin)      1.62646     0.14444     0.13266
 Rotational constants (GHZ):          33.88993     3.00960     2.76413
 Zero-point vibrational energy     133045.1 (Joules/Mol)
                                   31.79855 (Kcal/Mol)
 Warning -- explicit consideration of   5 degrees of freedom as
           vibrations may cause significant error
 Vibrational temperatures:    170.57   248.41   293.99   330.26   587.62
          (Kelvin)           1060.19  1230.36  1429.84  1459.44  1462.50
                             1695.17  1862.71  2047.07  2313.41  2337.14
                             4471.48  4473.80  4529.30

 Zero-point correction=                           0.050674 (Hartree/Particle)
 Thermal correction to Energy=                    0.056495
 Thermal correction to Enthalpy=                  0.057439
 Thermal correction to Gibbs Free Energy=         0.022869
 Sum of electronic and zero-point Energies=           -191.719696
 Sum of electronic and thermal Energies=              -191.713876
 Sum of electronic and thermal Enthalpies=            -191.712932
 Sum of electronic and thermal Free Energies=         -191.747502

                     E (Thermal)             CV                S
                      KCal/Mol        Cal/Mol-Kelvin    Cal/Mol-Kelvin
 Total                   35.451             17.851             72.759
 Electronic               0.000              0.000              0.000
 Translational            0.889              2.981             38.342
 Rotational               0.889              2.981             23.171
 Vibrational             33.674             11.889             11.246
 Vibration     1          0.609              1.934              3.124
 Vibration     2          0.626              1.876              2.406
 Vibration     3          0.640              1.834              2.094
 Vibration     4          0.652              1.796              1.883
 Vibration     5          0.773              1.452              0.932

 Optimization completed.
    -- Stationary point found.
 Normal termination of Gaussian 09 at Tue Jul 19 14:47:05 2016.
