 Gaussian 09, Revision E.01,
 Gaussian 09:  EM64L-G09RevE.01 30-Nov-2015

 ---------------------------------------------
 #p b3lyp/6-311++G(3df,2p) freq symmetry=Loose
 ---------------------------------------------

 ---------
 b3lyp opt
 ---------
 Symbolic Z-matrix:
 Charge =  2 Multiplicity = 4

                         Standard orientation:
 ---------------------------------------------------------------------
 Center     Atomic      Atomic             Coordinates (Angstroms)
 Number     Number       Type             X           Y           Z
 ---------------------------------------------------------------------
      1          6           0       -0.208132   -0.000609    0.126711
      2          6           0        1.193631    0.000523    0.432668
      3          1           0        1.496851    0.002833    1.493448
      4          6           0       -1.392975   -0.673097   -0.091107
      5          1           0       -1.883009   -1.643344   -0.178399
      6          6           0        2.177287   -0.000896   -0.565146
      7          6           0       -1.391992    0.673456   -0.092242
      8          1           0       -1.880763    1.644254   -0.180358
 ---------------------------------------------------------------------

 SCF Done:  E(UB3LYP) =  -191.225398914     A.U. after   15 cycles

 The electronic state is 4-A.
 Alpha  occ. eigenvalues --  -10.78420 -10.76421 -10.73735 -10.71788 -10.71713
 Alpha  occ. eigenvalues --   -1.43394  -1.31193  -1.12532  -1.05304  -1.00984
 Alpha  occ. eigenvalues --   -0.98582  -0.88890  -0.87398  -0.86181  -0.84630
 Alpha  occ. eigenvalues --   -0.78670  -0.71969
 Alpha virt. eigenvalues --   -0.53967  -0.50524  -0.48144  -0.33173  -0.29876
 Alpha virt. eigenvalues --   -0.29082  -0.28226  -0.28006  -0.26135  -0.25754
 Alpha virt. eigenvalues --   -0.23166  -0.22404  -0.20798  -0.20104  -0.19927

  Beta  occ. eigenvalues --  -10.75511 -10.74080 -10.73592 -10.71677 -10.71602
  Beta  occ. eigenvalues --   -1.42798  -1.26173  -1.07475  -1.04742  -0.99795
  Beta  occ. eigenvalues --   -0.96436  -0.85933  -0.85339  -0.84796
  Beta virt. eigenvalues --   -0.65586  -0.62653  -0.52009  -0.48594  -0.48012
  Beta virt. eigenvalues --   -0.44398  -0.32324  -0.29709  -0.28547  -0.27773
  Beta virt. eigenvalues --   -0.27463  -0.25455  -0.25265  -0.22349  -0.21371

 Mulliken charges and spin densities:
               1          2
     1  C    0.184440   0.048746
     2  C    0.173468   0.451956
     3  H    0.282023   0.045699
     4  C    0.179258   0.035954
     5  H    0.366664   0.011271
     6  C    0.269906   2.358615
     7  C    0.177629   0.036540
     8  H    0.366612   0.011219
 Sum of Mulliken charges =   2.00000   3.00000

 Dipole moment (field-independent basis, Debye):
    X=              0.5733    Y=              0.0018    Z=              0.1898  Tot=              0.6039
 Quadrupole moment (field-independent basis, Debye-Ang):
   XX=              5.2392   YY=            -15.6250   ZZ=            -19.8572
   XY=              0.0023   XZ=              0.4969   YZ=              0.0006

  Exact polarizability:  64.487  -0.001  32.900  -1.391   0.004  29.795
 Approx polarizability:  96.647  -0.012  51.006  -3.108   0.001  46.165

                      1                      2                      3
                      A                      A                      A
 Frequencies --    131.9538               231.2040               296.0918
 Red. masses --      3.3963                 5.9552                 2.4723
 Frc consts  --      0.0348                 0.1876                 0.1277
 IR Inten    --      0.0321                 2.8426                10.6654

                      4                      5                      6
                      A                      A                      A
 Frequencies --    560.2050               782.7506               848.9940
 Red. masses --      4.1721                 2.2812                 1.6970
 Frc consts  --      0.7714                 0.8235                 0.7207
 IR Inten    --     21.8389                11.6364                20.7580

                      7                      8                      9
                      A                      A                      A
 Frequencies --    895.7920               967.2047               981.3693
 Red. masses --      1.4702                 1.4014                 1.3540
 Frc consts  --      0.6951                 0.7724                 0.7683
 IR Inten    --     29.1267                 0.7607                 9.3431

                     10                     11                     12
                      A                      A                      A
 Frequencies --   1027.4293              1144.3916              1215.1083
 Red. masses --      1.3553                 6.9058                 9.7494
 Frc consts  --      0.8429                 5.3286                 8.4812
 IR Inten    --     14.9680                47.4572                73.0890

                     13                     14                     15
                      A                      A                      A
 Frequencies --   1227.5448              1391.0298              1714.9089
 Red. masses --      1.2837                 5.3209                 5.7050
 Frc consts  --      1.1397                 6.0660                 9.8853
 IR Inten    --      4.1159                 0.7974               125.0078

                     16                     17                     18
                      A                      A                      A
 Frequencies --   2981.6889              3135.0595              3175.3987
 Red. masses --      1.0862                 1.0983                 1.1549
 Frc consts  --      5.6894                 6.3603                 6.8608
 IR Inten    --    143.2128               252.0794               179.0138

 - Thermochemistry -
 -------------------
 Temperature   298.150 Kelvin.  Pressure   1.00000 Atm.
 Atom     1 has atomic number  6 and mass  12.00000

 Molecular mass:    63.02348 amu.
 Principal axes and moments of inertia in atomic units:
                           1         2         3
     Eigenvalues --    89.36626 496.81509 524.04905
           X            0.99973   0.00005   0.02340
           Y           -0.00005   1.00000   0.00014
           Z           -0.02340  -0.00014   0.99973
 This molecule is an asymmetric top.
 Rotational symmetry number  1.
 Rotational temperatures (Kelvin)      0.96920     0.17434     0.16528
 Rotational constants (GHZ):          20.19488     3.63262     3.44384
 Zero-point vibrational energy     135824.7 (Joules/Mol)
                                   32.46289 (Kcal/Mol)
 Warning -- explicit consideration of   4 degrees of freedom as
           vibrations may cause significant error
 Vibrational temperatures:    189.85   332.65   426.01   806.01  1126.20
          (Kelvin)           1221.51  1288.84  1391.59  1411.97  1478.24
                             1646.52  1748.27  1766.16  2001.38  2467.37
                             4289.98  4510.65  4568.68

 Zero-point correction=                           0.051733 (Hartree/Particle)
 Thermal correction to Energy=                    0.056742
 Thermal correction to Enthalpy=                  0.057686
 Thermal correction to Gibbs Free Energy=         0.022774
 Sum of electronic and zero-point Energies=           -191.173666
 Sum of electronic and thermal Energies=              -191.168657
 Sum of electronic and thermal Enthalpies=            -191.167713
 Sum of electronic and thermal Free Energies=         -191.202625

                     E (Thermal)             CV                S
                      KCal/Mol        Cal/Mol-Kelvin    Cal/Mol-Kelvin
 Total                   35.606             16.165             73.480
 Electronic               0.000              0.000              2.755
 Translational            0.889              2.981             38.342
 Rotational               0.889              2.981             24.657
 Vibrational             33.829             10.204              7.726
 Vibration     1          0.612              1.921              2.917
 Vibration     2          0.653              1.793              1.870
 Vibration     3          0.690              1.681              1.439
 Vibration     4          0.916              1.117              0.523

 Normal termination of Gaussian 09 at Sun Jun 19 13:20:30 2016.
