 Gaussian 09, Revision E.01,
 Gaussian 09:  EM64L-G09RevE.01 30-Nov-2015

 ---------------------------------------------
 #p b3lyp/6-311++G(3df,2p) freq symmetry=Loose
 ---------------------------------------------

 ---------
 b3lyp opt
 ---------
 Symbolic Z-matrix:
 Charge =  3 Multiplicity = 1

                         Standard orientation:
 ---------------------------------------------------------------------
 Center     Atomic      Atomic             Coordinates (Angstroms)
 Number     Number       Type             X           Y           Z
 ---------------------------------------------------------------------
      1          6           0       -0.395408    0.120299    0.000040
      2          6           0       -0.456784    1.598237    0.000019
      3          6           0       -1.711821   -0.594746    0.000193
      4          1           0       -2.669939   -0.038565    0.000284
      5          1           0       -1.751403   -1.700968    0.000218
      6          6           0        0.845065   -0.534224   -0.000080
      7          6           0        2.305170   -0.022711   -0.000245
      8          1           0        0.904011   -1.661593   -0.000065
 ---------------------------------------------------------------------

 SCF Done:  E(RB3LYP) =  -190.289693308     A.U. after   14 cycles

 The electronic state is 1-A.
 Alpha  occ. eigenvalues --  -11.11748 -11.08212 -10.99881 -10.99512 -10.97481
 Alpha  occ. eigenvalues --   -1.58271  -1.47617  -1.38930  -1.33349  -1.19113
 Alpha  occ. eigenvalues --   -1.17610  -1.12223  -1.07757  -1.03478  -1.01282
 Alpha virt. eigenvalues --   -0.91910  -0.84887  -0.84335  -0.83498  -0.78694
 Alpha virt. eigenvalues --   -0.64558  -0.56980  -0.51952  -0.49375  -0.48096
 Alpha virt. eigenvalues --   -0.46700  -0.44117  -0.42190  -0.41232  -0.40471

 Mulliken charges:
               1
     1  C    1.281076
     2  C    0.310469
     3  C   -0.152324
     4  H    0.339460
     5  H    0.333175
     6  C   -0.068258
     7  C    0.649357
     8  H    0.307046
 Sum of Mulliken charges =   3.00000

 Dipole moment (field-independent basis, Debye):
    X=             -0.4347    Y=             -1.9941    Z=              0.0001  Tot=              2.0409
 Quadrupole moment (field-independent basis, Debye-Ang):
   XX=             17.3177   YY=             -7.3832   ZZ=            -21.4698
   XY=              0.2430   XZ=             -0.0041   YZ=             -0.0003

  Exact polarizability:  68.142  -3.417  44.197  -0.004   0.000  26.423
 Approx polarizability: 129.548 -15.175  78.714  -0.009   0.001  41.692

                      1                      2                      3
                      A                      A                      A
 Frequencies --    165.5246               174.4919               217.6596
 Red. masses --     10.8697                 1.8674                 1.5402
 Frc consts  --      0.1755                 0.0335                 0.0430
 IR Inten    --     17.8770                 0.8449                 1.4597

                      4                      5                      6
                      A                      A                      A
 Frequencies --    272.3217               393.8971               408.2442
 Red. masses --      4.1373                 5.5567                 3.6409
 Frc consts  --      0.1808                 0.5080                 0.3575
 IR Inten    --      9.1912                 7.2284                 7.8222

                      7                      8                      9
                      A                      A                      A
 Frequencies --    720.3520               761.8958               781.1732
 Red. masses --      4.7023                 1.4225                 5.1710
 Frc consts  --      1.4376                 0.4865                 1.8592
 IR Inten    --    349.5887                 0.0239               235.1986

                     10                     11                     12
                      A                      A                      A
 Frequencies --    940.9742              1061.2869              1179.2703
 Red. masses --      1.5355                 1.9610                 1.3784
 Frc consts  --      0.8010                 1.3013                 1.1294
 IR Inten    --    114.5262               209.9776                17.8526

                     13                     14                     15
                      A                      A                      A
 Frequencies --   1263.2390              1383.8572              1435.0258
 Red. masses --      2.0087                 9.2937                 1.0977
 Frc consts  --      1.8886                10.4863                 1.3319
 IR Inten    --    175.2390               121.7929                25.1526

                     16                     17                     18
                      A                      A                      A
 Frequencies --   2737.2400              2921.4541              3036.8544
 Red. masses --      1.0837                 1.0528                 1.1315
 Frc consts  --      4.7838                 5.2941                 6.1480
 IR Inten    --    258.3412               227.1966               188.0293

 - Thermochemistry -
 -------------------
 Temperature   298.150 Kelvin.  Pressure   1.00000 Atm.
 Atom     1 has atomic number  6 and mass  12.00000

 Molecular mass:    63.02348 amu.
 Principal axes and moments of inertia in atomic units:
                           1         2         3
     Eigenvalues --   157.06182 438.61427 595.67609
           X            0.99975   0.02226   0.00011
           Y           -0.02226   0.99975   0.00002
           Z           -0.00011  -0.00002   1.00000
 This molecule is an asymmetric top.
 Rotational symmetry number  1.
 Rotational temperatures (Kelvin)      0.55146     0.19747     0.14540
 Rotational constants (GHZ):          11.49064     4.11464     3.02974
 Zero-point vibrational energy     118757.8 (Joules/Mol)
                                   28.38381 (Kcal/Mol)
 Warning -- explicit consideration of   6 degrees of freedom as
           vibrations may cause significant error
 Vibrational temperatures:    238.15   251.05   313.16   391.81   566.73
          (Kelvin)            587.37  1036.42  1096.20  1123.93  1353.85
                             1526.95  1696.70  1817.52  1991.06  2064.68
                             3938.27  4203.32  4369.35

 Zero-point correction=                           0.045232 (Hartree/Particle)
 Thermal correction to Energy=                    0.051290
 Thermal correction to Enthalpy=                  0.052234
 Thermal correction to Gibbs Free Energy=         0.016616
 Sum of electronic and zero-point Energies=           -190.244461
 Sum of electronic and thermal Energies=              -190.238404
 Sum of electronic and thermal Enthalpies=            -190.237460
 Sum of electronic and thermal Free Energies=         -190.273077

                     E (Thermal)             CV                S
                      KCal/Mol        Cal/Mol-Kelvin    Cal/Mol-Kelvin
 Total                   32.185             19.737             74.963
 Electronic               0.000              0.000              0.000
 Translational            0.889              2.981             38.342
 Rotational               0.889              2.981             25.221
 Vibrational             30.407             13.775             11.400
 Vibration     1          0.624              1.885              2.486
 Vibration     2          0.627              1.874              2.387
 Vibration     3          0.646              1.814              1.978
 Vibration     4          0.675              1.724              1.581
 Vibration     5          0.761              1.483              0.985
 Vibration     6          0.773              1.452              0.933

 Optimization completed.
    -- Stationary point found.
 Normal termination of Gaussian 09 at Tue Jul 19 15:03:54 2016.
