 Gaussian 09, Revision E.01,
 Gaussian 09:  EM64L-G09RevE.01 30-Nov-2015

 ---------------------------------------------
 #p b3lyp/6-311++G(3df,2p) freq symmetry=Loose
 ---------------------------------------------

 ---------
 b3lyp opt
 ---------
 Symbolic Z-matrix:
 Charge =  3 Multiplicity = 1

                         Standard orientation:
 ---------------------------------------------------------------------
 Center     Atomic      Atomic             Coordinates (Angstroms)
 Number     Number       Type             X           Y           Z
 ---------------------------------------------------------------------
      1          6           0        0.000000    0.000000    0.529349
      2          6           0       -0.000000    0.853389   -0.589971
      3          6           0       -0.000000   -0.000000   -1.734835
      4          1           0       -0.000000   -0.000000   -2.853822
      5          6           0       -0.000000   -0.853389   -0.589971
      6          6           0        0.000000    0.000000    2.002942
      7          1           0       -0.974780    0.000000    2.574370
      8          1           0        0.974780   -0.000000    2.574370
 ---------------------------------------------------------------------

 SCF Done:  E(RB3LYP) =  -190.438698160     A.U. after   11 cycles

 The electronic state is 1-A1.
 Alpha  occ. eigenvalues --  -11.07745 -11.06456 -11.05413 -11.04473 -11.04465
 Alpha  occ. eigenvalues --   -1.75083  -1.53623  -1.42068  -1.32955  -1.25309
 Alpha  occ. eigenvalues --   -1.20083  -1.19611  -1.19573  -1.13688  -1.02067
 Alpha virt. eigenvalues --   -0.89361  -0.89266  -0.81927  -0.77740  -0.66990
 Alpha virt. eigenvalues --   -0.58600  -0.52525  -0.52484  -0.48674  -0.47353
 Alpha virt. eigenvalues --   -0.46320  -0.45444  -0.43097  -0.41951  -0.40271

 Mulliken charges:
               1
     1  C   -0.096170
     2  C    1.411221
     3  C   -0.540044
     4  H    0.449925
     5  C    1.411221
     6  C   -0.406193
     7  H    0.385019
     8  H    0.385019
 Sum of Mulliken charges =   3.00000

 Dipole moment (field-independent basis, Debye):
    X=              0.0000    Y=              0.0000    Z=              2.9183  Tot=              2.9183
 Quadrupole moment (field-independent basis, Debye-Ang):
   XX=            -18.2217   YY=            -19.1242   ZZ=             31.0493
   XY=             -0.0000   XZ=              0.0000   YZ=             -0.0000

  Exact polarizability:  22.914   0.000  35.167   0.000  -0.000  57.797
 Approx polarizability:  34.990   0.000 103.682  -0.000   0.000  95.425

                      1                      2                      3
                     B1                     B2                     A2
 Frequencies --    244.5320               276.2393               363.6442
 Red. masses --      2.6749                 3.7289                 1.1081
 Frc consts  --      0.0942                 0.1676                 0.0863
 IR Inten    --     26.7883                27.3766                 0.0000

                      4                      5                      6
                     B1                     A1                     B2
 Frequencies --    489.5097               631.2880               652.3223
 Red. masses --      2.9522                 6.8534                 7.8528
 Frc consts  --      0.4168                 1.6092                 1.9688
 IR Inten    --      0.1091                 8.4923                21.2766

                      7                      8                      9
                     A1                     B1                     B1
 Frequencies --    810.0638               884.8536               922.3231
 Red. masses --      8.9068                 1.4950                 1.5369
 Frc consts  --      3.4436                 0.6897                 0.7703
 IR Inten    --     12.1216                 9.8000                 3.5703

                     10                     11                     12
                     B2                     B2                     B2
 Frequencies --   1007.7866              1150.3428              1254.4687
 Red. masses --      1.1714                 1.5188                 7.3070
 Frc consts  --      0.7010                 1.1841                 6.7750
 IR Inten    --     23.6489                30.1218                 1.1754

                     13                     14                     15
                     A1                     A1                     A1
 Frequencies --   1286.7909              1307.8669              1495.3550
 Red. masses --      1.1159                 6.1951                 9.2082
 Frc consts  --      1.0887                 6.2434                12.1315
 IR Inten    --    147.7566               403.1044                96.8759

                     16                     17                     18
                     A1                     B1                     A1
 Frequencies --   2696.4762              2801.2252              2905.6772
 Red. masses --      1.0430                 1.1267                 1.1321
 Frc consts  --      4.4681                 5.2090                 5.6314
 IR Inten    --    759.6211               390.6650               365.5435

 - Thermochemistry -
 -------------------
 Temperature   298.150 Kelvin.  Pressure   1.00000 Atm.
 Atom     1 has atomic number  6 and mass  12.00000

 Molecular mass:    63.02348 amu.
 Principal axes and moments of inertia in atomic units:
                           1         2         3
     Eigenvalues --    69.25648 426.28792 481.86536
           X            0.00000  -0.00000   1.00000
           Y            0.00000   1.00000   0.00000
           Z            1.00000   0.00000   0.00000
 This molecule is an asymmetric top.
 Rotational symmetry number  2.
 Rotational temperatures (Kelvin)      1.25062     0.20318     0.17975
 Rotational constants (GHZ):          26.05880     4.23362     3.74532
 Zero-point vibrational energy     126689.1 (Joules/Mol)
                                   30.27942 (Kcal/Mol)
 Warning -- explicit consideration of   4 degrees of freedom as
           vibrations may cause significant error
 Vibrational temperatures:    351.83   397.45   523.20   704.29   908.28
          (Kelvin)            938.55  1165.50  1273.11  1327.02  1449.98
                             1655.08  1804.90  1851.40  1881.73  2151.48
                             3879.62  4030.33  4180.62

 Zero-point correction=                           0.048253 (Hartree/Particle)
 Thermal correction to Energy=                    0.053166
 Thermal correction to Enthalpy=                  0.054110
 Thermal correction to Gibbs Free Energy=         0.021927
 Sum of electronic and zero-point Energies=           -190.390445
 Sum of electronic and thermal Energies=              -190.385532
 Sum of electronic and thermal Enthalpies=            -190.384588
 Sum of electronic and thermal Free Energies=         -190.416771

                     E (Thermal)             CV                S
                      KCal/Mol        Cal/Mol-Kelvin    Cal/Mol-Kelvin
 Total                   33.362             16.943             67.734
 Electronic               0.000              0.000              0.000
 Translational            0.889              2.981             38.342
 Rotational               0.889              2.981             22.791
 Vibrational             31.585             10.981              6.602
 Vibration     1          0.660              1.772              1.770
 Vibration     2          0.678              1.717              1.557
 Vibration     3          0.737              1.547              1.106
 Vibration     4          0.845              1.273              0.685

 Optimization completed.
    -- Stationary point found.
 Normal termination of Gaussian 09 at Tue Jul 19 14:36:38 2016.
