 Gaussian 09, Revision E.01,
 Gaussian 09:  EM64L-G09RevE.01 30-Nov-2015

 ---------------------------------------------
 #p b3lyp/6-311++G(3df,2p) freq symmetry=Loose
 ---------------------------------------------

 ---------
 b3lyp opt
 ---------
 Symbolic Z-matrix:
 Charge =  3 Multiplicity = 1

                         Standard orientation:
 ---------------------------------------------------------------------
 Center     Atomic      Atomic             Coordinates (Angstroms)
 Number     Number       Type             X           Y           Z
 ---------------------------------------------------------------------
      1          6           0       -0.000000    0.134439   -0.000000
      2          6           0       -1.341428   -0.205240    0.000000
      3          1           0       -2.135425    0.648939   -0.000000
      4          6           0        1.210625    0.499945   -0.000000
      5          6           0       -2.053090   -1.283590    0.000000
      6          6           0        2.423238    0.894531   -0.000000
      7          1           0       -2.786574   -2.131634    0.000000
      8          1           0        3.485928    1.242186   -0.000000
 ---------------------------------------------------------------------

 SCF Done:  E(RB3LYP) =  -190.548045119     A.U. after   15 cycles

 The electronic state is 1-A'.
 Alpha  occ. eigenvalues --  -11.02968 -11.02504 -11.01758 -10.93242 -10.91415
 Alpha  occ. eigenvalues --   -1.55597  -1.50815  -1.42484  -1.33206  -1.21649
 Alpha  occ. eigenvalues --   -1.19891  -1.16409  -1.07480  -1.03409  -0.99900
 Alpha virt. eigenvalues --   -0.84760  -0.84246  -0.80880  -0.68466  -0.60072
 Alpha virt. eigenvalues --   -0.54002  -0.52791  -0.49268  -0.47653  -0.46227
 Alpha virt. eigenvalues --   -0.43393  -0.41766  -0.39870  -0.39377  -0.36479

 Mulliken charges:
               1
     1  C   -0.035333
     2  C    0.232384
     3  H    0.328439
     4  C    0.636258
     5  C    0.261125
     6  C    0.592535
     7  H    0.490032
     8  H    0.494560
 Sum of Mulliken charges =   3.00000

 Dipole moment (field-independent basis, Debye):
    X=             -0.5539    Y=             -0.7732    Z=             -0.0000  Tot=              0.9511
 Quadrupole moment (field-independent basis, Debye-Ang):
   XX=             53.0005   YY=             -2.3528   ZZ=            -22.9654
   XY=             30.1691   XZ=             -0.0000   YZ=             -0.0000

  Exact polarizability:  95.401  29.597  40.367  -0.001  -0.000  21.582
 Approx polarizability: 255.339  91.719  85.404  -0.000  -0.000  29.866

                      1                      2                      3
                     A'                     A"                     A'
 Frequencies --    151.4378               183.3716               267.0324
 Red. masses --      3.3736                 3.0295                 3.4775
 Frc consts  --      0.0456                 0.0600                 0.1461
 IR Inten    --     41.1555                50.9525                 1.3105

                      4                      5                      6
                     A"                     A'                     A"
 Frequencies --    424.8986               499.2823               651.2542
 Red. masses --      2.4192                 3.4741                 2.4050
 Frc consts  --      0.2573                 0.5103                 0.6010
 IR Inten    --     10.4096                19.2343                94.8065

                      7                      8                      9
                     A'                     A"                     A"
 Frequencies --    749.5226               771.0946               834.0320
 Red. masses --      4.7884                 1.4821                 1.3673
 Frc consts  --      1.5849                 0.5192                 0.5604
 IR Inten    --     24.7494                 8.1202                14.5364

                     10                     11                     12
                     A'                     A'                     A'
 Frequencies --    877.8942               904.1841              1029.7736
 Red. masses --      1.3805                 1.4082                 1.4382
 Frc consts  --      0.6269                 0.6783                 0.8986
 IR Inten    --      9.9001                 2.9643                 4.0669

                     13                     14                     15
                     A'                     A'                     A'
 Frequencies --   1456.7727              1775.9532              2172.3406
 Red. masses --      5.9590                 5.8837                 6.3818
 Frc consts  --      7.4509                10.9335                17.7438
 IR Inten    --    296.2436               413.5758              2496.2309

                     16                     17                     18
                     A'                     A'                     A'
 Frequencies --   2423.5377              2899.5955              2946.4816
 Red. masses --      1.0823                 1.1611                 1.2009
 Frc consts  --      3.7455                 5.7516                 6.1427
 IR Inten    --    574.3170               549.1171               327.7676

 - Thermochemistry -
 -------------------
 Temperature   298.150 Kelvin.  Pressure   1.00000 Atm.
 Atom     1 has atomic number  6 and mass  12.00000

 Molecular mass:    63.02348 amu.
 Principal axes and moments of inertia in atomic units:
                           1         2         3
     Eigenvalues --    22.55475 779.20963 801.76437
           X            0.91797  -0.39666   0.00000
           Y            0.39666   0.91797   0.00000
           Z            0.00000  -0.00000   1.00000
 This molecule is an asymmetric top.
 Rotational symmetry number  1.
 Rotational temperatures (Kelvin)      3.84016     0.11116     0.10803
 Rotational constants (GHZ):          80.01603     2.31612     2.25096
 Zero-point vibrational energy     125718.3 (Joules/Mol)
                                   30.04740 (Kcal/Mol)
 Warning -- explicit consideration of   5 degrees of freedom as
           vibrations may cause significant error
 Vibrational temperatures:    217.88   263.83   384.20   611.33   718.35
          (Kelvin)            937.01  1078.39  1109.43  1199.98  1263.09
                             1300.92  1481.61  2095.97  2555.20  3125.51
                             3486.93  4171.87  4239.32

 Zero-point correction=                           0.047884 (Hartree/Particle)
 Thermal correction to Energy=                    0.053455
 Thermal correction to Enthalpy=                  0.054399
 Thermal correction to Gibbs Free Energy=         0.020177
 Sum of electronic and zero-point Energies=           -190.500162
 Sum of electronic and thermal Energies=              -190.494590
 Sum of electronic and thermal Enthalpies=            -190.493646
 Sum of electronic and thermal Free Energies=         -190.527868

                     E (Thermal)             CV                S
                      KCal/Mol        Cal/Mol-Kelvin    Cal/Mol-Kelvin
 Total                   33.543             18.580             72.026
 Electronic               0.000              0.000              0.000
 Translational            0.889              2.981             38.342
 Rotational               0.889              2.981             24.159
 Vibrational             31.766             12.618              9.525
 Vibration     1          0.619              1.901              2.654
 Vibration     2          0.631              1.862              2.294
 Vibration     3          0.672              1.734              1.615
 Vibration     4          0.787              1.416              0.875
 Vibration     5          0.855              1.252              0.660

 Normal termination of Gaussian 09 at Tue Jul 19 15:49:48 2016.
