 Gaussian 09, Revision E.01,
 Gaussian 09:  EM64L-G09RevE.01 30-Nov-2015

 ------------------------------------------------------
 #p b3lyp/6-311++G(3df,2p) freq IOp(2/17=3) IOp(2/18=3)
 ------------------------------------------------------

 ---------
 b3lyp opt
 ---------
 Symbolic Z-matrix:
 Charge =  1 Multiplicity = 3

                         Standard orientation:
 ---------------------------------------------------------------------
 Center     Atomic      Atomic             Coordinates (Angstroms)
 Number     Number       Type             X           Y           Z
 ---------------------------------------------------------------------
      1          6           0        1.257856    0.226483    0.000000
      2          1           0        1.880361    0.371715   -0.885597
      3          1           0        1.880361    0.371715    0.885597
      4          6           0        0.000000    1.105732    0.000000
      5          6           0       -1.227917    0.389455    0.000000
      6          1           0       -2.226266    0.800998    0.000000
      7          6           0        0.479897   -1.049870    0.000000
      8          6           0       -0.765547   -0.929206    0.000000
 ---------------------------------------------------------------------

 SCF Done:  E(UB3LYP) =  -191.779892316     A.U. after   23 cycles

 The electronic state is 3-A".
 Alpha  occ. eigenvalues --  -10.51337 -10.49623 -10.49016 -10.47032 -10.46910
 Alpha  occ. eigenvalues --   -1.17436  -0.99281  -0.97974  -0.81880  -0.75755
 Alpha  occ. eigenvalues --   -0.72882  -0.71466  -0.66971  -0.60329  -0.57594
 Alpha  occ. eigenvalues --   -0.52091  -0.48945
 Alpha virt. eigenvalues --   -0.37523  -0.31861  -0.18542  -0.15947  -0.12580
 Alpha virt. eigenvalues --   -0.12064  -0.11757  -0.10419  -0.08614  -0.08089
 Alpha virt. eigenvalues --   -0.07579  -0.05626  -0.05307  -0.03883  -0.02266

  Beta  occ. eigenvalues --  -10.49317 -10.49160 -10.48407 -10.46861 -10.46611
  Beta  occ. eigenvalues --   -1.15171  -0.98512  -0.94510  -0.79999  -0.74746
  Beta  occ. eigenvalues --   -0.70977  -0.69841  -0.65900  -0.58090  -0.53749
  Beta virt. eigenvalues --   -0.40991  -0.36162  -0.33766  -0.27075  -0.15757
  Beta virt. eigenvalues --   -0.15560  -0.12496  -0.11934  -0.10898  -0.10086
  Beta virt. eigenvalues --   -0.08378  -0.07788  -0.07421  -0.05079  -0.04288

 Mulliken charges and spin densities:
               1          2
     1  C   -0.384785  -0.038438
     2  H    0.225565  -0.000746
     3  H    0.225565  -0.000746
     4  C    0.199348   1.379004
     5  C   -0.104710   0.102915
     6  H    0.253419  -0.004947
     7  C    0.090619   0.328696
     8  C    0.494981   0.234264
 Sum of Mulliken charges =   1.00000   2.00000

 Dipole moment (field-independent basis, Debye):
    X=              0.2447    Y=              0.6513    Z=             -0.0000  Tot=              0.6957
 Quadrupole moment (field-independent basis, Debye-Ang):
   XX=            -14.8250   YY=            -24.1312   ZZ=            -25.4197
   XY=             -0.6713   XZ=             -0.0000   YZ=             -0.0000

  Exact polarizability:  57.017  -1.017  52.099   0.000   0.000  29.989
 Approx polarizability: 119.753  -4.792 102.891  -0.000   0.000  44.879

                      1                      2                      3
                     A"                     A"                     A'
 Frequencies --    213.2898               371.0606               557.9385
 Red. masses --      3.3014                 2.1790                10.1299
 Frc consts  --      0.0885                 0.1768                 1.8579
 IR Inten    --      3.5266                 6.4633                69.0279

                      4                      5                      6
                     A'                     A'                     A"
 Frequencies --    742.5508               812.6341               856.8265
 Red. masses --      6.6759                 4.7129                 2.0265
 Frc consts  --      2.1688                 1.8337                 0.8766
 IR Inten    --     15.7995                 7.8336                 3.5763

                      7                      8                      9
                     A"                     A'                     A"
 Frequencies --    877.6116               986.2576              1098.3821
 Red. masses --      1.3631                 7.7847                 1.0686
 Frc consts  --      0.6186                 4.4614                 0.7596
 IR Inten    --      3.9446                 6.3571                 0.8705

                     10                     11                     12
                     A'                     A'                     A'
 Frequencies --   1144.5420              1195.3645              1267.0545
 Red. masses --      1.9861                 1.3210                 4.8674
 Frc consts  --      1.5329                 1.1122                 4.6041
 IR Inten    --      0.7076                23.7317                23.6743

                     13                     14                     15
                     A'                     A'                     A'
 Frequencies --   1290.9726              1393.4476              1922.7645
 Red. masses --      2.3479                 1.0932                11.2672
 Frc consts  --      2.3055                 1.2506                24.5424
 IR Inten    --      7.2288                46.6907                92.3592

                     16                     17                     18
                     A'                     A"                     A'
 Frequencies --   3059.4667              3100.2624              3236.0162
 Red. masses --      1.0589                 1.1037                 1.1000
 Frc consts  --      5.8398                 6.2500                 6.7869
 IR Inten    --     47.0707                36.9155                28.4024

 - Thermochemistry -
 -------------------
 Temperature   298.150 Kelvin.  Pressure   1.00000 Atm.
 Atom     1 has atomic number  6 and mass  12.00000

 Molecular mass:    63.02348 amu.
 Principal axes and moments of inertia in atomic units:
                           1         2         3
     Eigenvalues --   154.12762 216.21325 359.05032
           X            0.99989   0.01467   0.00000
           Y           -0.01467   0.99989   0.00000
           Z            0.00000  -0.00000   1.00000
 This molecule is an asymmetric top.
 Rotational symmetry number  1.
 Rotational temperatures (Kelvin)      0.56196     0.40059     0.24123
 Rotational constants (GHZ):          11.70940     8.34704     5.02643
 Zero-point vibrational energy     144308.2 (Joules/Mol)
                                   34.49048 (Kcal/Mol)
 Warning -- explicit consideration of   3 degrees of freedom as
           vibrations may cause significant error
 Vibrational temperatures:    306.88   533.87   802.75  1068.36  1169.20
          (Kelvin)           1232.78  1262.69  1419.00  1580.32  1646.74
                             1719.86  1823.01  1857.42  2004.86  2766.43
                             4401.88  4460.58  4655.90

 Zero-point correction=                           0.054964 (Hartree/Particle)
 Thermal correction to Energy=                    0.059289
 Thermal correction to Enthalpy=                  0.060233
 Thermal correction to Gibbs Free Energy=         0.027330
 Sum of electronic and zero-point Energies=           -191.724928
 Sum of electronic and thermal Energies=              -191.720604
 Sum of electronic and thermal Enthalpies=            -191.719659
 Sum of electronic and thermal Free Energies=         -191.752563

                     E (Thermal)             CV                S
                      KCal/Mol        Cal/Mol-Kelvin    Cal/Mol-Kelvin
 Total                   37.204             14.477             69.251
 Electronic               0.000              0.000              2.183
 Translational            0.889              2.981             38.342
 Rotational               0.889              2.981             23.996
 Vibrational             35.427              8.516              4.730
 Vibration     1          0.644              1.821              2.015
 Vibration     2          0.743              1.532              1.075
 Vibration     3          0.913              1.122              0.528

 Optimization completed.
    -- Stationary point found.
 Normal termination of Gaussian 09 at Thu Jan 31 05:49:06 2019.
