 Gaussian 09, Revision E.01,
 Gaussian 09:  EM64L-G09RevE.01 30-Nov-2015

 ---------------------------------------------
 #p b3lyp/6-311++G(3df,2p) freq symmetry=Loose
 ---------------------------------------------

 ---------
 b3lyp opt
 ---------
 Symbolic Z-matrix:
 Charge =  1 Multiplicity = 3

                         Standard orientation:
 ---------------------------------------------------------------------
 Center     Atomic      Atomic             Coordinates (Angstroms)
 Number     Number       Type             X           Y           Z
 ---------------------------------------------------------------------
      1          6           0       -0.000000   -0.000000   -1.190529
      2          6           0       -0.000000   -0.000000   -2.501987
      3          1           0        0.000000    0.932947   -3.063045
      4          1           0       -0.000000   -0.932947   -3.063045
      5          6           0        0.000000    0.000000    1.383176
      6          6           0        0.000000    0.000000    0.088035
      7          6           0        0.000000    0.000000    2.626158
      8          1           0        0.000000    0.000000    3.696968
 ---------------------------------------------------------------------

 SCF Done:  E(UB3LYP) =  -191.898071505     A.U. after   16 cycles

 The electronic state is 3-A2.
 Alpha  occ. eigenvalues --  -10.47838 -10.46751 -10.46638 -10.45045 -10.42456
 Alpha  occ. eigenvalues --   -1.07739  -1.03034  -0.96603  -0.87401  -0.76353
 Alpha  occ. eigenvalues --   -0.72262  -0.68732  -0.62487  -0.60827  -0.54841
 Alpha  occ. eigenvalues --   -0.51173  -0.44206
 Alpha virt. eigenvalues --   -0.29542  -0.23408  -0.15027  -0.12471  -0.11777
 Alpha virt. eigenvalues --   -0.11380  -0.09317  -0.09271  -0.07709  -0.07166
 Alpha virt. eigenvalues --   -0.07050  -0.05629  -0.04216  -0.02986  -0.02085

  Beta  occ. eigenvalues --  -10.47628 -10.45660 -10.45447 -10.45268 -10.41711
  Beta  occ. eigenvalues --   -1.05510  -1.00942  -0.93604  -0.85891  -0.75181
  Beta  occ. eigenvalues --   -0.71093  -0.66783  -0.59797  -0.57441  -0.51934
  Beta virt. eigenvalues --   -0.41427  -0.33767  -0.25501  -0.20546  -0.14771
  Beta virt. eigenvalues --   -0.12122  -0.10847  -0.10751  -0.09143  -0.08030
  Beta virt. eigenvalues --   -0.07403  -0.06481  -0.05096  -0.04784  -0.03917

 Mulliken charges and spin densities:
               1          2
     1  C    0.803870  -0.046848
     2  C   -0.384834   0.534325
     3  H    0.249518   0.017676
     4  H    0.249518   0.017676
     5  C    0.020399   0.089807
     6  C   -0.758837   0.691146
     7  C    0.439496   0.719901
     8  H    0.380870  -0.023684
 Sum of Mulliken charges =   1.00000   2.00000

 Dipole moment (field-independent basis, Debye):
    X=             -0.0000    Y=              0.0000    Z=              0.3489  Tot=              0.3489
 Quadrupole moment (field-independent basis, Debye-Ang):
   XX=            -28.4102   YY=            -24.5570   ZZ=             10.8015
   XY=              0.0000   XZ=              0.0000   YZ=              0.0000

  Exact polarizability:  29.732   0.000  30.822  -0.000  -0.000 139.226
 Approx polarizability:  40.493   0.000  43.332   0.000  -0.000 283.106

                      1                      2                      3
                     B1                     B2                     B2
 Frequencies --    135.3294               140.7936               351.8526
 Red. masses --      4.5229                 3.5117                 2.8153
 Frc consts  --      0.0488                 0.0410                 0.2053
 IR Inten    --      9.9970                 8.6973                 0.3298

                      4                      5                      6
                     B1                     B1                     B1
 Frequencies --    383.9666               487.2127               504.3812
 Red. masses --      6.1870                 9.9436                 1.2085
 Frc consts  --      0.5374                 1.3907                 0.1811
 IR Inten    --      0.0366                 0.0380                47.1269

                      7                      8                      9
                     B2                     B2                     A1
 Frequencies --    535.4771               721.8961               755.9426
 Red. masses --      4.2441                 1.4119                 5.4855
 Frc consts  --      0.7170                 0.4335                 1.8469
 IR Inten    --      3.4882                15.7294                 0.5400

                     10                     11                     12
                     B1                     B2                     A1
 Frequencies --    796.2754               888.9994              1315.0683
 Red. masses --      1.3325                 1.7705                 1.2410
 Frc consts  --      0.4978                 0.8244                 1.2645
 IR Inten    --     53.1454                 3.9700                41.6653

                     13                     14                     15
                     A1                     A1                     A1
 Frequencies --   1441.4025              1839.4610              1974.7078
 Red. masses --      4.3399                 9.3937                 9.3139
 Frc consts  --      5.3125                18.7269                21.3988
 IR Inten    --      8.2253               249.3998                10.8636

                     16                     17                     18
                     A1                     B2                     A1
 Frequencies --   3077.2235              3159.5104              3366.9356
 Red. masses --      1.0529                 1.1124                 1.1308
 Frc consts  --      5.8743                 6.5429                 7.5529
 IR Inten    --    241.7557                67.3518               225.9238

 - Thermochemistry -
 -------------------
 Temperature   298.150 Kelvin.  Pressure   1.00000 Atm.
 Atom     1 has atomic number  6 and mass  12.00000

 Molecular mass:    63.02348 amu.
 Principal axes and moments of inertia in atomic units:
                           1         2         3
     Eigenvalues --     6.26509 823.24773 829.51282
           X            0.00000   0.00000   1.00000
           Y            0.00000   1.00000   0.00000
           Z            1.00000   0.00000   0.00000
 This molecule is an asymmetric top.
 Rotational symmetry number  2.
 Rotational temperatures (Kelvin)     13.82483     0.10521     0.10442
 Rotational constants (GHZ):         288.06316     2.19222     2.17566
 Zero-point vibrational energy     130850.1 (Joules/Mol)
                                   31.27393 (Kcal/Mol)
 Warning -- explicit consideration of   7 degrees of freedom as
           vibrations may cause significant error
 Vibrational temperatures:    194.71   202.57   506.24   552.44   700.99
          (Kelvin)            725.69   770.43  1038.65  1087.63  1145.66
                             1279.07  1892.09  2073.85  2646.57  2841.16
                             4427.43  4545.83  4844.26

 Zero-point correction=                           0.049838 (Hartree/Particle)
 Thermal correction to Energy=                    0.055688
 Thermal correction to Enthalpy=                  0.056633
 Thermal correction to Gibbs Free Energy=         0.022039
 Sum of electronic and zero-point Energies=           -191.848233
 Sum of electronic and thermal Energies=              -191.842383
 Sum of electronic and thermal Enthalpies=            -191.841439
 Sum of electronic and thermal Free Energies=         -191.876032

                     E (Thermal)             CV                S
                      KCal/Mol        Cal/Mol-Kelvin    Cal/Mol-Kelvin
 Total                   34.945             19.512             72.807
 Electronic               0.000              0.000              2.183
 Translational            0.889              2.981             38.342
 Rotational               0.889              2.981             21.597
 Vibrational             33.168             13.551             10.685
 Vibration     1          0.613              1.918              2.869
 Vibration     2          0.615              1.912              2.793
 Vibration     3          0.728              1.571              1.158
 Vibration     4          0.753              1.504              1.024
 Vibration     5          0.843              1.278              0.691
 Vibration     6          0.860              1.240              0.647
 Vibration     7          0.890              1.172              0.575

 Optimization completed.
    -- Stationary point found.
 Normal termination of Gaussian 09 at Tue Jul 19 18:48:15 2016.
