 Gaussian 09, Revision E.01,
 Gaussian 09:  EM64L-G09RevE.01 30-Nov-2015

 ---------------------------------------------
 #p b3lyp/6-311++G(3df,2p) freq symmetry=Loose
 ---------------------------------------------

 ---------
 b3lyp opt
 ---------
 Symbolic Z-matrix:
 Charge =  0 Multiplicity = 2

                         Standard orientation:
 ---------------------------------------------------------------------
 Center     Atomic      Atomic             Coordinates (Angstroms)
 Number     Number       Type             X           Y           Z
 ---------------------------------------------------------------------
      1          6           0       -0.207571   -0.309259    0.389893
      2          1           0       -0.104072   -0.697227    1.396740
      3          6           0       -1.457014   -0.617948   -0.387647
      4          1           0       -1.884115    1.546644    0.316102
      5          6           0       -1.536244    0.563589    0.072356
      6          6           0        1.052746    0.049622   -0.248208
      7          1           0        1.064581    0.360391   -1.307164
      8          6           0        2.302018    0.112361    0.105994
 ---------------------------------------------------------------------

 SCF Done:  E(UB3LYP) =  -192.077343700     A.U. after   19 cycles

 The electronic state is 2-A.
 Alpha  occ. eigenvalues --  -10.26173 -10.24686 -10.22411 -10.22214 -10.19917
 Alpha  occ. eigenvalues --   -0.91450  -0.81303  -0.66261  -0.58919  -0.55156
 Alpha  occ. eigenvalues --   -0.46531  -0.44147  -0.40789  -0.33137  -0.31859
 Alpha  occ. eigenvalues --   -0.29843  -0.24619
 Alpha virt. eigenvalues --   -0.11490  -0.03312  -0.00750   0.00037   0.00774
 Alpha virt. eigenvalues --    0.01721   0.03068   0.05946   0.06382   0.07418
 Alpha virt. eigenvalues --    0.07665   0.08346   0.09002   0.10022   0.10372

  Beta  occ. eigenvalues --  -10.25640 -10.24421 -10.22287 -10.21238 -10.20034
  Beta  occ. eigenvalues --   -0.90440  -0.80975  -0.65232  -0.58211  -0.54884
  Beta  occ. eigenvalues --   -0.46126  -0.41484  -0.39104  -0.31527  -0.30165
  Beta  occ. eigenvalues --   -0.29419
  Beta virt. eigenvalues --   -0.14195  -0.11136  -0.02307  -0.00437   0.00431
  Beta virt. eigenvalues --    0.00896   0.02009   0.03307   0.06096   0.06455
  Beta virt. eigenvalues --    0.07498   0.08079   0.08812   0.09128   0.10331

 Mulliken charges and spin densities:
               1          2
     1  C    0.213151   0.322685
     2  H    0.188762  -0.009778
     3  C   -0.425919   0.612701
     4  H    0.277927   0.002563
     5  C    0.085465   0.003505
     6  C    0.241207  -0.102588
     7  H    0.176914  -0.001395
     8  C   -0.757506   0.172307
 Sum of Mulliken charges =  -0.00000   1.00000

 Dipole moment (field-independent basis, Debye):
    X=             -1.7656    Y=              1.4217    Z=              0.3400  Tot=              2.2922
 Quadrupole moment (field-independent basis, Debye-Ang):
   XX=            -38.8407   YY=            -29.7613   ZZ=            -27.8815
   XY=             -3.6359   XZ=             -2.7528   YZ=             -1.3733

  Exact polarizability:  89.658   3.993  49.390   5.489   1.935  46.398
 Approx polarizability: 134.350   8.616  82.183  13.943   6.968  73.614

                      1                      2                      3
                      A                      A                      A
 Frequencies --    147.1797               148.7628               312.4976
 Red. masses --      4.4313                 6.3556                 2.1272
 Frc consts  --      0.0566                 0.0829                 0.1224
 IR Inten    --     12.0758                26.9622                16.3863

                      4                      5                      6
                      A                      A                      A
 Frequencies --    422.2534               575.1693               648.9900
 Red. masses --      4.5746                 4.6134                 1.3371
 Frc consts  --      0.4806                 0.8992                 0.3318
 IR Inten    --      1.3945                 3.5320                55.1053

                      7                      8                      9
                      A                      A                      A
 Frequencies --    683.2045               811.3820               859.4948
 Red. masses --      1.9476                 2.3900                 1.1750
 Frc consts  --      0.5356                 0.9270                 0.5114
 IR Inten    --     12.1827                 3.0156                76.8108

                     10                     11                     12
                      A                      A                      A
 Frequencies --    948.1782              1020.4937              1060.7803
 Red. masses --      1.3359                 3.0618                 2.6007
 Frc consts  --      0.7076                 1.8787                 1.7242
 IR Inten    --      2.8875                43.5490                21.9416

                     13                     14                     15
                      A                      A                      A
 Frequencies --   1363.8953              1696.8391              1767.7184
 Red. masses --      1.1513                 9.3099                 6.6421
 Frc consts  --      1.2619                15.7934                12.2288
 IR Inten    --      8.2779               114.5880                88.1005

                     16                     17                     18
                      A                      A                      A
 Frequencies --   2987.7981              3128.1483              3329.7119
 Red. masses --      1.0780                 1.0857                 1.1245
 Frc consts  --      5.6698                 6.2594                 7.3454
 IR Inten    --     23.9857                 6.0420                27.3682

 - Thermochemistry -
 -------------------
 Temperature   298.150 Kelvin.  Pressure   1.00000 Atm.
 Atom     1 has atomic number  6 and mass  12.00000

 Molecular mass:    63.02348 amu.
 Principal axes and moments of inertia in atomic units:
                           1         2         3
     Eigenvalues --    74.98277 514.74241 531.60764
           X            0.99966  -0.02292  -0.01255
           Y            0.02004   0.98076  -0.19418
           Z            0.01676   0.19386   0.98089
 This molecule is an asymmetric top.
 Rotational symmetry number  1.
 Rotational temperatures (Kelvin)      1.15512     0.16827     0.16293
 Rotational constants (GHZ):          24.06875     3.50611     3.39487
 Zero-point vibrational energy     131065.8 (Joules/Mol)
                                   31.32549 (Kcal/Mol)
 Warning -- explicit consideration of   5 degrees of freedom as
           vibrations may cause significant error
 Vibrational temperatures:    211.76   214.04   449.61   607.53   827.54
          (Kelvin)            933.75   982.98  1167.40  1236.62  1364.22
                             1468.26  1526.22  1962.34  2441.37  2543.35
                             4298.77  4500.70  4790.71

 Zero-point correction=                           0.049920 (Hartree/Particle)
 Thermal correction to Energy=                    0.055427
 Thermal correction to Enthalpy=                  0.056371
 Thermal correction to Gibbs Free Energy=         0.021334
 Sum of electronic and zero-point Energies=           -192.027423
 Sum of electronic and thermal Energies=              -192.021917
 Sum of electronic and thermal Enthalpies=            -192.020973
 Sum of electronic and thermal Free Energies=         -192.056009

                     E (Thermal)             CV                S
                      KCal/Mol        Cal/Mol-Kelvin    Cal/Mol-Kelvin
 Total                   34.781             18.203             73.741
 Electronic               0.000              0.000              1.377
 Translational            0.889              2.981             38.342
 Rotational               0.889              2.981             24.532
 Vibrational             33.003             12.242              9.490
 Vibration     1          0.617              1.906              2.708
 Vibration     2          0.618              1.904              2.688
 Vibration     3          0.701              1.650              1.349
 Vibration     4          0.785              1.422              0.884
 Vibration     5          0.932              1.085              0.494

 Optimization completed.
    -- Stationary point found.
 Normal termination of Gaussian 09 at Sun Jun 19 07:17:18 2016.
