 Gaussian 09, Revision E.01,
 Gaussian 09:  EM64L-G09RevE.01 30-Nov-2015

 ---------------------------------------------
 #p b3lyp/6-311++G(3df,2p) freq symmetry=Loose
 ---------------------------------------------

 ---------
 b3lyp opt
 ---------
 Symbolic Z-matrix:
 Charge =  1 Multiplicity = 3

                         Standard orientation:
 ---------------------------------------------------------------------
 Center     Atomic      Atomic             Coordinates (Angstroms)
 Number     Number       Type             X           Y           Z
 ---------------------------------------------------------------------
      1          6           0       -1.819274    0.015960   -0.105885
      2          1           0       -2.314034    0.945445   -0.352980
      3          1           0       -2.417571   -0.877787    0.016544
      4          6           0       -0.490944   -0.034228    0.080529
      5          6           0        0.732669    0.814567    0.079028
      6          1           0        0.948505    1.728534    0.628155
      7          6           0        1.602189   -0.183723   -0.379192
      8          6           0        0.605877   -0.911942    0.276900
 ---------------------------------------------------------------------

 SCF Done:  E(UB3LYP) =  -191.801583091     A.U. after   18 cycles

 The electronic state is 3-A.
 Alpha  occ. eigenvalues --  -10.52960 -10.51394 -10.50255 -10.48350 -10.44397
 Alpha  occ. eigenvalues --   -1.23071  -1.01943  -0.89192  -0.87850  -0.74757
 Alpha  occ. eigenvalues --   -0.72608  -0.70713  -0.65254  -0.62922  -0.56849
 Alpha  occ. eigenvalues --   -0.52687  -0.50937
 Alpha virt. eigenvalues --   -0.30694  -0.29721  -0.20710  -0.15211  -0.13232
 Alpha virt. eigenvalues --   -0.11133  -0.10862  -0.10528  -0.08842  -0.08199
 Alpha virt. eigenvalues --   -0.06429  -0.05746  -0.04858  -0.04370  -0.02808

  Beta  occ. eigenvalues --  -10.51437 -10.50965 -10.48979 -10.48247 -10.43849
  Beta  occ. eigenvalues --   -1.21307  -1.00366  -0.87212  -0.85841  -0.72132
  Beta  occ. eigenvalues --   -0.71456  -0.68915  -0.63495  -0.61723  -0.51654
  Beta virt. eigenvalues --   -0.39928  -0.37893  -0.27439  -0.26878  -0.18539
  Beta virt. eigenvalues --   -0.14888  -0.12833  -0.10881  -0.10167  -0.09919
  Beta virt. eigenvalues --   -0.08550  -0.07917  -0.05919  -0.05442  -0.04460

 Mulliken charges and spin densities:
               1          2
     1  C   -0.289851   0.359863
     2  H    0.235921  -0.009459
     3  H    0.234567  -0.003666
     4  C    0.433140  -0.019854
     5  C   -0.036221   0.215077
     6  H    0.270286   0.032119
     7  C   -0.082712   0.636905
     8  C    0.234870   0.789015
 Sum of Mulliken charges =   1.00000   2.00000

 Dipole moment (field-independent basis, Debye):
    X=             -1.1747    Y=              1.1838    Z=              0.6372  Tot=              1.7853
 Quadrupole moment (field-independent basis, Debye-Ang):
   XX=            -15.2174   YY=            -20.6845   ZZ=            -26.7553
   XY=              1.3977   XZ=              1.9229   YZ=              0.6719

  Exact polarizability:  89.283  -1.853  43.085  -3.524  -0.252  31.767
 Approx polarizability: 163.118  -6.875  77.495 -11.969  -1.957  49.914

                      1                      2                      3
                      A                      A                      A
 Frequencies --    249.3283               355.2385               540.3111
 Red. masses --      5.3326                 2.6524                 3.7593
 Frc consts  --      0.1953                 0.1972                 0.6466
 IR Inten    --      0.6855                 1.4122                38.5843

                      4                      5                      6
                      A                      A                      A
 Frequencies --    596.3729               662.0836               775.6145
 Red. masses --      1.1398                 5.8188                 5.3724
 Frc consts  --      0.2389                 1.5028                 1.9042
 IR Inten    --      0.2462                 9.3954                18.4198

                      7                      8                      9
                      A                      A                      A
 Frequencies --    876.3521               978.8583               993.2536
 Red. masses --      1.7504                 1.9110                 1.5829
 Frc consts  --      0.7920                 1.0788                 0.9201
 IR Inten    --     15.0595                13.3730                20.0747

                     10                     11                     12
                      A                      A                      A
 Frequencies --   1018.5808              1111.6836              1178.7297
 Red. masses --      1.6873                 1.6932                 3.4948
 Frc consts  --      1.0314                 1.2329                 2.8609
 IR Inten    --      6.6032                18.9286                 3.2678

                     13                     14                     15
                      A                      A                      A
 Frequencies --   1339.8644              1448.4541              1598.0691
 Red. masses --      8.4512                 1.2235                 6.2169
 Frc consts  --      8.9390                 1.5124                 9.3544
 IR Inten    --     57.1462                50.6643               142.7945

                     16                     17                     18
                      A                      A                      A
 Frequencies --   3143.8371              3147.8144              3251.5325
 Red. masses --      1.0955                 1.0559                 1.1205
 Frc consts  --      6.3797                 6.1646                 6.9799
 IR Inten    --     64.1090                23.3772                19.9670

 - Thermochemistry -
 -------------------
 Temperature   298.150 Kelvin.  Pressure   1.00000 Atm.
 Atom     1 has atomic number  6 and mass  12.00000

 Molecular mass:    63.02348 amu.
 Principal axes and moments of inertia in atomic units:
                           1         2         3
     Eigenvalues --    94.30938 355.97913 425.96284
           X            0.99970   0.01914   0.01508
           Y           -0.01971   0.99905   0.03885
           Z           -0.01432  -0.03913   0.99913
 This molecule is an asymmetric top.
 Rotational symmetry number  1.
 Rotational temperatures (Kelvin)      0.91840     0.24331     0.20334
 Rotational constants (GHZ):          19.13639     5.06979     4.23685
 Zero-point vibrational energy     139161.5 (Joules/Mol)
                                   33.26039 (Kcal/Mol)
 Warning -- explicit consideration of   4 degrees of freedom as
           vibrations may cause significant error
 Vibrational temperatures:    358.73   511.11   777.39   858.05   952.59
          (Kelvin)           1115.93  1260.87  1408.36  1429.07  1465.51
                             1599.46  1695.93  1927.76  2084.00  2299.26
                             4523.27  4529.00  4678.22

 Zero-point correction=                           0.053004 (Hartree/Particle)
 Thermal correction to Energy=                    0.057484
 Thermal correction to Enthalpy=                  0.058428
 Thermal correction to Gibbs Free Energy=         0.025279
 Sum of electronic and zero-point Energies=           -191.748579
 Sum of electronic and thermal Energies=              -191.744099
 Sum of electronic and thermal Enthalpies=            -191.743155
 Sum of electronic and thermal Free Energies=         -191.776304

                     E (Thermal)             CV                S
                      KCal/Mol        Cal/Mol-Kelvin    Cal/Mol-Kelvin
 Total                   36.072             15.524             69.768
 Electronic               0.000              0.000              2.183
 Translational            0.889              2.981             38.342
 Rotational               0.889              2.981             24.173
 Vibrational             34.294              9.562              5.069
 Vibration     1          0.662              1.764              1.735
 Vibration     2          0.731              1.565              1.143
 Vibration     3          0.895              1.161              0.565
 Vibration     4          0.954              1.040              0.456

 Optimization completed.
    -- Stationary point found.
 Normal termination of Gaussian 09 at Sun Jun 19 10:37:39 2016.
