 Gaussian 09, Revision E.01,
 Gaussian 09:  EM64L-G09RevE.01 30-Nov-2015

 ---------------------------------------------
 #p b3lyp/6-311++G(3df,2p) freq symmetry=Loose
 ---------------------------------------------

 ---------
 b3lyp opt
 ---------
 Symbolic Z-matrix:
 Charge =  0 Multiplicity = 4

                         Standard orientation:
 ---------------------------------------------------------------------
 Center     Atomic      Atomic             Coordinates (Angstroms)
 Number     Number       Type             X           Y           Z
 ---------------------------------------------------------------------
      1          6           0       -0.792380    0.565225   -0.000000
      2          6           0       -0.166381   -0.582768    0.708632
      3          6           0        1.066749   -1.001925    0.000000
      4          6           0       -0.166381   -0.582768   -0.708632
      5          1           0       -1.877660    0.602270   -0.000000
      6          1           0        1.276052   -2.062266   -0.000000
      7          1           0        1.950244   -0.358444    0.000000
      8          6           0       -0.166381    1.905309    0.000000
 ---------------------------------------------------------------------

 SCF Done:  E(UB3LYP) =  -191.969716655     A.U. after   17 cycles

 The electronic state is 4-A".
 Alpha  occ. eigenvalues --  -10.27499 -10.24843 -10.24537 -10.24379 -10.24330
 Alpha  occ. eigenvalues --   -0.99474  -0.79078  -0.68396  -0.56736  -0.52854
 Alpha  occ. eigenvalues --   -0.52224  -0.45896  -0.39831  -0.38655  -0.30958
 Alpha  occ. eigenvalues --   -0.29164  -0.24284  -0.23840
 Alpha virt. eigenvalues --   -0.09877  -0.00452   0.00833   0.02124   0.02252
 Alpha virt. eigenvalues --    0.03263   0.05640   0.06243   0.07659   0.07731
 Alpha virt. eigenvalues --    0.09147   0.09547   0.10555   0.11772   0.11973

  Beta  occ. eigenvalues --  -10.27375 -10.24373 -10.23887 -10.23838 -10.21343
  Beta  occ. eigenvalues --   -0.98607  -0.76784  -0.63892  -0.53697  -0.51368
  Beta  occ. eigenvalues --   -0.50836  -0.44725  -0.37273  -0.30707  -0.28730
  Beta virt. eigenvalues --   -0.18137  -0.12634  -0.06249  -0.03969  -0.00258
  Beta virt. eigenvalues --    0.00947   0.02377   0.03197   0.03670   0.06193
  Beta virt. eigenvalues --    0.06891   0.07984   0.08063   0.09495   0.10431

 Mulliken charges and spin densities:
               1          2
     1  C    0.463904  -0.109268
     2  C   -0.137892   0.236087
     3  C   -0.222339   0.090220
     4  C   -0.137892   0.236087
     5  H    0.198073   0.066744
     6  H    0.162916   0.007588
     7  H    0.152884   0.030245
     8  C   -0.479654   2.442298
 Sum of Mulliken charges =  -0.00000   3.00000

 Dipole moment (field-independent basis, Debye):
    X=              0.4615    Y=             -1.2634    Z=              0.0000  Tot=              1.3450
 Quadrupole moment (field-independent basis, Debye-Ang):
   XX=            -25.9538   YY=            -31.6640   ZZ=            -34.0190
   XY=             -2.2626   XZ=              0.0000   YZ=             -0.0000

  Exact polarizability:  52.590  -8.409  94.065  -0.000  -0.000  48.268
 Approx polarizability:  76.757  -8.208 195.796   0.000  -0.000  94.391

                      1                      2                      3
                     A'                     A"                     A"
 Frequencies --    208.4045               375.0000               433.0019
 Red. masses --      3.7016                 5.9196                 7.0052
 Frc consts  --      0.0947                 0.4905                 0.7738
 IR Inten    --     20.8131                 0.6847               113.5840

                      4                      5                      6
                     A'                     A'                     A"
 Frequencies --    499.0947               768.3540               780.5280
 Red. masses --      7.5390                 4.2398                 2.6102
 Frc consts  --      1.1064                 1.4747                 0.9369
 IR Inten    --    116.4519               166.9543                 9.8243

                      7                      8                      9
                     A'                     A"                     A"
 Frequencies --    916.0588               990.8274              1027.0780
 Red. masses --      8.6128                 1.2079                 1.5191
 Frc consts  --      4.2583                 0.6987                 0.9441
 IR Inten    --     48.3667                 0.2278                 1.8643

                     10                     11                     12
                     A'                     A"                     A'
 Frequencies --   1062.1124              1079.8659              1195.1679
 Red. masses --      1.5791                 1.2859                 2.8873
 Frc consts  --      1.0495                 0.8835                 2.4300
 IR Inten    --     16.3486                 6.9572                 3.0173

                     13                     14                     15
                     A'                     A'                     A'
 Frequencies --   1254.3467              1309.2465              1487.6926
 Red. masses --      2.0663                 2.5792                 1.1502
 Frc consts  --      1.9155                 2.6048                 1.4999
 IR Inten    --      7.6188                20.1914                 1.4560

                     16                     17                     18
                     A'                     A'                     A'
 Frequencies --   3021.6339              3110.7636              3184.8794
 Red. masses --      1.0648                 1.0868                 1.1003
 Frc consts  --      5.7281                 6.1965                 6.5760
 IR Inten    --     19.1642                 2.4336                 1.6127

 - Thermochemistry -
 -------------------
 Temperature   298.150 Kelvin.  Pressure   1.00000 Atm.
 Atom     1 has atomic number  6 and mass  12.00000

 Molecular mass:    63.02348 amu.
 Principal axes and moments of inertia in atomic units:
                           1         2         3
     Eigenvalues --   114.61378 341.09699 369.63508
           X           -0.41915   0.90792   0.00000
           Y            0.90792   0.41915   0.00000
           Z            0.00000  -0.00000   1.00000
 This molecule is an asymmetric top.
 Rotational symmetry number  1.
 Rotational temperatures (Kelvin)      0.75570     0.25393     0.23432
 Rotational constants (GHZ):          15.74628     5.29099     4.88249
 Zero-point vibrational energy     135800.4 (Joules/Mol)
                                   32.45708 (Kcal/Mol)
 Warning -- explicit consideration of   4 degrees of freedom as
           vibrations may cause significant error
 Vibrational temperatures:    299.85   539.54   622.99   718.09  1105.49
          (Kelvin)           1123.00  1318.00  1425.58  1477.73  1528.14
                             1553.68  1719.58  1804.72  1883.71  2140.46
                             4347.45  4475.69  4582.33

 Zero-point correction=                           0.051724 (Hartree/Particle)
 Thermal correction to Energy=                    0.056339
 Thermal correction to Enthalpy=                  0.057283
 Thermal correction to Gibbs Free Energy=         0.023581
 Sum of electronic and zero-point Energies=           -191.917993
 Sum of electronic and thermal Energies=              -191.913378
 Sum of electronic and thermal Enthalpies=            -191.912434
 Sum of electronic and thermal Free Energies=         -191.946136

                     E (Thermal)             CV                S
                      KCal/Mol        Cal/Mol-Kelvin    Cal/Mol-Kelvin
 Total                   35.353             15.779             70.931
 Electronic               0.000              0.000              2.755
 Translational            0.889              2.981             38.342
 Rotational               0.889              2.981             24.184
 Vibrational             33.576              9.817              5.651
 Vibration     1          0.642              1.828              2.058
 Vibration     2          0.746              1.523              1.059
 Vibration     3          0.794              1.398              0.849
 Vibration     4          0.855              1.252              0.660

 Optimization completed.
    -- Stationary point found.
 Normal termination of Gaussian 09 at Tue Jul 19 16:31:35 2016.
