 Gaussian 09, Revision E.01,
 Gaussian 09:  EM64L-G09RevE.01 30-Nov-2015

 ---------------------------------------------
 #p b3lyp/6-311++G(3df,2p) freq symmetry=Loose
 ---------------------------------------------

 ---------
 b3lyp opt
 ---------
 Symbolic Z-matrix:
 Charge =  1 Multiplicity = 1

                         Standard orientation:
 ---------------------------------------------------------------------
 Center     Atomic      Atomic             Coordinates (Angstroms)
 Number     Number       Type             X           Y           Z
 ---------------------------------------------------------------------
      1          6           0       -0.728598    0.000567    0.037978
      2          6           0        0.417062    0.747184    0.010452
      3          6           0       -2.090520   -0.000173   -0.164595
      4          1           0       -2.785626   -0.001142    0.677457
      5          6           0        0.416641   -0.746924    0.010292
      6          6           0        1.692674   -0.000259   -0.003462
      7          1           0        2.259825   -0.000461   -0.929963
      8          1           0        2.282243   -0.000764    0.908516
 ---------------------------------------------------------------------

 SCF Done:  E(RB3LYP) =  -191.778040900     A.U. after   12 cycles

 The electronic state is 1-A.
 Alpha  occ. eigenvalues --  -10.51621 -10.51567 -10.51509 -10.50064 -10.49164
 Alpha  occ. eigenvalues --   -1.26198  -1.04031  -0.94893  -0.79830  -0.77054
 Alpha  occ. eigenvalues --   -0.74205  -0.71469  -0.66519  -0.61883  -0.54423
 Alpha  occ. eigenvalues --   -0.48624
 Alpha virt. eigenvalues --   -0.38700  -0.30869  -0.24812  -0.24103  -0.15549
 Alpha virt. eigenvalues --   -0.14146  -0.11783  -0.11481  -0.09483  -0.07828
 Alpha virt. eigenvalues --   -0.06880  -0.06154  -0.04890  -0.04271  -0.04182

 Mulliken charges:
               1
     1  C    0.673850
     2  C    0.427941
     3  C   -0.586348
     4  H    0.272857
     5  C    0.426907
     6  C   -0.719800
     7  H    0.255422
     8  H    0.249171
 Sum of Mulliken charges =   1.00000

 Dipole moment (field-independent basis, Debye):
    X=              0.4051    Y=             -0.0009    Z=              1.2290  Tot=              1.2941
 Quadrupole moment (field-independent basis, Debye-Ang):
   XX=             -8.4931   YY=            -27.0988   ZZ=            -25.7314
   XY=             -0.0013   XZ=             -3.6750   YZ=             -0.0009

  Exact polarizability:  74.578   0.000  39.661   2.129   0.000  31.623
 Approx polarizability: 120.465   0.001  89.740   6.566   0.006  47.232

                      1                      2                      3
                      A                      A                      A
 Frequencies --    216.4236               248.8608               423.0311
 Red. masses --      3.0402                 3.0573                 4.3221
 Frc consts  --      0.0839                 0.1116                 0.4557
 IR Inten    --      9.1099                 9.8724                28.5790

                      4                      5                      6
                      A                      A                      A
 Frequencies --    445.3997               567.4395               704.9311
 Red. masses --      1.6593                 6.0746                 1.7303
 Frc consts  --      0.1939                 1.1524                 0.5066
 IR Inten    --      5.9586               124.4976               258.0955

                      7                      8                      9
                      A                      A                      A
 Frequencies --    767.1129               975.7089              1024.2657
 Red. masses --      7.0969                 1.0946                 4.0105
 Frc consts  --      2.4606                 0.6140                 2.4790
 IR Inten    --     18.7281                 1.4686                 6.4460

                     10                     11                     12
                      A                      A                      A
 Frequencies --   1068.6224              1130.9918              1187.9257
 Red. masses --      1.3347                 1.7041                 3.0379
 Frc consts  --      0.8980                 1.2843                 2.5258
 IR Inten    --      0.0853                10.3132                 3.1007

                     13                     14                     15
                      A                      A                      A
 Frequencies --   1264.2529              1500.1665              1772.6495
 Red. masses --      5.7875                 1.1223                 9.0940
 Frc consts  --      5.4502                 1.4881                16.8364
 IR Inten    --     58.2541                 0.0388                90.9595

                     16                     17                     18
                      A                      A                      A
 Frequencies --   3097.3404              3132.4605              3184.0569
 Red. masses --      1.0539                 1.0897                 1.1208
 Frc consts  --      5.9569                 6.2998                 6.6951
 IR Inten    --      8.2499                47.7954                24.2092

 - Thermochemistry -
 -------------------
 Temperature   298.150 Kelvin.  Pressure   1.00000 Atm.
 Atom     1 has atomic number  6 and mass  12.00000

 Molecular mass:    63.02348 amu.
 Principal axes and moments of inertia in atomic units:
                           1         2         3
     Eigenvalues --    56.66291 421.52302 460.52294
           X            0.99986   0.00000  -0.01665
           Y           -0.00000   1.00000  -0.00010
           Z            0.01665   0.00010   0.99986
 This molecule is an asymmetric top.
 Rotational symmetry number  1.
 Rotational temperatures (Kelvin)      1.52858     0.20548     0.18808
 Rotational constants (GHZ):          31.85048     4.28148     3.91890
 Zero-point vibrational energy     135845.8 (Joules/Mol)
                                   32.46792 (Kcal/Mol)
 Warning -- explicit consideration of   5 degrees of freedom as
           vibrations may cause significant error
 Vibrational temperatures:    311.38   358.05   608.65   640.83   816.42
          (Kelvin)           1014.24  1103.70  1403.83  1473.69  1537.51
                             1627.24  1709.16  1818.98  2158.40  2550.44
                             4456.38  4506.91  4581.14

 Zero-point correction=                           0.051741 (Hartree/Particle)
 Thermal correction to Energy=                    0.056692
 Thermal correction to Enthalpy=                  0.057636
 Thermal correction to Gibbs Free Energy=         0.024793
 Sum of electronic and zero-point Energies=           -191.726300
 Sum of electronic and thermal Energies=              -191.721349
 Sum of electronic and thermal Enthalpies=            -191.720405
 Sum of electronic and thermal Free Energies=         -191.753248

                     E (Thermal)             CV                S
                      KCal/Mol        Cal/Mol-Kelvin    Cal/Mol-Kelvin
 Total                   35.574             16.763             69.123
 Electronic               0.000              0.000              0.000
 Translational            0.889              2.981             38.342
 Rotational               0.889              2.981             23.913
 Vibrational             33.797             10.801              6.869
 Vibration     1          0.645              1.816              1.989
 Vibration     2          0.662              1.765              1.739
 Vibration     3          0.785              1.420              0.882
 Vibration     4          0.805              1.371              0.810
 Vibration     5          0.923              1.102              0.509

 Optimization completed.
    -- Stationary point found.
 Normal termination of Gaussian 09 at Sun Jun 19 09:45:36 2016.
