 Gaussian 09, Revision E.01,
 Gaussian 09:  EM64L-G09RevE.01 30-Nov-2015

 ---------------------------------------------
 #p b3lyp/6-311++G(3df,2p) freq symmetry=Loose
 ---------------------------------------------

 ---------
 b3lyp opt
 ---------
 Symbolic Z-matrix:
 Charge =  3 Multiplicity = 3

                         Standard orientation:
 ---------------------------------------------------------------------
 Center     Atomic      Atomic             Coordinates (Angstroms)
 Number     Number       Type             X           Y           Z
 ---------------------------------------------------------------------
      1          6           0       -2.029839   -0.000023    0.211654
      2          6           0       -0.654776    0.000003   -0.026296
      3          6           0        0.402442    1.002633   -0.184609
      4          1           0        0.434119    2.028350   -0.614814
      5          6           0        1.345339   -0.000029    0.261546
      6          1           0        2.338114   -0.000084    0.765268
      7          6           0        0.402442   -1.002592   -0.184828
      8          1           0        0.434119   -2.028216   -0.615257
 ---------------------------------------------------------------------

 SCF Done:  E(UB3LYP) =  -190.395936412     A.U. after   15 cycles

 The electronic state is 3-A.
 Alpha  occ. eigenvalues --  -11.17190 -11.04393 -11.02185 -11.02185 -11.00007
 Alpha  occ. eigenvalues --   -1.69916  -1.55152  -1.39872  -1.34557  -1.24272
 Alpha  occ. eigenvalues --   -1.20135  -1.18250  -1.14766  -1.13691  -1.12742
 Alpha  occ. eigenvalues --   -1.04609
 Alpha virt. eigenvalues --   -0.91971  -0.83002  -0.80814  -0.70389  -0.54653
 Alpha virt. eigenvalues --   -0.53157  -0.52335  -0.50611  -0.47926  -0.47680
 Alpha virt. eigenvalues --   -0.43795  -0.43041  -0.41783  -0.40436  -0.40268

  Beta  occ. eigenvalues --  -11.13623 -11.04164 -11.02079 -11.02078 -10.99715
  Beta  occ. eigenvalues --   -1.69210  -1.50416  -1.39547  -1.32591  -1.24050
  Beta  occ. eigenvalues --   -1.17842  -1.15264  -1.12517  -1.11659
  Beta virt. eigenvalues --   -0.93619  -0.90853  -0.86913  -0.82012  -0.75279
  Beta virt. eigenvalues --   -0.67272  -0.54161  -0.52605  -0.51427  -0.50081
  Beta virt. eigenvalues --   -0.47156  -0.47011  -0.43770  -0.42609  -0.41050

 Mulliken charges and spin densities:
               1          2
     1  C    0.488349   1.534700
     2  C    0.574652   0.094657
     3  C    0.288569   0.090907
     4  H    0.405438  -0.003250
     5  C    0.161539   0.186309
     6  H    0.387446   0.009020
     7  C    0.288569   0.090907
     8  H    0.405438  -0.003250
 Sum of Mulliken charges =   3.00000   2.00000

 Dipole moment (field-independent basis, Debye):
    X=             -1.8419    Y=             -0.0000    Z=              0.1588  Tot=              1.8487
 Quadrupole moment (field-independent basis, Debye-Ang):
   XX=             11.8117   YY=             -4.9556   ZZ=            -19.4579
   XY=              0.0000   XZ=             -0.0834   YZ=              0.0016

  Exact polarizability:  55.741  -0.000  37.422   0.034   0.002  22.096
 Approx polarizability: 112.243   0.000  65.863  -1.128   0.004  33.309

                      1                      2                      3
                      A                      A                      A
 Frequencies --    219.4922               335.0932               420.3277
 Red. masses --      2.7534                 5.7602                 2.8544
 Frc consts  --      0.0782                 0.3811                 0.2971
 IR Inten    --      2.4372                 3.1579                25.8478

                      4                      5                      6
                      A                      A                      A
 Frequencies --    633.3701               827.0723               882.7980
 Red. masses --      4.3291                 3.0313                 2.0056
 Frc consts  --      1.0232                 1.2217                 0.9209
 IR Inten    --      3.1931                23.2642                16.0801

                      7                      8                      9
                      A                      A                      A
 Frequencies --    923.1405               984.2500               986.0583
 Red. masses --      1.5750                 1.8662                 1.7114
 Frc consts  --      0.7908                 1.0652                 0.9804
 IR Inten    --     38.0836                 9.4163                 4.9471

                     10                     11                     12
                      A                      A                      A
 Frequencies --   1035.2732              1089.7672              1143.0336
 Red. masses --      1.6872                 1.9915                 1.2700
 Frc consts  --      1.0654                 1.3935                 0.9776
 IR Inten    --      6.3322                10.4008                 0.1098

                     13                     14                     15
                      A                      A                      A
 Frequencies --   1188.2991              1227.6138              1295.6282
 Red. masses --      4.8583                 3.0275                 3.3854
 Frc consts  --      4.0419                 2.6881                 3.3483
 IR Inten    --     17.4971               178.6394               210.3568

                     16                     17                     18
                      A                      A                      A
 Frequencies --   2909.8485              2930.0954              2946.7560
 Red. masses --      1.1011                 1.1104                 1.1214
 Frc consts  --      5.4930                 5.6168                 5.7373
 IR Inten    --    362.4269               591.6864               176.3926

 - Thermochemistry -
 -------------------
 Temperature   298.150 Kelvin.  Pressure   1.00000 Atm.
 Atom     1 has atomic number  6 and mass  12.00000

 Molecular mass:    63.02348 amu.
 Principal axes and moments of inertia in atomic units:
                           1         2         3
     Eigenvalues --   128.32489 319.45959 422.66690
           X            0.99989   0.00000   0.01483
           Y            0.00000   1.00000  -0.00011
           Z           -0.01483   0.00011   0.99989
 This molecule is an asymmetric top.
 Rotational symmetry number  1.
 Rotational temperatures (Kelvin)      0.67496     0.27113     0.20492
 Rotational constants (GHZ):          14.06384     5.64936     4.26989
 Zero-point vibrational energy     131457.1 (Joules/Mol)
                                   31.41901 (Kcal/Mol)
 Warning -- explicit consideration of   3 degrees of freedom as
           vibrations may cause significant error
 Vibrational temperatures:    315.80   482.12   604.76   911.28  1189.97
          (Kelvin)           1270.15  1328.19  1416.11  1418.72  1489.53
                             1567.93  1644.57  1709.70  1766.26  1864.12
                             4186.62  4215.75  4239.72

 Zero-point correction=                           0.050069 (Hartree/Particle)
 Thermal correction to Energy=                    0.054623
 Thermal correction to Enthalpy=                  0.055567
 Thermal correction to Gibbs Free Energy=         0.022145
 Sum of electronic and zero-point Energies=           -190.345867
 Sum of electronic and thermal Energies=              -190.341314
 Sum of electronic and thermal Enthalpies=            -190.340370
 Sum of electronic and thermal Free Energies=         -190.373792

                     E (Thermal)             CV                S
                      KCal/Mol        Cal/Mol-Kelvin    Cal/Mol-Kelvin
 Total                   34.276             15.580             70.343
 Electronic               0.000              0.000              2.183
 Translational            0.889              2.981             38.342
 Rotational               0.889              2.981             24.364
 Vibrational             32.499              9.618              5.454
 Vibration     1          0.647              1.811              1.963
 Vibration     2          0.716              1.605              1.235
 Vibration     3          0.783              1.426              0.891

 Optimization completed.
    -- Stationary point found.
 Normal termination of Gaussian 09 at Tue Jul 19 18:11:13 2016.
