 Gaussian 09, Revision E.01,
 Gaussian 09:  EM64L-G09RevE.01 30-Nov-2015

 ---------------------------------------------
 #p b3lyp/6-311++G(3df,2p) freq symmetry=Loose
 ---------------------------------------------

 ---------
 b3lyp opt
 ---------
 Symbolic Z-matrix:
 Charge =  1 Multiplicity = 3

                         Standard orientation:
 ---------------------------------------------------------------------
 Center     Atomic      Atomic             Coordinates (Angstroms)
 Number     Number       Type             X           Y           Z
 ---------------------------------------------------------------------
      1          6           0        0.000000    0.476171    0.000000
      2          6           0       -0.805236   -0.679561    0.000000
      3          1           0       -1.877989   -0.528306    0.000000
      4          6           0        1.243938    1.127737    0.000000
      5          6           0       -0.247523   -1.904268    0.000000
      6          6           0        0.129144    1.874937    0.000000
      7          1           0        0.824869   -2.051479    0.000000
      8          1           0       -0.868815   -2.790310    0.000000
 ---------------------------------------------------------------------

 SCF Done:  E(UB3LYP) =  -191.812107963     A.U. after   17 cycles

 The electronic state is 3-A'.
 Alpha  occ. eigenvalues --  -10.53793 -10.53703 -10.52318 -10.42834 -10.42403
 Alpha  occ. eigenvalues --   -1.22556  -1.03728  -0.88663  -0.79800  -0.76023
 Alpha  occ. eigenvalues --   -0.71176  -0.67461  -0.66922  -0.61881  -0.59909
 Alpha  occ. eigenvalues --   -0.53146  -0.52537
 Alpha virt. eigenvalues --   -0.32035  -0.28469  -0.17428  -0.14850  -0.13187
 Alpha virt. eigenvalues --   -0.11886  -0.09986  -0.09501  -0.08503  -0.07956
 Alpha virt. eigenvalues --   -0.07576  -0.05804  -0.05696  -0.04549  -0.03860

  Beta  occ. eigenvalues --  -10.51978 -10.51899 -10.51861 -10.42851 -10.42383
  Beta  occ. eigenvalues --   -1.20147  -1.03349  -0.87945  -0.75921  -0.72500
  Beta  occ. eigenvalues --   -0.67964  -0.65741  -0.65493  -0.60608  -0.52199
  Beta virt. eigenvalues --   -0.43189  -0.37739  -0.31403  -0.24847  -0.17071
  Beta virt. eigenvalues --   -0.14387  -0.12818  -0.11191  -0.09940  -0.08864
  Beta virt. eigenvalues --   -0.08186  -0.07655  -0.05640  -0.05283  -0.04619

 Mulliken charges and spin densities:
               1          2
     1  C    0.434004   0.020251
     2  C   -0.037083   0.074410
     3  H    0.215848   0.013380
     4  C    0.306715   0.963737
     5  C   -0.505643  -0.007463
     6  C    0.162955   0.928286
     7  H    0.189850   0.002834
     8  H    0.233353   0.004565
 Sum of Mulliken charges =   1.00000   2.00000

 Dipole moment (field-independent basis, Debye):
    X=              0.0038    Y=             -0.3446    Z=              0.0000  Tot=              0.3447
 Quadrupole moment (field-independent basis, Debye-Ang):
   XX=            -20.9044   YY=            -12.0294   ZZ=            -27.1784
   XY=              2.5661   XZ=              0.0000   YZ=              0.0000

  Exact polarizability:  45.629   7.358  74.790  -0.000  -0.000  30.059
 Approx polarizability:  77.415   5.302 125.921  -0.000  -0.000  44.272

                      1                      2                      3
                     A"                     A'                     A"
 Frequencies --    132.4785               225.7619               369.9198
 Red. masses --      4.3182                 4.0103                 1.9651
 Frc consts  --      0.0447                 0.1204                 0.1584
 IR Inten    --      0.3939                 0.1133                 3.3394

                      4                      5                      6
                     A'                     A"                     A'
 Frequencies --    528.7971               693.7252               791.5439
 Red. masses --      4.4812                 2.4035                 3.4163
 Frc consts  --      0.7383                 0.6815                 1.2611
 IR Inten    --      0.8989                 5.2824                 0.0681

                      7                      8                      9
                     A"                     A'                     A"
 Frequencies --    979.6190              1036.1341              1088.7645
 Red. masses --      1.0940                 2.1846                 1.3670
 Frc consts  --      0.6185                 1.3818                 0.9548
 IR Inten    --     33.4134                21.5776                14.5719

                     10                     11                     12
                     A'                     A'                     A'
 Frequencies --   1117.1924              1317.6653              1385.1006
 Red. masses --      3.2069                 1.3121                 5.3444
 Frc consts  --      2.3582                 1.3423                 6.0410
 IR Inten    --     42.2174                16.6654               112.7181

                     13                     14                     15
                     A'                     A'                     A'
 Frequencies --   1447.4323              1616.5738              1676.4897
 Red. masses --      1.5007                 2.8263                11.9079
 Frc consts  --      1.8524                 4.3517                19.7191
 IR Inten    --    130.1464                51.5758               142.7710

                     16                     17                     18
                     A'                     A'                     A'
 Frequencies --   3148.9500              3171.9967              3246.1330
 Red. masses --      1.0595                 1.0926                 1.1198
 Frc consts  --      6.1899                 6.4771                 6.9519
 IR Inten    --      5.5585                13.0748                12.1346

 - Thermochemistry -
 -------------------
 Temperature   298.150 Kelvin.  Pressure   1.00000 Atm.
 Atom     1 has atomic number  6 and mass  12.00000

 Molecular mass:    63.02348 amu.
 Principal axes and moments of inertia in atomic units:
                           1         2         3
     Eigenvalues --    74.97787 472.71847 547.69634
           X            0.31756   0.94824   0.00000
           Y            0.94824  -0.31756   0.00000
           Z            0.00000  -0.00000   1.00000
 This molecule is an asymmetric top.
 Rotational symmetry number  1.
 Rotational temperatures (Kelvin)      1.15519     0.18322     0.15814
 Rotational constants (GHZ):          24.07032     3.81779     3.29515
 Zero-point vibrational energy     143398.0 (Joules/Mol)
                                   34.27295 (Kcal/Mol)
 Warning -- explicit consideration of   4 degrees of freedom as
           vibrations may cause significant error
 Vibrational temperatures:    190.61   324.82   532.23   760.82   998.11
          (Kelvin)           1138.85  1409.45  1490.76  1566.49  1607.39
                             1895.82  1992.85  2082.53  2325.89  2412.09
                             4530.63  4563.79  4670.46

 Zero-point correction=                           0.054617 (Hartree/Particle)
 Thermal correction to Energy=                    0.059536
 Thermal correction to Enthalpy=                  0.060481
 Thermal correction to Gibbs Free Energy=         0.026081
 Sum of electronic and zero-point Energies=           -191.757491
 Sum of electronic and thermal Energies=              -191.752572
 Sum of electronic and thermal Enthalpies=            -191.751627
 Sum of electronic and thermal Free Energies=         -191.786027

                     E (Thermal)             CV                S
                      KCal/Mol        Cal/Mol-Kelvin    Cal/Mol-Kelvin
 Total                   37.360             15.636             72.400
 Electronic               0.000              0.000              2.183
 Translational            0.889              2.981             38.342
 Rotational               0.889              2.981             24.477
 Vibrational             35.582              9.674              7.398
 Vibration     1          0.613              1.921              2.910
 Vibration     2          0.650              1.802              1.912
 Vibration     3          0.742              1.534              1.080
 Vibration     4          0.884              1.186              0.590

 Optimization completed.
    -- Stationary point found.
 Normal termination of Gaussian 09 at Sun Jun 19 11:19:12 2016.
