 Gaussian 09, Revision E.01,
 Gaussian 09:  EM64L-G09RevE.01 30-Nov-2015

 ---------------------------------------------
 #p b3lyp/6-311++G(3df,2p) freq symmetry=Loose
 ---------------------------------------------

 ---------
 b3lyp opt
 ---------
 Symbolic Z-matrix:
 Charge =  1 Multiplicity = 1

                         Standard orientation:
 ---------------------------------------------------------------------
 Center     Atomic      Atomic             Coordinates (Angstroms)
 Number     Number       Type             X           Y           Z
 ---------------------------------------------------------------------
      1          6           0        1.891427   -0.029279    0.157917
      2          1           0        2.939514    0.017667    0.378551
      3          6           0        0.687001   -0.070794   -0.120436
      4          6           0       -0.509162    0.825715   -0.109519
      5          1           0       -0.493785    1.800849   -0.586620
      6          6           0       -1.466509   -0.048327    0.300823
      7          1           0       -2.512048   -0.040644    0.559717
      8          6           0       -0.591703   -0.973627   -0.287392
 ---------------------------------------------------------------------

 SCF Done:  E(RB3LYP) =  -191.833093902     A.U. after   13 cycles

 The electronic state is 1-A.
 Alpha  occ. eigenvalues --  -10.50754 -10.49685 -10.47310 -10.46374 -10.45802
 Alpha  occ. eigenvalues --   -1.18815  -1.01831  -0.87564  -0.86169  -0.77588
 Alpha  occ. eigenvalues --   -0.71771  -0.68850  -0.65888  -0.62623  -0.52107
 Alpha  occ. eigenvalues --   -0.48108
 Alpha virt. eigenvalues --   -0.36110  -0.28555  -0.27768  -0.18022  -0.14356
 Alpha virt. eigenvalues --   -0.12793  -0.11997  -0.11259  -0.10090  -0.09394
 Alpha virt. eigenvalues --   -0.08254  -0.06788  -0.05655  -0.04890  -0.03181

 Mulliken charges:
               1
     1  C    0.174510
     2  H    0.385204
     3  C   -0.072320
     4  C    0.021718
     5  H    0.271738
     6  C   -0.090754
     7  H    0.277432
     8  C    0.032472
 Sum of Mulliken charges =   1.00000

 Dipole moment (field-independent basis, Debye):
    X=              0.7068    Y=              2.0468    Z=              0.7594  Tot=              2.2947
 Quadrupole moment (field-independent basis, Debye-Ang):
   XX=             -6.4842   YY=            -23.8374   ZZ=            -27.0019
   XY=             -0.9216   XZ=              0.1962   YZ=             -1.9956

  Exact polarizability:  79.196   3.696  43.685   3.286   1.209  31.479
 Approx polarizability: 193.362  23.927  87.497  16.307   6.013  51.173

                      1                      2                      3
                      A                      A                      A
 Frequencies --    239.1217               273.3209               446.2339
 Red. masses --      3.3467                 2.9621                 5.3069
 Frc consts  --      0.1127                 0.1304                 0.6226
 IR Inten    --      8.7999                10.2160                 8.5285

                      4                      5                      6
                      A                      A                      A
 Frequencies --    546.0086               611.5622               646.7645
 Red. masses --      4.4105                 4.4955                 1.3825
 Frc consts  --      0.7747                 0.9906                 0.3407
 IR Inten    --      2.2534                49.7353                46.6737

                      7                      8                      9
                      A                      A                      A
 Frequencies --    804.6636               834.0800               917.9146
 Red. masses --      1.5494                 1.4856                 1.4653
 Frc consts  --      0.5911                 0.6089                 0.7274
 IR Inten    --     33.6121                35.4900                13.4509

                     10                     11                     12
                      A                      A                      A
 Frequencies --    951.4217              1042.5982              1141.1030
 Red. masses --      3.5480                 1.3008                 1.3504
 Frc consts  --      1.8923                 0.8331                 1.0360
 IR Inten    --     14.0741                 4.8990                 5.1447

                     13                     14                     15
                      A                      A                      A
 Frequencies --   1283.8296              1483.0659              1924.0304
 Red. masses --      3.2796                 5.7384                 6.2080
 Frc consts  --      3.1848                 7.4364                13.5402
 IR Inten    --     33.5796                 0.5983               147.0416

                     16                     17                     18
                      A                      A                      A
 Frequencies --   3162.8218              3271.0999              3362.3455
 Red. masses --      1.0960                 1.1116                 1.1424
 Frc consts  --      6.4597                 7.0079                 7.6094
 IR Inten    --     54.0685                59.7906               194.7409

 - Thermochemistry -
 -------------------
 Temperature   298.150 Kelvin.  Pressure   1.00000 Atm.
 Atom     1 has atomic number  6 and mass  12.00000

 Molecular mass:    63.02348 amu.
 Principal axes and moments of inertia in atomic units:
                           1         2         3
     Eigenvalues --    94.16430 358.80923 428.38933
           X            0.99995  -0.00986   0.00038
           Y            0.00986   0.99848  -0.05418
           Z            0.00015   0.05419   0.99853
 This molecule is an asymmetric top.
 Rotational symmetry number  1.
 Rotational temperatures (Kelvin)      0.91982     0.24139     0.20218
 Rotational constants (GHZ):          19.16587     5.02981     4.21285
 Zero-point vibrational energy     137223.5 (Joules/Mol)
                                   32.79722 (Kcal/Mol)
 Warning -- explicit consideration of   5 degrees of freedom as
           vibrations may cause significant error
 Vibrational temperatures:    344.04   393.25   642.03   785.58   879.90
          (Kelvin)            930.55  1157.73  1200.05  1320.67  1368.88
                             1500.06  1641.79  1847.14  2133.80  2768.25
                             4550.59  4706.38  4837.66

 Zero-point correction=                           0.052266 (Hartree/Particle)
 Thermal correction to Energy=                    0.057115
 Thermal correction to Enthalpy=                  0.058059
 Thermal correction to Gibbs Free Energy=         0.025332
 Sum of electronic and zero-point Energies=           -191.780828
 Sum of electronic and thermal Energies=              -191.775979
 Sum of electronic and thermal Enthalpies=            -191.775034
 Sum of electronic and thermal Free Energies=         -191.807762

                     E (Thermal)             CV                S
                      KCal/Mol        Cal/Mol-Kelvin    Cal/Mol-Kelvin
 Total                   35.840             16.904             68.881
 Electronic               0.000              0.000              0.000
 Translational            0.889              2.981             38.342
 Rotational               0.889              2.981             24.185
 Vibrational             34.063             10.943              6.354
 Vibration     1          0.657              1.781              1.809
 Vibration     2          0.676              1.723              1.575
 Vibration     3          0.805              1.369              0.807
 Vibration     4          0.901              1.148              0.553
 Vibration     5          0.971              1.007              0.430

 Optimization completed.
    -- Stationary point found.
 Normal termination of Gaussian 09 at Sun Jun 19 09:46:26 2016.
