 Gaussian 09, Revision E.01,
 Gaussian 09:  EM64L-G09RevE.01 30-Nov-2015

 ---------------------------------------------
 #p b3lyp/6-311++G(3df,2p) freq symmetry=Loose
 ---------------------------------------------

 ---------
 b3lyp opt
 ---------
 Symbolic Z-matrix:
 Charge =  2 Multiplicity = 4

                         Standard orientation:
 ---------------------------------------------------------------------
 Center     Atomic      Atomic             Coordinates (Angstroms)
 Number     Number       Type             X           Y           Z
 ---------------------------------------------------------------------
      1          6           0        0.377197    0.023398    0.437987
      2          1           0        0.353028   -0.074773    1.543034
      3          6           0        1.463330   -0.781146   -0.248581
      4          6           0        1.679689    0.563719   -0.118473
      5          6           0       -1.020089    0.350106   -0.171798
      6          1           0       -1.455513    1.308976    0.263270
      7          1           0       -1.054808    0.508605   -1.288328
      8          6           0       -2.140579   -0.446545    0.014536
 ---------------------------------------------------------------------

 SCF Done:  E(UB3LYP) =  -191.045375213     A.U. after   23 cycles

 The electronic state is 4-A.
 Alpha  occ. eigenvalues --  -10.82174 -10.78959 -10.78842 -10.74190 -10.70132
 Alpha  occ. eigenvalues --   -1.42969  -1.31779  -1.12469  -1.02822  -1.00069
 Alpha  occ. eigenvalues --   -0.95310  -0.93858  -0.90288  -0.83052  -0.80004
 Alpha  occ. eigenvalues --   -0.79153  -0.74968
 Alpha virt. eigenvalues --   -0.60042  -0.58257  -0.53381  -0.37191  -0.34387
 Alpha virt. eigenvalues --   -0.33294  -0.30819  -0.28725  -0.28144  -0.27849
 Alpha virt. eigenvalues --   -0.24963  -0.23447  -0.21612  -0.21237  -0.19966

  Beta  occ. eigenvalues --  -10.82095 -10.76445 -10.76349 -10.73721 -10.69954
  Beta  occ. eigenvalues --   -1.38935  -1.30915  -1.09686  -1.00864  -0.95415
  Beta  occ. eigenvalues --   -0.91631  -0.89888  -0.86581  -0.79082
  Beta virt. eigenvalues --   -0.66256  -0.63659  -0.59718  -0.59098  -0.57759
  Beta virt. eigenvalues --   -0.44495  -0.34608  -0.32922  -0.32006  -0.29470
  Beta virt. eigenvalues --   -0.27928  -0.27094  -0.26637  -0.24179  -0.22563

 Mulliken charges and spin densities:
               1          2
     1  C    0.428874  -0.001233
     2  H    0.304859   0.071145
     3  C    0.334448   1.383906
     4  C    0.283193   1.375034
     5  C   -0.062260   0.076649
     6  H    0.293954   0.014483
     7  H    0.315684  -0.000708
     8  C    0.101248   0.080723
 Sum of Mulliken charges =   2.00000   3.00000

 Dipole moment (field-independent basis, Debye):
    X=             -1.0795    Y=              0.9637    Z=              0.0072  Tot=              1.4471
 Quadrupole moment (field-independent basis, Debye-Ang):
   XX=             -2.8898   YY=            -19.6201   ZZ=            -18.5791
   XY=             -2.3806   XZ=              0.9924   YZ=             -0.2413

  Exact polarizability:  64.297   2.778  38.826  -3.759   0.596  33.051
 Approx polarizability:  96.035   7.874  75.177  -9.084   2.247  53.461

                      1                      2                      3
                      A                      A                      A
 Frequencies --     76.8836               202.9369               306.8025
 Red. masses --      3.7225                 6.6445                 2.2318
 Frc consts  --      0.0130                 0.1612                 0.1238
 IR Inten    --      5.7251                 6.2503                 2.1071

                      4                      5                      6
                      A                      A                      A
 Frequencies --    358.8601               394.3356               696.0872
 Red. masses --      3.7301                 2.9117                 6.1278
 Frc consts  --      0.2830                 0.2668                 1.7494
 IR Inten    --      0.9056                 1.2643                 2.1972

                      7                      8                      9
                      A                      A                      A
 Frequencies --    725.7064               884.4438               932.5254
 Red. masses --      5.7725                 1.3714                 1.3209
 Frc consts  --      1.7912                 0.6320                 0.6768
 IR Inten    --     23.7410                14.5766                39.3881

                     10                     11                     12
                      A                      A                      A
 Frequencies --    949.0908              1002.0465              1185.7072
 Red. masses --      1.7731                 2.1125                 1.1077
 Frc consts  --      0.9410                 1.2498                 0.9176
 IR Inten    --     27.0492                 6.1336                 8.3102

                     13                     14                     15
                      A                      A                      A
 Frequencies --   1221.6011              1396.5190              1443.1074
 Red. masses --      1.0843                 5.4007                11.7460
 Frc consts  --      0.9533                 6.2057                14.4124
 IR Inten    --     63.9915               280.5961                 5.1740

                     16                     17                     18
                      A                      A                      A
 Frequencies --   2670.7696              2758.3475              2868.2432
 Red. masses --      1.0688                 1.0746                 1.0760
 Frc consts  --      4.4916                 4.8174                 5.2157
 IR Inten    --    219.7342               155.8268               163.9085

 - Thermochemistry -
 -------------------
 Temperature   298.150 Kelvin.  Pressure   1.00000 Atm.
 Atom     1 has atomic number  6 and mass  12.00000

 Molecular mass:    63.02348 amu.
 Principal axes and moments of inertia in atomic units:
                           1         2         3
     Eigenvalues --    87.79833 499.16727 532.20010
           X            0.99969  -0.02113   0.01293
           Y            0.02173   0.99864  -0.04745
           Z           -0.01191   0.04772   0.99879
 This molecule is an asymmetric top.
 Rotational symmetry number  1.
 Rotational temperatures (Kelvin)      0.98651     0.17352     0.16275
 Rotational constants (GHZ):          20.55553     3.61550     3.39110
 Zero-point vibrational energy     120069.3 (Joules/Mol)
                                   28.69724 (Kcal/Mol)
 Warning -- explicit consideration of   5 degrees of freedom as
           vibrations may cause significant error
 Vibrational temperatures:    110.62   291.98   441.42   516.32   567.36
          (Kelvin)           1001.51  1044.13  1272.52  1341.69  1365.53
                             1441.72  1705.97  1757.61  2009.28  2076.31
                             3842.64  3968.64  4126.76

 Zero-point correction=                           0.045732 (Hartree/Particle)
 Thermal correction to Energy=                    0.051429
 Thermal correction to Enthalpy=                  0.052373
 Thermal correction to Gibbs Free Energy=         0.016024
 Sum of electronic and zero-point Energies=           -190.999643
 Sum of electronic and thermal Energies=              -190.993946
 Sum of electronic and thermal Enthalpies=            -190.993002
 Sum of electronic and thermal Free Energies=         -191.029351

                     E (Thermal)             CV                S
                      KCal/Mol        Cal/Mol-Kelvin    Cal/Mol-Kelvin
 Total                   32.272             18.475             76.503
 Electronic               0.000              0.000              2.755
 Translational            0.889              2.981             38.342
 Rotational               0.889              2.981             24.659
 Vibrational             30.495             12.514             10.747
 Vibration     1          0.599              1.965              3.969
 Vibration     2          0.639              1.836              2.106
 Vibration     3          0.697              1.661              1.380
 Vibration     4          0.734              1.557              1.127
 Vibration     5          0.761              1.482              0.984

 Optimization completed.
    -- Stationary point found.
 Normal termination of Gaussian 09 at Sun Jun 19 12:37:03 2016.
