 Gaussian 09, Revision E.01,
 Gaussian 09:  EM64L-G09RevE.01 30-Nov-2015

 ---------------------------------------------
 #p b3lyp/6-311++G(3df,2p) freq symmetry=Loose
 ---------------------------------------------

 ---------
 b3lyp opt
 ---------
 Symbolic Z-matrix:
 Charge =  3 Multiplicity = 1

                         Standard orientation:
 ---------------------------------------------------------------------
 Center     Atomic      Atomic             Coordinates (Angstroms)
 Number     Number       Type             X           Y           Z
 ---------------------------------------------------------------------
      1          6           0        2.380475   -0.648383    0.000000
      2          1           0        3.393266   -1.112285    0.000000
      3          6           0        1.195069   -0.142213    0.000000
      4          6           0       -0.000000    0.553673    0.000000
      5          1           0        0.037952    1.656656    0.000000
      6          6           0       -1.252257   -0.160548    0.000000
      7          1           0       -1.337757   -1.276956    0.000000
      8          6           0       -2.672197    0.519568    0.000000
 ---------------------------------------------------------------------

 SCF Done:  E(RB3LYP) =  -190.371029231     A.U. after   16 cycles

 The electronic state is 1-A'.
 Alpha  occ. eigenvalues --  -11.11134 -10.99442 -10.99145 -10.96284 -10.95974
 Alpha  occ. eigenvalues --   -1.54682  -1.48527  -1.40863  -1.26638  -1.22219
 Alpha  occ. eigenvalues --   -1.18400  -1.12858  -1.04788  -1.02088  -0.98612
 Alpha virt. eigenvalues --   -0.93615  -0.83812  -0.83562  -0.72533  -0.68079
 Alpha virt. eigenvalues --   -0.60068  -0.53810  -0.50401  -0.49934  -0.47978
 Alpha virt. eigenvalues --   -0.44348  -0.43440  -0.41091  -0.39579  -0.38014

 Mulliken charges:
               1
     1  C    0.445071
     2  H    0.492205
     3  C    0.492446
     4  C    0.134212
     5  H    0.287747
     6  C    0.189986
     7  H    0.303931
     8  C    0.654402
 Sum of Mulliken charges =   3.00000

 Dipole moment (field-independent basis, Debye):
    X=             -0.0006    Y=             -1.1685    Z=             -0.0000  Tot=              1.1685
 Quadrupole moment (field-independent basis, Debye-Ang):
   XX=             43.8659   YY=            -12.4870   ZZ=            -20.9095
   XY=            -12.3258   XZ=              0.0000   YZ=             -0.0000

  Exact polarizability: 104.148 -13.565  34.317  -0.000  -0.000  25.385
 Approx polarizability: 264.019 -37.157  55.298  -0.000  -0.000  37.741

                      1                      2                      3
                     A"                     A'                     A'
 Frequencies --     97.3872               171.1445               313.1531
 Red. masses --      4.3194                 4.9283                 6.5221
 Frc consts  --      0.0241                 0.0850                 0.3768
 IR Inten    --      1.7626                 6.2797                13.6296

                      4                      5                      6
                     A"                     A'                     A"
 Frequencies --    337.2127               481.0236               672.7992
 Red. masses --      2.8966                 7.6844                 1.3324
 Frc consts  --      0.1941                 1.0476                 0.3553
 IR Inten    --     21.6603                68.8790                 7.4108

                      7                      8                      9
                     A'                     A'                     A"
 Frequencies --    677.6731               732.6404               764.8807
 Red. masses --      1.2267                 4.6369                 1.5161
 Frc consts  --      0.3319                 1.4664                 0.5226
 IR Inten    --     70.1629               709.7172                43.7124

                     10                     11                     12
                     A"                     A'                     A'
 Frequencies --    921.8298               986.4243              1136.2393
 Red. masses --      1.5936                 4.8106                 1.9803
 Frc consts  --      0.7979                 2.7579                 1.5063
 IR Inten    --     13.7660               211.4718               109.4975

                     13                     14                     15
                     A'                     A'                     A'
 Frequencies --   1217.6406              1388.2017              1903.9716
 Red. masses --      1.6167                 1.4787                 6.4482
 Frc consts  --      1.4122                 1.6789                13.7724
 IR Inten    --      8.7294                54.6345               276.3559

                     16                     17                     18
                     A'                     A'                     A'
 Frequencies --   2831.1383              2964.8119              2990.8301
 Red. masses --      1.0871                 1.1652                 1.0960
 Frc consts  --      5.1338                 6.0343                 5.7764
 IR Inten    --    205.2391               604.8645               147.7470

 - Thermochemistry -
 -------------------
 Temperature   298.150 Kelvin.  Pressure   1.00000 Atm.
 Atom     1 has atomic number  6 and mass  12.00000

 Molecular mass:    63.02348 amu.
 Principal axes and moments of inertia in atomic units:
                           1         2         3
     Eigenvalues --    39.65129 750.07998 789.73127
           X            0.98210   0.18837   0.00000
           Y           -0.18837   0.98210   0.00000
           Z           -0.00000   0.00000   1.00000
 This molecule is an asymmetric top.
 Rotational symmetry number  1.
 Rotational temperatures (Kelvin)      2.18439     0.11547     0.10968
 Rotational constants (GHZ):          45.51532     2.40607     2.28526
 Zero-point vibrational energy     123149.6 (Joules/Mol)
                                   29.43346 (Kcal/Mol)
 Warning -- explicit consideration of   5 degrees of freedom as
           vibrations may cause significant error
 Vibrational temperatures:    140.12   246.24   450.56   485.17   692.08
          (Kelvin)            968.01   975.02  1054.10  1100.49  1326.31
                             1419.24  1634.79  1751.91  1997.31  2739.39
                             4073.37  4265.70  4303.13

 Zero-point correction=                           0.046905 (Hartree/Particle)
 Thermal correction to Energy=                    0.052673
 Thermal correction to Enthalpy=                  0.053617
 Thermal correction to Gibbs Free Energy=         0.018582
 Sum of electronic and zero-point Energies=           -190.324124
 Sum of electronic and thermal Energies=              -190.318356
 Sum of electronic and thermal Enthalpies=            -190.317412
 Sum of electronic and thermal Free Energies=         -190.352447

                     E (Thermal)             CV                S
                      KCal/Mol        Cal/Mol-Kelvin    Cal/Mol-Kelvin
 Total                   33.053             19.001             73.737
 Electronic               0.000              0.000              0.000
 Translational            0.889              2.981             38.342
 Rotational               0.889              2.981             24.666
 Vibrational             31.275             13.040             10.728
 Vibration     1          0.603              1.951              3.506
 Vibration     2          0.626              1.878              2.423
 Vibration     3          0.701              1.649              1.346
 Vibration     4          0.718              1.601              1.225
 Vibration     5          0.837              1.292              0.707

 Optimization completed.
    -- Stationary point found.
 Normal termination of Gaussian 09 at Sun Jun 19 13:58:06 2016.
