 Gaussian 09, Revision E.01,
 Gaussian 09:  EM64L-G09RevE.01 30-Nov-2015

 ---------------------------------------------
 #p b3lyp/6-311++G(3df,2p) freq symmetry=Loose
 ---------------------------------------------

 ---------
 b3lyp opt
 ---------
 Symbolic Z-matrix:
 Charge =  2 Multiplicity = 2

                         Standard orientation:
 ---------------------------------------------------------------------
 Center     Atomic      Atomic             Coordinates (Angstroms)
 Number     Number       Type             X           Y           Z
 ---------------------------------------------------------------------
      1          6           0       -0.396334   -0.011044   -0.000700
      2          6           0        1.007848    0.303361   -0.001696
      3          1           0        1.388512    1.387546   -0.006921
      4          6           0       -1.421801   -0.895739   -0.001254
      5          6           0        2.160422   -0.192355    0.001655
      6          6           0       -1.717345    0.428307    0.001725
      7          1           0        3.223065   -0.453486    0.004328
      8          1           0       -2.408317    1.270760    0.004207
 ---------------------------------------------------------------------

 SCF Done:  E(UB3LYP) =  -191.296771667     A.U. after   16 cycles

 The electronic state is 2-A.
 Alpha  occ. eigenvalues --  -10.77540 -10.74058 -10.73202 -10.71238 -10.70856
 Alpha  occ. eigenvalues --   -1.42550  -1.31625  -1.13492  -1.03781  -1.02035
 Alpha  occ. eigenvalues --   -0.95518  -0.92297  -0.87626  -0.85047  -0.79629
 Alpha  occ. eigenvalues --   -0.75091
 Alpha virt. eigenvalues --   -0.58327  -0.54462  -0.47314  -0.38693  -0.35728
 Alpha virt. eigenvalues --   -0.32740  -0.29440  -0.28890  -0.26449  -0.25485
 Alpha virt. eigenvalues --   -0.25423  -0.24920  -0.21907  -0.21872  -0.20844

  Beta  occ. eigenvalues --  -10.77540 -10.73848 -10.71444 -10.71071 -10.70853
  Beta  occ. eigenvalues --   -1.41518  -1.31535  -1.13095  -1.02977  -1.01617
  Beta  occ. eigenvalues --   -0.94990  -0.88488  -0.87210  -0.83725  -0.79392
  Beta virt. eigenvalues --   -0.58834  -0.58141  -0.54186  -0.45427  -0.38119
  Beta virt. eigenvalues --   -0.35375  -0.32458  -0.29045  -0.28686  -0.25992
  Beta virt. eigenvalues --   -0.25474  -0.25240  -0.24101  -0.21717  -0.20837

 Mulliken charges and spin densities:
               1          2
     1  C    0.527802  -0.105660
     2  C   -0.101551   0.101014
     3  H    0.270994   0.005516
     4  C    0.159144   0.910519
     5  C    0.196587  -0.006254
     6  C    0.152744   0.090810
     7  H    0.440786   0.001165
     8  H    0.353494   0.002890
 Sum of Mulliken charges =   2.00000   1.00000

 Dipole moment (field-independent basis, Debye):
    X=              3.4303    Y=              1.4142    Z=              0.0040  Tot=              3.7103
 Quadrupole moment (field-independent basis, Debye-Ang):
   XX=             17.5166   YY=            -16.2823   ZZ=            -24.6717
   XY=             -3.1471   XZ=              0.0033   YZ=             -0.0176

  Exact polarizability:  64.638  -2.229  36.027   0.011  -0.006  24.211
 Approx polarizability: 105.380  -7.345  63.626   0.052  -0.027  35.372

                      1                      2                      3
                      A                      A                      A
 Frequencies --     77.5546                97.8422               360.7460
 Red. masses --      2.2179                 2.9721                 3.1686
 Frc consts  --      0.0079                 0.0168                 0.2430
 IR Inten    --      2.8609                23.1888                 4.9893

                      4                      5                      6
                      A                      A                      A
 Frequencies --    365.9267               627.9111               684.8705
 Red. masses --      2.1707                 2.4396                 4.6467
 Frc consts  --      0.1713                 0.5667                 1.2841
 IR Inten    --     37.5061                27.1255                 4.7324

                      7                      8                      9
                      A                      A                      A
 Frequencies --    736.2212               892.0827               929.3091
 Red. masses --      1.3634                 1.3478                 1.3947
 Frc consts  --      0.4354                 0.6319                 0.7096
 IR Inten    --     30.4184                12.9101                27.1168

                     10                     11                     12
                      A                      A                      A
 Frequencies --    986.2301              1011.1221              1226.4431
 Red. masses --      1.2780                 1.4165                 9.1012
 Frc consts  --      0.7324                 0.8532                 8.0657
 IR Inten    --     18.8057                14.7902                87.7427

                     13                     14                     15
                      A                      A                      A
 Frequencies --   1349.7003              1715.5362              1923.0404
 Red. masses --      7.4018                 7.9354                 6.0124
 Frc consts  --      7.9444                13.7600                13.1002
 IR Inten    --     58.2066                21.9090               189.9693

                     16                     17                     18
                      A                      A                      A
 Frequencies --   2625.0758              3157.2316              3168.1373
 Red. masses --      1.0703                 1.1533                 1.1234
 Frc consts  --      4.3456                 6.7732                 6.6434
 IR Inten    --    252.6093               384.7480               130.8837

 - Thermochemistry -
 -------------------
 Temperature   298.150 Kelvin.  Pressure   1.00000 Atm.
 Atom     1 has atomic number  6 and mass  12.00000

 Molecular mass:    63.02348 amu.
 Principal axes and moments of inertia in atomic units:
                           1         2         3
     Eigenvalues --    60.81877 528.38410 589.20137
           X            0.99982  -0.01909  -0.00003
           Y            0.01909   0.99982  -0.00035
           Z            0.00004   0.00035   1.00000
 This molecule is an asymmetric top.
 Rotational symmetry number  1.
 Rotational temperatures (Kelvin)      1.42413     0.16392     0.14700
 Rotational constants (GHZ):          29.67408     3.41559     3.06303
 Zero-point vibrational energy     131200.3 (Joules/Mol)
                                   31.35763 (Kcal/Mol)
 Warning -- explicit consideration of   4 degrees of freedom as
           vibrations may cause significant error
 Vibrational temperatures:    111.58   140.77   519.03   526.49   903.42
          (Kelvin)            985.37  1059.26  1283.51  1337.07  1418.96
                             1454.78  1764.58  1941.92  2468.27  2766.82
                             3776.89  4542.55  4558.24

 Zero-point correction=                           0.049972 (Hartree/Particle)
 Thermal correction to Energy=                    0.055583
 Thermal correction to Enthalpy=                  0.056527
 Thermal correction to Gibbs Free Energy=         0.020725
 Sum of electronic and zero-point Energies=           -191.246800
 Sum of electronic and thermal Energies=              -191.241189
 Sum of electronic and thermal Enthalpies=            -191.240244
 Sum of electronic and thermal Free Energies=         -191.276047

                     E (Thermal)             CV                S
                      KCal/Mol        Cal/Mol-Kelvin    Cal/Mol-Kelvin
 Total                   34.879             17.661             75.353
 Electronic               0.000              0.000              1.377
 Translational            0.889              2.981             38.342
 Rotational               0.889              2.981             24.452
 Vibrational             33.101             11.699             11.182
 Vibration     1          0.599              1.964              3.952
 Vibration     2          0.603              1.951              3.497
 Vibration     3          0.735              1.553              1.119
 Vibration     4          0.739              1.542              1.097

 Normal termination of Gaussian 09 at Sun Jun 19 12:06:47 2016.
