 Gaussian 09, Revision E.01,
 Gaussian 09:  EM64L-G09RevE.01 30-Nov-2015

 ---------------------------------------------
 #p b3lyp/6-311++G(3df,2p) freq symmetry=Loose
 ---------------------------------------------

 ---------
 b3lyp opt
 ---------
 Symbolic Z-matrix:
 Charge =  3 Multiplicity = 3

                         Standard orientation:
 ---------------------------------------------------------------------
 Center     Atomic      Atomic             Coordinates (Angstroms)
 Number     Number       Type             X           Y           Z
 ---------------------------------------------------------------------
      1          6           0        0.803054    0.000020    0.283753
      2          6           0       -0.403582   -0.896705    0.040200
      3          6           0       -1.496275   -0.000008   -0.119807
      4          6           0       -0.403582    0.896710    0.040074
      5          1           0        1.144595    0.000098    1.398972
      6          1           0       -2.482587    0.000037    0.526925
      7          1           0       -2.217125   -0.000074   -1.057061
      8          6           0        2.092905   -0.000027   -0.389026
 ---------------------------------------------------------------------

 SCF Done:  E(UB3LYP) =  -190.238436445     A.U. after   21 cycles

 The electronic state is 3-A.
 Alpha  occ. eigenvalues --  -11.13442 -11.05972 -11.05967 -11.03080 -10.96728
 Alpha  occ. eigenvalues --   -1.70591  -1.54275  -1.39521  -1.31896  -1.26060
 Alpha  occ. eigenvalues --   -1.20490  -1.17934  -1.15702  -1.11563  -1.02587
 Alpha  occ. eigenvalues --   -1.01823
 Alpha virt. eigenvalues --   -0.88659  -0.85786  -0.82816  -0.79266  -0.57272
 Alpha virt. eigenvalues --   -0.55719  -0.53947  -0.50223  -0.49802  -0.47055
 Alpha virt. eigenvalues --   -0.46899  -0.45232  -0.42112  -0.40510  -0.38919

  Beta  occ. eigenvalues --  -11.09645 -11.05818 -11.05812 -11.02828 -10.96639
  Beta  occ. eigenvalues --   -1.70213  -1.51182  -1.36715  -1.31312  -1.24476
  Beta  occ. eigenvalues --   -1.19906  -1.16565  -1.12527  -1.02037
  Beta virt. eigenvalues --   -0.92065  -0.85196  -0.83647  -0.82662  -0.82477
  Beta virt. eigenvalues --   -0.75677  -0.55450  -0.55442  -0.52855  -0.49850
  Beta virt. eigenvalues --   -0.49106  -0.46795  -0.46095  -0.43303  -0.41083

 Mulliken charges and spin densities:
               1          2
     1  C    0.314449   0.112394
     2  C    0.710253   0.062242
     3  C   -0.344482   0.042605
     4  C    0.710253   0.062242
     5  H    0.370904  -0.012012
     6  H    0.371164   0.000120
     7  H    0.387360   0.009101
     8  C    0.480100   1.723307
 Sum of Mulliken charges =   3.00000   2.00000

 Dipole moment (field-independent basis, Debye):
    X=              0.1059    Y=             -0.0000    Z=             -0.1322  Tot=              0.1694
 Quadrupole moment (field-independent basis, Debye-Ang):
   XX=             23.3022   YY=            -20.1518   ZZ=            -14.0891
   XY=              0.0001   XZ=              1.1324   YZ=              0.0004

  Exact polarizability:  60.547   0.001  36.281   0.486  -0.001  29.702
 Approx polarizability: 105.761   0.000 101.873   0.385  -0.004  51.261

                      1                      2                      3
                      A                      A                      A
 Frequencies --    257.0832               337.7993               437.5528
 Red. masses --      2.8908                 4.6631                 1.6657
 Frc consts  --      0.1126                 0.3135                 0.1879
 IR Inten    --     38.2690                19.3720                96.5910

                      4                      5                      6
                      A                      A                      A
 Frequencies --    531.8652               615.3988               675.0034
 Red. masses --      3.6090                 1.5395                 3.5210
 Frc consts  --      0.6015                 0.3435                 0.9452
 IR Inten    --     23.8908               443.7253               110.2965

                      7                      8                      9
                      A                      A                      A
 Frequencies --    687.6401               692.5168               809.0376
 Red. masses --      1.2831                 3.4590                 6.3269
 Frc consts  --      0.3575                 0.9774                 2.4399
 IR Inten    --      7.0180               129.6191                26.2659

                     10                     11                     12
                      A                      A                      A
 Frequencies --    869.8965               933.1330               940.0978
 Red. masses --      4.2578                 1.2992                 1.4551
 Frc consts  --      1.8983                 0.6665                 0.7577
 IR Inten    --     18.7550                 2.4013                95.2429

                     13                     14                     15
                      A                      A                      A
 Frequencies --    948.1929              1171.7121              1296.1027
 Red. masses --      1.8739                 2.6560                 4.5722
 Frc consts  --      0.9926                 2.1484                 4.5254
 IR Inten    --      4.0238                20.5871                21.6249

                     16                     17                     18
                      A                      A                      A
 Frequencies --   2178.4092              2364.3290              2432.6551
 Red. masses --      1.0688                 1.0807                 1.0937
 Frc consts  --      2.9882                 3.5593                 3.8134
 IR Inten    --    574.7903              1603.0383               556.8436

 - Thermochemistry -
 -------------------
 Temperature   298.150 Kelvin.  Pressure   1.00000 Atm.
 Atom     1 has atomic number  6 and mass  12.00000

 Molecular mass:    63.02348 amu.
 Principal axes and moments of inertia in atomic units:
                           1         2         3
     Eigenvalues --    91.38312 391.83585 438.28172
           X            0.99965  -0.00000   0.02644
           Y           -0.00000   1.00000   0.00007
           Z           -0.02644  -0.00007   0.99965
 This molecule is an asymmetric top.
 Rotational symmetry number  1.
 Rotational temperatures (Kelvin)      0.94781     0.22105     0.19762
 Rotational constants (GHZ):          19.74917     4.60586     4.11777
 Zero-point vibrational energy     108731.1 (Joules/Mol)
                                   25.98736 (Kcal/Mol)
 Warning -- explicit consideration of   5 degrees of freedom as
           vibrations may cause significant error
 Vibrational temperatures:    369.88   486.02   629.54   765.23   885.42
          (Kelvin)            971.18   989.36   996.38  1164.02  1251.59
                             1342.57  1352.59  1364.24  1685.83  1864.80
                             3134.24  3401.74  3500.04

 Zero-point correction=                           0.041414 (Hartree/Particle)
 Thermal correction to Energy=                    0.046388
 Thermal correction to Enthalpy=                  0.047332
 Thermal correction to Gibbs Free Energy=         0.013456
 Sum of electronic and zero-point Energies=           -190.197023
 Sum of electronic and thermal Energies=              -190.192049
 Sum of electronic and thermal Enthalpies=            -190.191104
 Sum of electronic and thermal Free Energies=         -190.224981

                     E (Thermal)             CV                S
                      KCal/Mol        Cal/Mol-Kelvin    Cal/Mol-Kelvin
 Total                   29.109             18.359             71.299
 Electronic               0.000              0.000              2.183
 Translational            0.889              2.981             38.342
 Rotational               0.889              2.981             24.266
 Vibrational             27.331             12.397              6.508
 Vibration     1          0.667              1.751              1.681
 Vibration     2          0.718              1.600              1.223
 Vibration     3          0.798              1.388              0.834
 Vibration     4          0.887              1.180              0.583
 Vibration     5          0.975              0.999              0.424

 Optimization completed.
    -- Stationary point found.
 Normal termination of Gaussian 09 at Tue Jul 19 19:43:59 2016.
