 Gaussian 09, Revision E.01,
 Gaussian 09:  EM64L-G09RevE.01 30-Nov-2015

 ---------------------------------------------
 #p b3lyp/6-311++G(3df,2p) freq symmetry=Loose
 ---------------------------------------------

 ---------
 b3lyp opt
 ---------
 Symbolic Z-matrix:
 Charge =  1 Multiplicity = 1

                         Standard orientation:
 ---------------------------------------------------------------------
 Center     Atomic      Atomic             Coordinates (Angstroms)
 Number     Number       Type             X           Y           Z
 ---------------------------------------------------------------------
      1          6           0        0.801010   -0.079513   -0.000060
      2          6           0       -0.439559   -0.702229   -0.000077
      3          6           0        2.106592   -0.275149   -0.000167
      4          6           0       -0.242027    1.004432    0.000162
      5          1           0       -0.418734    1.504883   -0.943599
      6          1           0       -0.418621    1.504606    0.944092
      7          6           0       -1.635798   -0.399439    0.000039
      8          1           0       -2.703953   -0.298107    0.000118
 ---------------------------------------------------------------------

 SCF Done:  E(RB3LYP) =  -191.790678528     A.U. after   13 cycles

 The electronic state is 1-A.
 Alpha  occ. eigenvalues --  -10.52221 -10.50998 -10.49647 -10.49127 -10.45785
 Alpha  occ. eigenvalues --   -1.18662  -1.01909  -0.93754  -0.87375  -0.78686
 Alpha  occ. eigenvalues --   -0.74355  -0.68668  -0.63506  -0.59351  -0.52426
 Alpha  occ. eigenvalues --   -0.51332
 Alpha virt. eigenvalues --   -0.35548  -0.28977  -0.27452  -0.25002  -0.16470
 Alpha virt. eigenvalues --   -0.14492  -0.14061  -0.12198  -0.11541  -0.09054
 Alpha virt. eigenvalues --   -0.08894  -0.06920  -0.06600  -0.05503  -0.04966

 Mulliken charges:
               1
     1  C    0.978269
     2  C    0.038710
     3  C   -0.560206
     4  C   -0.595763
     5  H    0.267881
     6  H    0.267881
     7  C    0.228236
     8  H    0.374992
 Sum of Mulliken charges =   1.00000

 Dipole moment (field-independent basis, Debye):
    X=             -4.0901    Y=              1.5026    Z=              0.0005  Tot=              4.3573
 Quadrupole moment (field-independent basis, Debye-Ang):
   XX=            -17.6802   YY=            -20.8661   ZZ=            -26.6053
   XY=              0.6908   XZ=             -0.0004   YZ=              0.0008

  Exact polarizability:  74.030  -0.187  41.626  -0.003   0.001  31.856
 Approx polarizability: 146.127  -1.515  70.758  -0.006   0.004  46.255

                      1                      2                      3
                      A                      A                      A
 Frequencies --     66.1566               195.6975               226.0168
 Red. masses --      6.8680                 5.5652                 8.0198
 Frc consts  --      0.0177                 0.1256                 0.2414
 IR Inten    --      6.8658                 1.7248                 5.3967

                      4                      5                      6
                      A                      A                      A
 Frequencies --    447.5287               609.3108               611.2054
 Red. masses --      5.4946                10.8136                 1.2280
 Frc consts  --      0.6484                 2.3654                 0.2703
 IR Inten    --      0.0662                 7.8202                49.0949

                      7                      8                      9
                      A                      A                      A
 Frequencies --    807.6463               937.8894               945.6344
 Red. masses --      1.4436                 4.3187                 1.0945
 Frc consts  --      0.5548                 2.2383                 0.5767
 IR Inten    --     17.7300                 8.0296                 0.0360

                     10                     11                     12
                      A                      A                      A
 Frequencies --    961.9702              1025.0028              1120.2817
 Red. masses --      3.3953                 1.2387                 1.2621
 Frc consts  --      1.8512                 0.7668                 0.9332
 IR Inten    --      6.8352                 0.0571                 3.2947

                     13                     14                     15
                      A                      A                      A
 Frequencies --   1443.7390              1758.1468              2022.7319
 Red. masses --      1.0934                 9.9358                 6.6660
 Frc consts  --      1.3427                18.0952                16.0692
 IR Inten    --      1.0030               289.7166                43.2830

                     16                     17                     18
                      A                      A                      A
 Frequencies --   3116.6079              3253.1116              3353.1048
 Red. masses --      1.0460                 1.1285                 1.1489
 Frc consts  --      5.9862                 7.0366                 7.6105
 IR Inten    --     16.4024                31.8806               245.0440

 - Thermochemistry -
 -------------------
 Temperature   298.150 Kelvin.  Pressure   1.00000 Atm.
 Atom     1 has atomic number  6 and mass  12.00000

 Molecular mass:    63.02348 amu.
 Principal axes and moments of inertia in atomic units:
                           1         2         3
     Eigenvalues --    97.32146 376.42557 460.92241
           X            0.99997  -0.00768   0.00006
           Y            0.00768   0.99997  -0.00015
           Z           -0.00006   0.00015   1.00000
 This molecule is an asymmetric top.
 Rotational symmetry number  1.
 Rotational temperatures (Kelvin)      0.88998     0.23010     0.18791
 Rotational constants (GHZ):          18.54412     4.79442     3.91550
 Zero-point vibrational energy     136983.1 (Joules/Mol)
                                   32.73974 (Kcal/Mol)
 Warning -- explicit consideration of   6 degrees of freedom as
           vibrations may cause significant error
 Vibrational temperatures:     95.18   281.56   325.19   643.89   876.66
          (Kelvin)            879.39  1162.02  1349.41  1360.56  1384.06
                             1474.75  1611.83  2077.22  2529.58  2910.26
                             4484.10  4680.50  4824.36

 Zero-point correction=                           0.052174 (Hartree/Particle)
 Thermal correction to Energy=                    0.057747
 Thermal correction to Enthalpy=                  0.058692
 Thermal correction to Gibbs Free Energy=         0.023814
 Sum of electronic and zero-point Energies=           -191.738504
 Sum of electronic and thermal Energies=              -191.732931
 Sum of electronic and thermal Enthalpies=            -191.731987
 Sum of electronic and thermal Free Energies=         -191.766864

                     E (Thermal)             CV                S
                      KCal/Mol        Cal/Mol-Kelvin    Cal/Mol-Kelvin
 Total                   36.237             17.661             73.405
 Electronic               0.000              0.000              0.000
 Translational            0.889              2.981             38.342
 Rotational               0.889              2.981             24.338
 Vibrational             34.460             11.700             10.725
 Vibration     1          0.598              1.970              4.265
 Vibration     2          0.636              1.846              2.173
 Vibration     3          0.650              1.801              1.910
 Vibration     4          0.807              1.366              0.803
 Vibration     5          0.968              1.012              0.434
 Vibration     6          0.970              1.008              0.431

 Optimization completed.
    -- Stationary point found.
 Normal termination of Gaussian 09 at Tue Jul 19 16:47:42 2016.
