 Gaussian 09, Revision E.01,
 Gaussian 09:  EM64L-G09RevE.01 30-Nov-2015

 ---------------------------------------------
 #p b3lyp/6-311++G(3df,2p) freq symmetry=Loose
 ---------------------------------------------

 ---------
 b3lyp opt
 ---------
 Symbolic Z-matrix:
 Charge =  0 Multiplicity = 4

                         Standard orientation:
 ---------------------------------------------------------------------
 Center     Atomic      Atomic             Coordinates (Angstroms)
 Number     Number       Type             X           Y           Z
 ---------------------------------------------------------------------
      1          6           0       -0.330816    1.256146   -0.000204
      2          6           0       -0.957604    0.029140    0.000018
      3          6           0        0.495354    0.198753   -0.000046
      4          6           0       -2.109958   -0.774352    0.000182
      5          6           0        1.822989   -0.415506    0.000026
      6          1           0        1.936239   -1.053493   -0.878704
      7          1           0        2.607692    0.341605   -0.000121
      8          1           0        1.936282   -1.053195    0.878968
 ---------------------------------------------------------------------

 SCF Done:  E(UB3LYP) =  -192.036067686     A.U. after   19 cycles

 The electronic state is 4-A.
 Alpha  occ. eigenvalues --  -10.28388 -10.26157 -10.26075 -10.22930 -10.20217
 Alpha  occ. eigenvalues --   -0.97292  -0.80076  -0.72772  -0.56531  -0.52613
 Alpha  occ. eigenvalues --   -0.49031  -0.45803  -0.43264  -0.41665  -0.32632
 Alpha  occ. eigenvalues --   -0.30468  -0.24864  -0.19036
 Alpha virt. eigenvalues --   -0.06186  -0.02367   0.00393   0.01621   0.01997
 Alpha virt. eigenvalues --    0.02785   0.05130   0.06163   0.06328   0.06912
 Alpha virt. eigenvalues --    0.07892   0.08507   0.09752   0.09906   0.10690

  Beta  occ. eigenvalues --  -10.27612 -10.25731 -10.24749 -10.22934 -10.17916
  Beta  occ. eigenvalues --   -0.95330  -0.79501  -0.66866  -0.54865  -0.49819
  Beta  occ. eigenvalues --   -0.48177  -0.42699  -0.41024  -0.39169  -0.25381
  Beta virt. eigenvalues --   -0.18420  -0.13319  -0.04330  -0.03256  -0.02230
  Beta virt. eigenvalues --    0.01864   0.01939   0.03189   0.03778   0.05769
  Beta virt. eigenvalues --    0.06504   0.06642   0.07401   0.08700   0.09355

 Mulliken charges and spin densities:
               1          2
     1  C   -0.236006   0.799044
     2  C    0.684749   0.124575
     3  C    0.164140   0.485178
     4  C   -0.743480   1.516936
     5  C   -0.373430   0.025522
     6  H    0.172236   0.010129
     7  H    0.159554   0.028488
     8  H    0.172236   0.010129
 Sum of Mulliken charges =  -0.00000   3.00000

 Dipole moment (field-independent basis, Debye):
    X=              5.5530    Y=              0.3159    Z=             -0.0002  Tot=              5.5619
 Quadrupole moment (field-independent basis, Debye-Ang):
   XX=            -36.3203   YY=            -32.6672   ZZ=            -29.0404
   XY=             -4.7773   XZ=              0.0010   YZ=              0.0007

  Exact polarizability: 104.866  33.824  97.468  -0.007  -0.010  42.751
 Approx polarizability: 157.013  56.574 148.605  -0.012  -0.016  60.527

                      1                      2                      3
                      A                      A                      A
 Frequencies --     82.8120               204.5917               266.2522
 Red. masses --      1.0939                 4.1208                 5.2432
 Frc consts  --      0.0044                 0.1016                 0.2190
 IR Inten    --      0.9912                 2.1331                 9.1917

                      4                      5                      6
                      A                      A                      A
 Frequencies --    426.2117               445.9347               500.5919
 Red. masses --      5.3183                10.6107                 4.4054
 Frc consts  --      0.5692                 1.2432                 0.6504
 IR Inten    --     11.8069               272.4178               166.7565

                      7                      8                      9
                      A                      A                      A
 Frequencies --    835.8571               953.9410              1021.6956
 Red. masses --      5.3831                 5.3869                 1.4636
 Frc consts  --      2.2159                 2.8883                 0.9002
 IR Inten    --     74.4924                32.4310                 1.3841

                     10                     11                     12
                      A                      A                      A
 Frequencies --   1070.2321              1395.5875              1423.5050
 Red. masses --      1.7177                 1.2386                 4.4967
 Frc consts  --      1.1592                 1.4214                 5.3686
 IR Inten    --     80.5599                 0.7259                32.7365

                     13                     14                     15
                      A                      A                      A
 Frequencies --   1461.3866              1466.8609              1693.6514
 Red. masses --      1.0412                 1.1886                11.5980
 Frc consts  --      1.3101                 1.5068                19.6012
 IR Inten    --     11.9357                 0.7465                49.2439

                     16                     17                     18
                      A                      A                      A
 Frequencies --   3022.1622              3083.8799              3098.2356
 Red. masses --      1.0329                 1.0988                 1.1034
 Frc consts  --      5.5581                 6.1570                 6.2406
 IR Inten    --      2.8635                 0.2134                 8.7036

 - Thermochemistry -
 -------------------
 Temperature   298.150 Kelvin.  Pressure   1.00000 Atm.
 Atom     1 has atomic number  6 and mass  12.00000

 Molecular mass:    63.02348 amu.
 Principal axes and moments of inertia in atomic units:
                           1         2         3
     Eigenvalues --   115.79636 442.80325 547.48080
           X            0.99933  -0.03652   0.00002
           Y            0.03652   0.99933   0.00017
           Z           -0.00003  -0.00017   1.00000
 This molecule is an asymmetric top.
 Rotational symmetry number  1.
 Rotational temperatures (Kelvin)      0.74798     0.19560     0.15820
 Rotational constants (GHZ):          15.58547     4.07572     3.29645
 Zero-point vibrational energy     134301.1 (Joules/Mol)
                                   32.09873 (Kcal/Mol)
 Warning -- explicit consideration of   6 degrees of freedom as
           vibrations may cause significant error
 Vibrational temperatures:    119.15   294.36   383.08   613.22   641.60
          (Kelvin)            720.24  1202.61  1372.51  1469.99  1539.82
                             2007.94  2048.10  2102.61  2110.48  2436.78
                             4348.21  4437.01  4457.66

 Zero-point correction=                           0.051153 (Hartree/Particle)
 Thermal correction to Energy=                    0.056749
 Thermal correction to Enthalpy=                  0.057693
 Thermal correction to Gibbs Free Energy=         0.021428
 Sum of electronic and zero-point Energies=           -191.984915
 Sum of electronic and thermal Energies=              -191.979319
 Sum of electronic and thermal Enthalpies=            -191.978375
 Sum of electronic and thermal Free Energies=         -192.014640

                     E (Thermal)             CV                S
                      KCal/Mol        Cal/Mol-Kelvin    Cal/Mol-Kelvin
 Total                   35.611             17.620             76.327
 Electronic               0.000              0.000              2.755
 Translational            0.889              2.981             38.342
 Rotational               0.889              2.981             24.843
 Vibrational             33.833             11.658             10.387
 Vibration     1          0.600              1.961              3.823
 Vibration     2          0.640              1.833              2.091
 Vibration     3          0.672              1.735              1.620
 Vibration     4          0.788              1.413              0.871
 Vibration     5          0.805              1.370              0.808
 Vibration     6          0.856              1.249              0.657

 Optimization completed.
    -- Stationary point found.
 Normal termination of Gaussian 09 at Tue Jul 19 14:31:27 2016.
