 Gaussian 09, Revision E.01,
 Gaussian 09:  EM64L-G09RevE.01 30-Nov-2015

 ---------------------------------------------
 #p b3lyp/6-311++G(3df,2p) freq symmetry=Loose
 ---------------------------------------------

 ---------
 b3lyp opt
 ---------
 Symbolic Z-matrix:
 Charge =  3 Multiplicity = 1

                         Standard orientation:
 ---------------------------------------------------------------------
 Center     Atomic      Atomic             Coordinates (Angstroms)
 Number     Number       Type             X           Y           Z
 ---------------------------------------------------------------------
      1          6           0       -0.618680    1.852352    0.000000
      2          1           0       -0.849092    2.374981    0.963649
      3          1           0       -0.849092    2.374981   -0.963649
      4          6           0        0.000000    0.569298    0.000000
      5          6           0        0.012792   -0.825547   -0.000000
      6          6           0       -0.706438   -2.189297   -0.000000
      7          6           0        1.208527   -0.173840   -0.000000
      8          1           0        2.320984   -0.147756   -0.000000
 ---------------------------------------------------------------------

 SCF Done:  E(RB3LYP) =  -190.432562319     A.U. after   13 cycles

 The electronic state is 1-A'.
 Alpha  occ. eigenvalues --  -11.13603 -11.01335 -11.00474 -10.99459 -10.99149
 Alpha  occ. eigenvalues --   -1.68560  -1.47706  -1.44049  -1.27259  -1.22298
 Alpha  occ. eigenvalues --   -1.16317  -1.13928  -1.11914  -1.09270  -1.03976
 Alpha virt. eigenvalues --   -0.88591  -0.86564  -0.83080  -0.74674  -0.69194
 Alpha virt. eigenvalues --   -0.56709  -0.53434  -0.50225  -0.48809  -0.46934
 Alpha virt. eigenvalues --   -0.45248  -0.44111  -0.42574  -0.41389  -0.40493

 Mulliken charges:
               1
     1  C   -0.070042
     2  H    0.370101
     3  H    0.370101
     4  C    0.308504
     5  C    0.663750
     6  C    0.736415
     7  C    0.203690
     8  H    0.417481
 Sum of Mulliken charges =   3.00000

 Dipole moment (field-independent basis, Debye):
    X=             -0.8271    Y=              1.4524    Z=             -0.0000  Tot=              1.6714
 Quadrupole moment (field-independent basis, Debye-Ang):
   XX=             -5.6005   YY=             20.2432   ZZ=            -18.6073
   XY=             -3.8905   XZ=             -0.0000   YZ=              0.0000

  Exact polarizability:  37.372  -1.062  64.661  -0.000  -0.000  25.185
 Approx polarizability:  63.941   2.873 114.765   0.000  -0.000  38.302

                      1                      2                      3
                     A'                     A"                     A'
 Frequencies --    197.9636               263.6278               353.6058
 Red. masses --      5.4632                 3.5740                 3.7011
 Frc consts  --      0.1261                 0.1463                 0.2727
 IR Inten    --      4.5209                12.9310                 6.8665

                      4                      5                      6
                     A"                     A"                     A'
 Frequencies --    420.8037               460.6045               642.0868
 Red. masses --      3.0692                 1.1194                 8.8999
 Frc consts  --      0.3202                 0.1399                 2.1618
 IR Inten    --     10.9499                 1.3310               229.0823

                      7                      8                      9
                     A'                     A"                     A"
 Frequencies --    808.3614               870.8806               945.1972
 Red. masses --      4.1939                 1.3075                 1.6027
 Frc consts  --      1.6146                 0.5843                 0.8436
 IR Inten    --     90.1471                20.3381                 6.8590

                     10                     11                     12
                     A'                     A'                     A'
 Frequencies --    953.4671              1067.5127              1152.7398
 Red. masses --      1.6725                 3.0133                 2.8655
 Frc consts  --      0.8958                 2.0232                 2.2435
 IR Inten    --      2.9808               229.5987               185.8770

                     13                     14                     15
                     A'                     A'                     A'
 Frequencies --   1197.4515              1322.6151              1642.6795
 Red. masses --      2.5209                 1.1087                 7.6498
 Frc consts  --      2.1297                 1.1427                12.1620
 IR Inten    --      2.8105                86.5654               288.7115

                     16                     17                     18
                     A'                     A"                     A'
 Frequencies --   2791.6476              2891.8264              2947.4013
 Red. masses --      1.0467                 1.1242                 1.1363
 Frc consts  --      4.8060                 5.5393                 5.8159
 IR Inten    --    590.5971               311.4313               379.8887

 - Thermochemistry -
 -------------------
 Temperature   298.150 Kelvin.  Pressure   1.00000 Atm.
 Atom     1 has atomic number  6 and mass  12.00000

 Molecular mass:    63.02348 amu.
 Principal axes and moments of inertia in atomic units:
                           1         2         3
     Eigenvalues --   131.40758 443.21795 561.25711
           X           -0.02630   0.99965   0.00000
           Y            0.99965   0.02630   0.00000
           Z           -0.00000   0.00000   1.00000
 This molecule is an asymmetric top.
 Rotational symmetry number  1.
 Rotational temperatures (Kelvin)      0.65912     0.19542     0.15432
 Rotational constants (GHZ):          13.73392     4.07190     3.21553
 Zero-point vibrational energy     125192.0 (Joules/Mol)
                                   29.92161 (Kcal/Mol)
 Warning -- explicit consideration of   5 degrees of freedom as
           vibrations may cause significant error
 Vibrational temperatures:    284.83   379.30   508.76   605.44   662.71
          (Kelvin)            923.82  1163.05  1253.00  1359.93  1371.82
                             1535.91  1658.53  1722.86  1902.95  2363.45
                             4016.55  4160.69  4240.65

 Zero-point correction=                           0.047683 (Hartree/Particle)
 Thermal correction to Energy=                    0.052892
 Thermal correction to Enthalpy=                  0.053836
 Thermal correction to Gibbs Free Energy=         0.020057
 Sum of electronic and zero-point Energies=           -190.384879
 Sum of electronic and thermal Energies=              -190.379671
 Sum of electronic and thermal Enthalpies=            -190.378726
 Sum of electronic and thermal Free Energies=         -190.412505

                     E (Thermal)             CV                S
                      KCal/Mol        Cal/Mol-Kelvin    Cal/Mol-Kelvin
 Total                   33.190             17.805             71.094
 Electronic               0.000              0.000              0.000
 Translational            0.889              2.981             38.342
 Rotational               0.889              2.981             24.995
 Vibrational             31.413             11.844              7.757
 Vibration     1          0.637              1.843              2.152
 Vibration     2          0.670              1.740              1.638
 Vibration     3          0.730              1.568              1.150
 Vibration     4          0.783              1.425              0.889
 Vibration     5          0.818              1.337              0.764

 Optimization completed.
    -- Stationary point found.
 Normal termination of Gaussian 09 at Tue Jul 19 14:09:46 2016.
