 Gaussian 09, Revision E.01,
 Gaussian 09:  EM64L-G09RevE.01 30-Nov-2015

 ---------------------------------------------
 #p b3lyp/6-311++G(3df,2p) freq symmetry=Loose
 ---------------------------------------------

 ---------
 b3lyp opt
 ---------
 Symbolic Z-matrix:
 Charge =  1 Multiplicity = 3

                         Standard orientation:
 ---------------------------------------------------------------------
 Center     Atomic      Atomic             Coordinates (Angstroms)
 Number     Number       Type             X           Y           Z
 ---------------------------------------------------------------------
      1          6           0        2.214989    0.059173    0.000408
      2          1           0        2.783128    0.096549   -0.928741
      3          1           0        2.782783    0.096648    0.929764
      4          6           0        0.926210   -0.032531    0.000174
      5          6           0       -0.403345   -0.123889   -0.000068
      6          6           0       -1.667050    0.567361   -0.000340
      7          1           0       -2.115791    1.550089   -0.000475
      8          6           0       -1.645823   -0.760661   -0.000265
 ---------------------------------------------------------------------

 SCF Done:  E(UB3LYP) =  -191.849852232     A.U. after   17 cycles

 The electronic state is 3-A.
 Alpha  occ. eigenvalues --  -10.50471 -10.49566 -10.49201 -10.46297 -10.42365
 Alpha  occ. eigenvalues --   -1.19660  -1.04015  -0.93070  -0.83286  -0.73577
 Alpha  occ. eigenvalues --   -0.71076  -0.69237  -0.65376  -0.64723  -0.56410
 Alpha  occ. eigenvalues --   -0.49212  -0.48273
 Alpha virt. eigenvalues --   -0.26975  -0.24019  -0.21354  -0.15229  -0.13164
 Alpha virt. eigenvalues --   -0.11841  -0.10795  -0.10058  -0.08079  -0.06992
 Alpha virt. eigenvalues --   -0.05755  -0.05463  -0.04630  -0.03797  -0.03025

  Beta  occ. eigenvalues --  -10.50041 -10.48726 -10.48100 -10.45517 -10.42181
  Beta  occ. eigenvalues --   -1.17965  -1.01737  -0.91253  -0.81956  -0.71770
  Beta  occ. eigenvalues --   -0.67656  -0.66689  -0.63986  -0.62267  -0.51845
  Beta virt. eigenvalues --   -0.37985  -0.37927  -0.23961  -0.22177  -0.17333
  Beta virt. eigenvalues --   -0.14924  -0.12839  -0.11277  -0.10623  -0.09788
  Beta virt. eigenvalues --   -0.07848  -0.06574  -0.05295  -0.05177  -0.03844

 Mulliken charges and spin densities:
               1          2
     1  C   -0.152717   0.146376
     2  H    0.237091   0.045037
     3  H    0.237091   0.045036
     4  C    0.346531   0.427535
     5  C   -0.075296   0.186130
     6  C    0.063325   0.256580
     7  H    0.310609   0.000016
     8  C    0.033366   0.893290
 Sum of Mulliken charges =   1.00000   2.00000

 Dipole moment (field-independent basis, Debye):
    X=              0.2999    Y=              1.6382    Z=             -0.0000  Tot=              1.6654
 Quadrupole moment (field-independent basis, Debye-Ang):
   XX=             -5.2846   YY=            -24.2822   ZZ=            -24.7165
   XY=             -3.1916   XZ=              0.0038   YZ=             -0.0006

  Exact polarizability: 101.233   5.970  39.882   0.013   0.001  30.630
 Approx polarizability: 176.802  17.533  67.128   0.024   0.002  44.815

                      1                      2                      3
                      A                      A                      A
 Frequencies --    192.9530               200.0523               374.8087
 Red. masses --      4.1803                 3.1833                 1.1229
 Frc consts  --      0.0917                 0.0751                 0.0929
 IR Inten    --      8.4123                 4.1343                 0.0146

                      4                      5                      6
                      A                      A                      A
 Frequencies --    442.6117               504.7234               731.3290
 Red. masses --      5.4743                 5.4084                 5.6109
 Frc consts  --      0.6319                 0.8118                 1.7681
 IR Inten    --      0.0952                 7.5971                 2.6011

                      7                      8                      9
                      A                      A                      A
 Frequencies --    836.6528               887.6022               919.5502
 Red. masses --      1.3523                 1.4794                 1.9586
 Frc consts  --      0.5577                 0.6867                 0.9758
 IR Inten    --     25.9255                 0.3853                23.7970

                     10                     11                     12
                      A                      A                      A
 Frequencies --    941.9166               993.6227              1320.4926
 Red. masses --      1.3183                 2.6703                 1.8552
 Frc consts  --      0.6891                 1.5533                 1.9060
 IR Inten    --     44.2390                34.7467                 4.9398

                     13                     14                     15
                      A                      A                      A
 Frequencies --   1413.1210              1623.4278              1913.3363
 Red. masses --      2.0927                 7.4784                10.4683
 Frc consts  --      2.4622                11.6124                22.5793
 IR Inten    --     89.8444                 8.0171               142.4289

                     16                     17                     18
                      A                      A                      A
 Frequencies --   3064.9295              3140.0349              3246.1326
 Red. masses --      1.0563                 1.1120                 1.1166
 Frc consts  --      5.8461                 6.4599                 6.9326
 IR Inten    --     87.0945                43.9900                97.5349

 - Thermochemistry -
 -------------------
 Temperature   298.150 Kelvin.  Pressure   1.00000 Atm.
 Atom     1 has atomic number  6 and mass  12.00000

 Molecular mass:    63.02348 amu.
 Principal axes and moments of inertia in atomic units:
                           1         2         3
     Eigenvalues --    54.03132 566.72582 608.32602
           X            0.99983  -0.01830  -0.00019
           Y            0.01830   0.99983   0.00005
           Z            0.00018  -0.00006   1.00000
 This molecule is an asymmetric top.
 Rotational symmetry number  1.
 Rotational temperatures (Kelvin)      1.60303     0.15283     0.14238
 Rotational constants (GHZ):          33.40176     3.18450     2.96673
 Zero-point vibrational energy     136059.1 (Joules/Mol)
                                   32.51889 (Kcal/Mol)
 Warning -- explicit consideration of   5 degrees of freedom as
           vibrations may cause significant error
 Vibrational temperatures:    277.62   287.83   539.27   636.82   726.18
          (Kelvin)           1052.22  1203.76  1277.06  1323.03  1355.21
                             1429.60  1899.89  2033.16  2335.75  2752.86
                             4409.74  4517.80  4670.46

 Zero-point correction=                           0.051822 (Hartree/Particle)
 Thermal correction to Energy=                    0.056994
 Thermal correction to Enthalpy=                  0.057938
 Thermal correction to Gibbs Free Energy=         0.023344
 Sum of electronic and zero-point Energies=           -191.798030
 Sum of electronic and thermal Energies=              -191.792859
 Sum of electronic and thermal Enthalpies=            -191.791915
 Sum of electronic and thermal Free Energies=         -191.826509

                     E (Thermal)             CV                S
                      KCal/Mol        Cal/Mol-Kelvin    Cal/Mol-Kelvin
 Total                   35.764             17.280             72.809
 Electronic               0.000              0.000              2.183
 Translational            0.889              2.981             38.342
 Rotational               0.889              2.981             24.436
 Vibrational             33.987             11.318              7.848
 Vibration     1          0.635              1.850              2.199
 Vibration     2          0.638              1.840              2.133
 Vibration     3          0.746              1.524              1.060
 Vibration     4          0.802              1.377              0.818
 Vibration     5          0.860              1.240              0.646

 Optimization completed.
    -- Stationary point found.
 Normal termination of Gaussian 09 at Tue Jul 19 17:55:29 2016.
