 Gaussian 09, Revision E.01,
 Gaussian 09:  EM64L-G09RevE.01 30-Nov-2015

 ---------------------------------------------
 #p b3lyp/6-311++G(3df,2p) freq symmetry=Loose
 ---------------------------------------------

 ---------
 b3lyp opt
 ---------
 Symbolic Z-matrix:
 Charge =  2 Multiplicity = 2

                         Standard orientation:
 ---------------------------------------------------------------------
 Center     Atomic      Atomic             Coordinates (Angstroms)
 Number     Number       Type             X           Y           Z
 ---------------------------------------------------------------------
      1          6           0        0.007145   -2.131632    0.000000
      2          6           0        0.021417   -0.786185    0.000000
      3          6           0        0.008054    0.568726   -0.000000
      4          6           0        0.007145    1.807220    0.667453
      5          6           0        0.007145    1.807220   -0.667453
      6          1           0       -1.114176   -2.392816    0.000000
      7          1           0        0.404369   -2.599642    0.938200
      8          1           0        0.404369   -2.599642   -0.938200
 ---------------------------------------------------------------------

 SCF Done:  E(UB3LYP) =  -191.164794693     A.U. after   27 cycles

 The electronic state is 2-A".
 Alpha  occ. eigenvalues --  -10.84183 -10.79042 -10.74840 -10.74752 -10.68910
 Alpha  occ. eigenvalues --   -1.44780  -1.34003  -1.22766  -0.99814  -0.99216
 Alpha  occ. eigenvalues --   -0.93590  -0.93273  -0.92815  -0.87413  -0.76833
 Alpha  occ. eigenvalues --   -0.76045
 Alpha virt. eigenvalues --   -0.67419  -0.60774  -0.46444  -0.46080  -0.36457
 Alpha virt. eigenvalues --   -0.32175  -0.29493  -0.29063  -0.27537  -0.26975
 Alpha virt. eigenvalues --   -0.26107  -0.24484  -0.23690  -0.21717  -0.20706

  Beta  occ. eigenvalues --  -10.83339 -10.78996 -10.74249 -10.74160 -10.68932
  Beta  occ. eigenvalues --   -1.44633  -1.32433  -1.21759  -0.98970  -0.97116
  Beta  occ. eigenvalues --   -0.93243  -0.92290  -0.91064  -0.87178  -0.72998
  Beta virt. eigenvalues --   -0.67298  -0.66383  -0.55991  -0.45509  -0.44970
  Beta virt. eigenvalues --   -0.36066  -0.31177  -0.29292  -0.28562  -0.27217
  Beta virt. eigenvalues --   -0.26180  -0.25980  -0.24331  -0.23007  -0.21654

 Mulliken charges and spin densities:
               1          2
     1  C   -0.040578   0.009249
     2  C    0.390497   0.458243
     3  C    0.543205   0.071918
     4  C    0.091025   0.185280
     5  C    0.091025   0.185280
     6  H    0.319177  -0.009764
     7  H    0.302825   0.049898
     8  H    0.302825   0.049898
 Sum of Mulliken charges =   2.00000   1.00000

 Dipole moment (field-independent basis, Debye):
    X=             -0.3909    Y=             -4.5095    Z=              0.0000  Tot=              4.5265
 Quadrupole moment (field-independent basis, Debye-Ang):
   XX=            -21.2721   YY=             13.4435   ZZ=            -22.4160
   XY=              1.0564   XZ=              0.0000   YZ=              0.0000

  Exact polarizability:  24.365   1.066 101.383   0.000  -0.000  25.087
 Approx polarizability:  45.481   3.204 209.611  -0.000   0.000 111.127

                      1                      2                      3
                     A"                     A"                     A'
 Frequencies --     67.1459                98.3215               186.4527
 Red. masses --      1.3902                 3.8083                 3.3955
 Frc consts  --      0.0037                 0.0217                 0.0695
 IR Inten    --     11.6284                 1.5443                 4.4404

                      4                      5                      6
                     A"                     A'                     A'
 Frequencies --    391.0964               407.3313               672.2566
 Red. masses --      3.5668                 1.7997                 5.1891
 Frc consts  --      0.3214                 0.1759                 1.3817
 IR Inten    --     10.7883                 9.9033                 0.8061

                      7                      8                      9
                     A"                     A'                     A"
 Frequencies --    699.6481               802.6839               821.3184
 Red. masses --      1.7572                 3.9644                 4.6556
 Frc consts  --      0.5068                 1.5049                 1.8503
 IR Inten    --     47.0400                76.7125               110.6484

                     10                     11                     12
                     A"                     A'                     A'
 Frequencies --   1014.7277              1097.8940              1244.7191
 Red. masses --      1.1376                 1.1148                 1.2182
 Frc consts  --      0.6901                 0.7917                 1.1120
 IR Inten    --      8.6420               102.3156                48.1363

                     13                     14                     15
                     A'                     A'                     A'
 Frequencies --   1348.3920              1470.3553              1738.5002
 Red. masses --      6.4214                10.3074                11.4570
 Frc consts  --      6.8788                13.1294                20.4019
 IR Inten    --     91.6642                 0.0300               365.8005

                     16                     17                     18
                     A'                     A'                     A"
 Frequencies --   2554.7402              2757.0194              2795.3973
 Red. masses --      1.0675                 1.0442                 1.0946
 Frc consts  --      4.1049                 4.6762                 5.0395
 IR Inten    --    622.7137               871.1106               272.1940

 - Thermochemistry -
 -------------------
 Temperature   298.150 Kelvin.  Pressure   1.00000 Atm.
 Atom     1 has atomic number  6 and mass  12.00000

 Molecular mass:    63.02348 amu.
 Principal axes and moments of inertia in atomic units:
                           1         2         3
     Eigenvalues --    50.17983 586.68738 625.54174
           X            0.00318   0.00000   0.99999
           Y            0.99999  -0.00000  -0.00318
           Z            0.00000   1.00000  -0.00000
 This molecule is an asymmetric top.
 Rotational symmetry number  1.
 Rotational temperatures (Kelvin)      1.72607     0.14763     0.13846
 Rotational constants (GHZ):          35.96547     3.07615     2.88509
 Zero-point vibrational energy     120631.4 (Joules/Mol)
                                   28.83160 (Kcal/Mol)
 Warning -- explicit consideration of   5 degrees of freedom as
           vibrations may cause significant error
 Vibrational temperatures:     96.61   141.46   268.26   562.70   586.06
          (Kelvin)            967.23  1006.64  1154.88  1181.69  1459.96
                             1579.62  1790.87  1940.03  2115.51  2501.31
                             3675.70  3966.73  4021.95

 Zero-point correction=                           0.045946 (Hartree/Particle)
 Thermal correction to Energy=                    0.051996
 Thermal correction to Enthalpy=                  0.052941
 Thermal correction to Gibbs Free Energy=         0.016199
 Sum of electronic and zero-point Energies=           -191.118849
 Sum of electronic and thermal Energies=              -191.112798
 Sum of electronic and thermal Enthalpies=            -191.111854
 Sum of electronic and thermal Free Energies=         -191.148596

                     E (Thermal)             CV                S
                      KCal/Mol        Cal/Mol-Kelvin    Cal/Mol-Kelvin
 Total                   32.628             18.723             77.330
 Electronic               0.000              0.000              1.377
 Translational            0.889              2.981             38.342
 Rotational               0.889              2.981             24.425
 Vibrational             30.851             12.762             13.186
 Vibration     1          0.598              1.970              4.235
 Vibration     2          0.604              1.950              3.487
 Vibration     3          0.632              1.858              2.263
 Vibration     4          0.759              1.489              0.996
 Vibration     5          0.772              1.454              0.936

 Optimization completed.
    -- Stationary point found.
 Normal termination of Gaussian 09 at Tue Jul 19 11:30:33 2016.
