 Gaussian 09, Revision E.01,
 Gaussian 09:  EM64L-G09RevE.01 30-Nov-2015

 ---------------------------------------------
 #p b3lyp/6-311++G(3df,2p) freq symmetry=Loose
 ---------------------------------------------

 ---------
 b3lyp opt
 ---------
 Symbolic Z-matrix:
 Charge =  0 Multiplicity = 2

                         Standard orientation:
 ---------------------------------------------------------------------
 Center     Atomic      Atomic             Coordinates (Angstroms)
 Number     Number       Type             X           Y           Z
 ---------------------------------------------------------------------
      1          6           0       -1.694250   -0.469702   -0.000044
      2          1           0       -1.737648   -1.124006   -0.871127
      3          1           0       -1.748752   -1.099025    0.888705
      4          1           0       -2.543636    0.210798   -0.014350
      5          6           0       -0.439569    0.295924   -0.000886
      6          6           0        0.962057    0.042757    0.000297
      7          6           0        0.323601    1.391003    0.000179
      8          6           0        1.853167   -0.924609   -0.000084
 ---------------------------------------------------------------------

 SCF Done:  E(UB3LYP) =  -192.112986727     A.U. after   19 cycles

 The electronic state is 2-A.
 Alpha  occ. eigenvalues --  -10.27355 -10.24552 -10.24394 -10.23930 -10.22872
 Alpha  occ. eigenvalues --   -0.95775  -0.79424  -0.76082  -0.54978  -0.51783
 Alpha  occ. eigenvalues --   -0.48849  -0.43826  -0.41157  -0.40352  -0.31797
 Alpha  occ. eigenvalues --   -0.28042  -0.27325
 Alpha virt. eigenvalues --   -0.10720  -0.03923  -0.02215   0.00991   0.02054
 Alpha virt. eigenvalues --    0.02205   0.03184   0.05778   0.05982   0.06505
 Alpha virt. eigenvalues --    0.07045   0.07879   0.08489   0.09861   0.10384

  Beta  occ. eigenvalues --  -10.27065 -10.24321 -10.23766 -10.23603 -10.22893
  Beta  occ. eigenvalues --   -0.95110  -0.79185  -0.73320  -0.54709  -0.51379
  Beta  occ. eigenvalues --   -0.48107  -0.43618  -0.39953  -0.38737  -0.30274
  Beta  occ. eigenvalues --   -0.27649
  Beta virt. eigenvalues --   -0.16593  -0.09749  -0.02361  -0.02182   0.02085
  Beta virt. eigenvalues --    0.02158   0.03259   0.03725   0.05879   0.06061
  Beta virt. eigenvalues --    0.06522   0.07272   0.08506   0.09102   0.09946

 Mulliken charges and spin densities:
               1          2
     1  C   -0.388151  -0.019479
     2  H    0.172013   0.010769
     3  H    0.172678   0.011107
     4  H    0.160902  -0.001364
     5  C    0.406459   0.251950
     6  C    0.871661   0.089839
     7  C   -0.566781   0.105833
     8  C   -0.828780   0.551346
 Sum of Mulliken charges =  -0.00000   1.00000

 Dipole moment (field-independent basis, Debye):
    X=             -4.2124    Y=             -1.0435    Z=              0.0024  Tot=              4.3397
 Quadrupole moment (field-independent basis, Debye-Ang):
   XX=            -31.1735   YY=            -36.4538   ZZ=            -29.0543
   XY=              3.4661   XZ=             -0.0023   YZ=             -0.0023

  Exact polarizability:  73.899 -11.198  65.113  -0.004  -0.009  41.264
 Approx polarizability: 123.329 -39.349 124.115  -0.003  -0.012  59.865

                      1                      2                      3
                      A                      A                      A
 Frequencies --    106.4150               156.6161               317.7629
 Red. masses --      1.0726                 5.9066                 5.7113
 Frc consts  --      0.0072                 0.0854                 0.3398
 IR Inten    --      0.2647                 5.2254                12.5331

                      4                      5                      6
                      A                      A                      A
 Frequencies --    387.7836               421.5131               675.4787
 Red. masses --      4.1269                 5.2533                 7.2990
 Frc consts  --      0.3656                 0.5499                 1.9622
 IR Inten    --      5.6882                 8.6036                 8.2355

                      7                      8                      9
                      A                      A                      A
 Frequencies --    827.7303               936.4800              1035.1342
 Red. masses --      6.4555                 3.9589                 1.4470
 Frc consts  --      2.6059                 2.0456                 0.9135
 IR Inten    --      1.6074                27.8760                 0.4806

                     10                     11                     12
                      A                      A                      A
 Frequencies --   1088.7765              1404.5969              1469.7570
 Red. masses --      1.7634                 1.2168                 1.0429
 Frc consts  --      1.2316                 1.4144                 1.3273
 IR Inten    --     30.0202                 7.2736                12.8955

                     13                     14                     15
                      A                      A                      A
 Frequencies --   1471.1243              1501.3371              1759.3281
 Red. masses --      1.0903                 7.7486                11.3725
 Frc consts  --      1.3903                10.2903                20.7396
 IR Inten    --     13.6542                86.5734                80.9953

                     16                     17                     18
                      A                      A                      A
 Frequencies --   3038.5591              3099.8653              3121.8273
 Red. masses --      1.0335                 1.1000                 1.1034
 Frc consts  --      5.6222                 6.2277                 6.3360
 IR Inten    --      1.5269                 0.5033                 2.9287

 - Thermochemistry -
 -------------------
 Temperature   298.150 Kelvin.  Pressure   1.00000 Atm.
 Atom     1 has atomic number  6 and mass  12.00000

 Molecular mass:    63.02348 amu.
 Principal axes and moments of inertia in atomic units:
                           1         2         3
     Eigenvalues --   146.54208 372.00561 507.39886
           X            0.99846   0.05556  -0.00004
           Y           -0.05556   0.99846  -0.00002
           Z            0.00004   0.00002   1.00000
 This molecule is an asymmetric top.
 Rotational symmetry number  1.
 Rotational temperatures (Kelvin)      0.59105     0.23283     0.17070
 Rotational constants (GHZ):          12.31552     4.85138     3.55685
 Zero-point vibrational energy     136494.4 (Joules/Mol)
                                   32.62295 (Kcal/Mol)
 Warning -- explicit consideration of   5 degrees of freedom as
           vibrations may cause significant error
 Vibrational temperatures:    153.11   225.34   457.19   557.93   606.46
          (Kelvin)            971.86  1190.92  1347.38  1489.33  1566.50
                             2020.90  2114.65  2116.62  2160.09  2531.28
                             4371.80  4460.01  4491.61

 Zero-point correction=                           0.051988 (Hartree/Particle)
 Thermal correction to Energy=                    0.057508
 Thermal correction to Enthalpy=                  0.058452
 Thermal correction to Gibbs Free Energy=         0.023036
 Sum of electronic and zero-point Energies=           -192.060999
 Sum of electronic and thermal Energies=              -192.055479
 Sum of electronic and thermal Enthalpies=            -192.054535
 Sum of electronic and thermal Free Energies=         -192.089951

                     E (Thermal)             CV                S
                      KCal/Mol        Cal/Mol-Kelvin    Cal/Mol-Kelvin
 Total                   36.087             17.300             74.538
 Electronic               0.000              0.000              1.377
 Translational            0.889              2.981             38.342
 Rotational               0.889              2.981             24.829
 Vibrational             34.309             11.339              9.990
 Vibration     1          0.605              1.944              3.333
 Vibration     2          0.620              1.895              2.590
 Vibration     3          0.704              1.640              1.322
 Vibration     4          0.756              1.496              1.009
 Vibration     5          0.784              1.423              0.887

 Normal termination of Gaussian 09 at Sun Jun 19 07:17:38 2016.
