 Gaussian 09, Revision E.01,
 Gaussian 09:  EM64L-G09RevE.01 30-Nov-2015

 ---------------------------------------------
 #p b3lyp/6-311++G(3df,2p) freq symmetry=Loose
 ---------------------------------------------

 ---------
 b3lyp opt
 ---------
 Symbolic Z-matrix:
 Charge =  1 Multiplicity = 3

                         Standard orientation:
 ---------------------------------------------------------------------
 Center     Atomic      Atomic             Coordinates (Angstroms)
 Number     Number       Type             X           Y           Z
 ---------------------------------------------------------------------
      1          6           0        1.676341    0.026755    0.000330
      2          1           0        2.263925    0.039638    0.916415
      3          1           0        2.264731    0.039513   -0.915298
      4          6           0        0.406441    0.773049   -0.000367
      5          6           0       -0.713889   -0.034872   -0.000402
      6          6           0        0.443013   -0.774202   -0.000071
      7          6           0       -2.076610   -0.095348   -0.000003
      8          1           0       -2.940425    0.548559    0.001966
 ---------------------------------------------------------------------

 SCF Done:  E(UB3LYP) =  -191.799625396     A.U. after   16 cycles

 The electronic state is 3-A.
 Alpha  occ. eigenvalues --  -10.52073 -10.51941 -10.50990 -10.48339 -10.47425
 Alpha  occ. eigenvalues --   -1.25502  -1.03873  -0.94656  -0.80783  -0.77210
 Alpha  occ. eigenvalues --   -0.74202  -0.72263  -0.67389  -0.62570  -0.54868
 Alpha  occ. eigenvalues --   -0.50868  -0.48568
 Alpha virt. eigenvalues --   -0.32714  -0.26767  -0.20978  -0.15537  -0.13328
 Alpha virt. eigenvalues --   -0.11970  -0.11873  -0.10293  -0.08417  -0.06790
 Alpha virt. eigenvalues --   -0.06754  -0.05480  -0.04171  -0.03899  -0.03522

  Beta  occ. eigenvalues --  -10.51667 -10.51640 -10.51159 -10.48299 -10.44760
  Beta  occ. eigenvalues --   -1.24851  -1.01648  -0.90993  -0.79756  -0.75519
  Beta  occ. eigenvalues --   -0.73170  -0.70898  -0.66326  -0.60463  -0.53983
  Beta virt. eigenvalues --   -0.35884  -0.33889  -0.30750  -0.24983  -0.17349
  Beta virt. eigenvalues --   -0.15375  -0.12725  -0.11868  -0.11514  -0.09997
  Beta virt. eigenvalues --   -0.07953  -0.05687  -0.05623  -0.05153  -0.03956

 Mulliken charges and spin densities:
               1          2
     1  C   -0.938594   0.004551
     2  H    0.251181   0.030880
     3  H    0.251156   0.030885
     4  C    0.747501   0.244748
     5  C    0.320455  -0.091250
     6  C    0.785762   0.197605
     7  C   -0.712713   1.591575
     8  H    0.295254  -0.008994
 Sum of Mulliken charges =   1.00000   2.00000

 Dipole moment (field-independent basis, Debye):
    X=              0.4311    Y=              0.5078    Z=              0.0019  Tot=              0.6661
 Quadrupole moment (field-independent basis, Debye-Ang):
   XX=             -7.0052   YY=            -27.6015   ZZ=            -25.0115
   XY=             -1.5691   XZ=             -0.0044   YZ=              0.0022

  Exact polarizability:  72.577   0.183  39.881   0.000  -0.001  29.921
 Approx polarizability: 110.685   1.438  88.757   0.005  -0.008  44.777

                      1                      2                      3
                      A                      A                      A
 Frequencies --    265.0915               332.6009               445.3288
 Red. masses --      2.7480                 2.8754                 1.3424
 Frc consts  --      0.1138                 0.1874                 0.1568
 IR Inten    --      7.7945                18.6551                17.3938

                      4                      5                      6
                      A                      A                      A
 Frequencies --    502.3542               603.2838               749.7029
 Red. masses --      5.1532                 2.8846                 4.5677
 Frc consts  --      0.7662                 0.6186                 1.5126
 IR Inten    --      6.0145                41.6465                18.9014

                      7                      8                      9
                      A                      A                      A
 Frequencies --    760.6646               991.0356              1023.5741
 Red. masses --      2.6747                 1.1106                 1.3920
 Frc consts  --      0.9118                 0.6426                 0.8592
 IR Inten    --     49.5388                 0.0002                 0.2768

                     10                     11                     12
                      A                      A                      A
 Frequencies --   1037.2441              1050.3381              1143.1819
 Red. masses --      8.1367                 6.2696                 1.3559
 Frc consts  --      5.1578                 4.0752                 1.0440
 IR Inten    --      2.5137                 5.9576                13.7085

                     13                     14                     15
                      A                      A                      A
 Frequencies --   1279.2507              1459.6758              1668.8579
 Red. masses --      6.3801                 1.1280                 9.0109
 Frc consts  --      6.1516                 1.4160                14.7862
 IR Inten    --     10.5933                 5.3791                67.9781

                     16                     17                     18
                      A                      A                      A
 Frequencies --   3074.2274              3150.8539              3266.0164
 Red. masses --      1.0540                 1.1173                 1.0979
 Frc consts  --      5.8687                 6.5355                 6.9002
 IR Inten    --     42.6835                35.8829               111.0868

 - Thermochemistry -
 -------------------
 Temperature   298.150 Kelvin.  Pressure   1.00000 Atm.
 Atom     1 has atomic number  6 and mass  12.00000

 Molecular mass:    63.02348 amu.
 Principal axes and moments of inertia in atomic units:
                           1         2         3
     Eigenvalues --    58.80626 416.53506 463.26595
           X            0.99990  -0.01405  -0.00004
           Y            0.01405   0.99990   0.00010
           Z            0.00003  -0.00010   1.00000
 This molecule is an asymmetric top.
 Rotational symmetry number  1.
 Rotational temperatures (Kelvin)      1.47287     0.20794     0.18696
 Rotational constants (GHZ):          30.68961     4.33275     3.89569
 Zero-point vibrational energy     136393.9 (Joules/Mol)
                                   32.59893 (Kcal/Mol)
 Warning -- explicit consideration of   5 degrees of freedom as
           vibrations may cause significant error
 Vibrational temperatures:    381.41   478.54   640.73   722.77   867.99
          (Kelvin)           1078.65  1094.43  1425.88  1472.69  1492.36
                             1511.20  1644.78  1840.55  2100.15  2401.11
                             4423.12  4533.37  4699.06

 Zero-point correction=                           0.051950 (Hartree/Particle)
 Thermal correction to Energy=                    0.056637
 Thermal correction to Enthalpy=                  0.057582
 Thermal correction to Gibbs Free Energy=         0.024234
 Sum of electronic and zero-point Energies=           -191.747676
 Sum of electronic and thermal Energies=              -191.742988
 Sum of electronic and thermal Enthalpies=            -191.742044
 Sum of electronic and thermal Free Energies=         -191.775391

                     E (Thermal)             CV                S
                      KCal/Mol        Cal/Mol-Kelvin    Cal/Mol-Kelvin
 Total                   35.540             16.339             70.185
 Electronic               0.000              0.000              2.183
 Translational            0.889              2.981             38.342
 Rotational               0.889              2.981             23.944
 Vibrational             33.763             10.377              5.716
 Vibration     1          0.671              1.737              1.628
 Vibration     2          0.715              1.610              1.247
 Vibration     3          0.805              1.371              0.810
 Vibration     4          0.858              1.245              0.652
 Vibration     5          0.962              1.025              0.444

 Normal termination of Gaussian 09 at Sun Jun 19 10:51:38 2016.
