 Gaussian 09, Revision E.01,
 Gaussian 09:  EM64L-G09RevE.01 30-Nov-2015

 ---------------------------------------------
 #p b3lyp/6-311++G(3df,2p) freq symmetry=Loose
 ---------------------------------------------

 ---------
 b3lyp opt
 ---------
 Symbolic Z-matrix:
 Charge =  2 Multiplicity = 2

                         Standard orientation:
 ---------------------------------------------------------------------
 Center     Atomic      Atomic             Coordinates (Angstroms)
 Number     Number       Type             X           Y           Z
 ---------------------------------------------------------------------
      1          6           0        0.000000    0.255400    0.000000
      2          6           0       -0.628873   -1.049681    0.000000
      3          1           0       -1.756367   -1.199839    0.000000
      4          6           0        1.105179    1.047751    0.000000
      5          1           0        2.186015    1.169997    0.000000
      6          6           0       -0.272741   -2.273370    0.000000
      7          6           0       -0.145676    1.609091    0.000000
      8          1           0       -0.776980    2.494698    0.000000
 ---------------------------------------------------------------------

 SCF Done:  E(UB3LYP) =  -191.270759661     A.U. after   18 cycles

 The electronic state is 2-A'.
 Alpha  occ. eigenvalues --  -10.84217 -10.72685 -10.72384 -10.69800 -10.69727
 Alpha  occ. eigenvalues --   -1.41501  -1.32849  -1.12441  -1.03857  -0.99074
 Alpha  occ. eigenvalues --   -0.97001  -0.90599  -0.87323  -0.83455  -0.82265
 Alpha  occ. eigenvalues --   -0.80632
 Alpha virt. eigenvalues --   -0.61458  -0.54877  -0.46985  -0.39261  -0.34703
 Alpha virt. eigenvalues --   -0.30463  -0.29304  -0.27788  -0.26229  -0.25494
 Alpha virt. eigenvalues --   -0.25334  -0.23616  -0.22505  -0.21104  -0.19803

  Beta  occ. eigenvalues --  -10.81974 -10.72647 -10.72239 -10.69820 -10.69715
  Beta  occ. eigenvalues --   -1.41441  -1.31012  -1.11322  -1.03799  -0.98796
  Beta  occ. eigenvalues --   -0.96198  -0.87273  -0.83556  -0.82567  -0.79205
  Beta virt. eigenvalues --   -0.68419  -0.57891  -0.53162  -0.47114  -0.38461
  Beta virt. eigenvalues --   -0.34570  -0.30336  -0.29283  -0.27760  -0.26064
  Beta virt. eigenvalues --   -0.25502  -0.25102  -0.23025  -0.22459  -0.21098

 Mulliken charges and spin densities:
               1          2
     1  C    0.259368   0.027013
     2  C    0.151123  -0.156812
     3  H    0.282813  -0.003337
     4  C    0.217252  -0.034764
     5  H    0.360526   0.003543
     6  C    0.204449   1.164474
     7  C    0.166548   0.000264
     8  H    0.357922  -0.000380
 Sum of Mulliken charges =   2.00000   1.00000

 Dipole moment (field-independent basis, Debye):
    X=             -0.8132    Y=             -1.8981    Z=              0.0000  Tot=              2.0650
 Quadrupole moment (field-independent basis, Debye-Ang):
   XX=            -10.4982   YY=              8.6527   ZZ=            -24.6177
   XY=              6.3773   XZ=              0.0000   YZ=              0.0000

  Exact polarizability:  38.442   4.745  64.695  -0.000  -0.000  27.312
 Approx polarizability:  61.636   0.755 116.424  -0.000  -0.000  35.657

                      1                      2                      3
                     A"                     A'                     A"
 Frequencies --     65.5938               188.5947               336.0759
 Red. masses --      2.2261                 6.9374                 1.8839
 Frc consts  --      0.0056                 0.1454                 0.1254
 IR Inten    --      0.0188                 7.3098                26.2311

                      4                      5                      6
                     A'                     A"                     A'
 Frequencies --    385.1188               512.6910               711.9384
 Red. masses --      3.1953                 3.2732                 4.7068
 Frc consts  --      0.2792                 0.5069                 1.4056
 IR Inten    --      1.1464                 7.0964                 5.4542

                      7                      8                      9
                     A"                     A'                     A'
 Frequencies --    886.4260               916.6403               971.1733
 Red. masses --      1.3587                 1.1736                 1.1766
 Frc consts  --      0.6290                 0.5810                 0.6539
 IR Inten    --     26.7296                 9.8008                30.1974

                     10                     11                     12
                     A"                     A'                     A'
 Frequencies --    999.5864              1049.6376              1269.4624
 Red. masses --      1.4323                 1.3831                 7.6963
 Frc consts  --      0.8432                 0.8978                 7.3076
 IR Inten    --      1.4774                10.0044                67.5732

                     13                     14                     15
                     A'                     A'                     A'
 Frequencies --   1312.1316              1698.9446              1767.5023
 Red. masses --      6.2326                 7.8383                 7.9699
 Frc consts  --      6.3223                13.3301                14.6697
 IR Inten    --     66.4535                22.7127                 7.1818

                     16                     17                     18
                     A'                     A'                     A'
 Frequencies --   2697.4243              3169.8634              3201.6782
 Red. masses --      1.0736                 1.1041                 1.1468
 Frc consts  --      4.6024                 6.5363                 6.9263
 IR Inten    --    309.7482               190.4632               127.2023

 - Thermochemistry -
 -------------------
 Temperature   298.150 Kelvin.  Pressure   1.00000 Atm.
 Atom     1 has atomic number  6 and mass  12.00000

 Molecular mass:    63.02348 amu.
 Principal axes and moments of inertia in atomic units:
                           1         2         3
     Eigenvalues --    75.67052 489.82983 565.50035
           X            0.26086   0.96538   0.00000
           Y            0.96538  -0.26086   0.00000
           Z            0.00000  -0.00000   1.00000
 This molecule is an asymmetric top.
 Rotational symmetry number  1.
 Rotational temperatures (Kelvin)      1.14462     0.17682     0.15316
 Rotational constants (GHZ):          23.84999     3.68442     3.19141
 Zero-point vibrational energy     132429.5 (Joules/Mol)
                                   31.65141 (Kcal/Mol)
 Warning -- explicit consideration of   5 degrees of freedom as
           vibrations may cause significant error
 Vibrational temperatures:     94.37   271.35   483.54   554.10   737.65
          (Kelvin)           1024.32  1275.37  1318.84  1397.30  1438.18
                             1510.19  1826.47  1887.86  2444.40  2543.04
                             3880.99  4560.72  4606.50

 Zero-point correction=                           0.050440 (Hartree/Particle)
 Thermal correction to Energy=                    0.055921
 Thermal correction to Enthalpy=                  0.056865
 Thermal correction to Gibbs Free Energy=         0.021428
 Sum of electronic and zero-point Energies=           -191.220320
 Sum of electronic and thermal Energies=              -191.214839
 Sum of electronic and thermal Enthalpies=            -191.213895
 Sum of electronic and thermal Free Energies=         -191.249332

                     E (Thermal)             CV                S
                      KCal/Mol        Cal/Mol-Kelvin    Cal/Mol-Kelvin
 Total                   35.091             17.404             74.584
 Electronic               0.000              0.000              1.377
 Translational            0.889              2.981             38.342
 Rotational               0.889              2.981             24.553
 Vibrational             33.313             11.442             10.311
 Vibration     1          0.597              1.971              4.281
 Vibration     2          0.633              1.856              2.242
 Vibration     3          0.717              1.603              1.231
 Vibration     4          0.754              1.502              1.019
 Vibration     5          0.868              1.222              0.627

 Optimization completed.
    -- Stationary point found.
 Normal termination of Gaussian 09 at Sun Jun 19 12:19:02 2016.
