 Gaussian 09, Revision E.01,
 Gaussian 09:  EM64L-G09RevE.01 30-Nov-2015

 ---------------------------------------------
 #p b3lyp/6-311++G(3df,2p) freq symmetry=Loose
 ---------------------------------------------

 ---------
 b3lyp opt
 ---------
 Symbolic Z-matrix:
 Charge =  1 Multiplicity = 3

                         Standard orientation:
 ---------------------------------------------------------------------
 Center     Atomic      Atomic             Coordinates (Angstroms)
 Number     Number       Type             X           Y           Z
 ---------------------------------------------------------------------
      1          6           0        1.083006   -0.497614    0.000223
      2          1           0        1.674487   -0.751989    0.883885
      3          1           0        1.674759   -0.752188   -0.883201
      4          6           0       -0.291784   -1.088344    0.000078
      5          6           0       -1.307554   -0.364816   -0.000160
      6          6           0        0.587792    0.962529   -0.000018
      7          1           0        1.223785    1.840806   -0.000019
      8          6           0       -0.833633    0.932140   -0.000233
 ---------------------------------------------------------------------

 SCF Done:  E(UB3LYP) =  -191.771983967     A.U. after   22 cycles

 The electronic state is 3-A.
 Alpha  occ. eigenvalues --  -10.51169 -10.50244 -10.50147 -10.46716 -10.45829
 Alpha  occ. eigenvalues --   -1.17434  -0.99914  -0.97476  -0.82561  -0.76337
 Alpha  occ. eigenvalues --   -0.71642  -0.71608  -0.67503  -0.60219  -0.56910
 Alpha  occ. eigenvalues --   -0.52524  -0.49214
 Alpha virt. eigenvalues --   -0.37956  -0.32073  -0.17958  -0.16352  -0.13175
 Alpha virt. eigenvalues --   -0.12437  -0.11332  -0.09932  -0.08459  -0.07835
 Alpha virt. eigenvalues --   -0.07118  -0.06449  -0.06115  -0.03557  -0.02477

  Beta  occ. eigenvalues --  -10.49425 -10.49239 -10.49162 -10.46720 -10.45807
  Beta  occ. eigenvalues --   -1.15363  -0.98769  -0.94196  -0.80646  -0.75456
  Beta  occ. eigenvalues --   -0.70002  -0.69096  -0.66457  -0.57868  -0.54012
  Beta virt. eigenvalues --   -0.41103  -0.36251  -0.33843  -0.27235  -0.16232
  Beta virt. eigenvalues --   -0.14936  -0.12699  -0.12242  -0.10995  -0.09562
  Beta virt. eigenvalues --   -0.08303  -0.07162  -0.06905  -0.05660  -0.05477

 Mulliken charges and spin densities:
               1          2
     1  C   -0.255135  -0.051624
     2  H    0.215568   0.000228
     3  H    0.215568   0.000228
     4  C    0.427316   0.648500
     5  C    0.028720  -0.205232
     6  C   -0.091224   0.603247
     7  H    0.244033  -0.013178
     8  C    0.215156   1.017830
 Sum of Mulliken charges =   1.00000   2.00000

 Dipole moment (field-independent basis, Debye):
    X=              2.3528    Y=              0.1679    Z=              0.0003  Tot=              2.3588
 Quadrupole moment (field-independent basis, Debye-Ang):
   XX=            -19.4984   YY=            -20.4265   ZZ=            -25.4143
   XY=              0.5718   XZ=              0.0008   YZ=             -0.0005

  Exact polarizability:  53.008   1.483  51.409   0.003  -0.002  29.609
 Approx polarizability: 110.203 -10.405 103.360   0.011  -0.008  44.248

                      1                      2                      3
                      A                      A                      A
 Frequencies --    166.4384               306.8672               647.0190
 Red. masses --      3.1422                 2.7304                 1.1979
 Frc consts  --      0.0513                 0.1515                 0.2955
 IR Inten    --      1.0354                 0.1718                 9.1484

                      4                      5                      6
                      A                      A                      A
 Frequencies --    702.2695               786.2430               863.2110
 Red. masses --      7.6365                10.5110                 2.8164
 Frc consts  --      2.2190                 3.8283                 1.2365
 IR Inten    --     14.6124                 6.2416                 9.0807

                      7                      8                      9
                      A                      A                      A
 Frequencies --    929.1412               949.0145              1115.3835
 Red. masses --      2.0292                 5.0745                 1.1095
 Frc consts  --      1.0321                 2.6927                 0.8132
 IR Inten    --      0.0736                 0.1716                 1.3386

                     10                     11                     12
                      A                      A                      A
 Frequencies --   1117.1897              1216.7542              1310.2964
 Red. masses --      2.4677                 1.5427                 1.9137
 Frc consts  --      1.8146                 1.3456                 1.9358
 IR Inten    --     23.2193                46.0793                 6.1388

                     13                     14                     15
                      A                      A                      A
 Frequencies --   1399.6381              1412.4962              2070.9356
 Red. masses --      1.6521                 2.2638                11.7241
 Frc consts  --      1.9069                 2.6611                29.6254
 IR Inten    --     13.8763                56.3407               256.8242

                     16                     17                     18
                      A                      A                      A
 Frequencies --   3046.7991              3084.3056              3187.1667
 Red. masses --      1.0596                 1.1024                 1.0940
 Frc consts  --      5.7954                 6.1786                 6.5474
 IR Inten    --     44.2294                25.8174                18.5851

 - Thermochemistry -
 -------------------
 Temperature   298.150 Kelvin.  Pressure   1.00000 Atm.
 Atom     1 has atomic number  6 and mass  12.00000

 Molecular mass:    63.02348 amu.
 Principal axes and moments of inertia in atomic units:
                           1         2         3
     Eigenvalues --   165.86817 201.81069 356.44062
           X            0.99972  -0.02386  -0.00015
           Y            0.02386   0.99972   0.00011
           Z            0.00015  -0.00012   1.00000
 This molecule is an asymmetric top.
 Rotational symmetry number  1.
 Rotational temperatures (Kelvin)      0.52218     0.42918     0.24300
 Rotational constants (GHZ):          10.88058     8.94274     5.06323
 Zero-point vibrational energy     145413.1 (Joules/Mol)
                                   34.75456 (Kcal/Mol)
 Warning -- explicit consideration of   2 degrees of freedom as
           vibrations may cause significant error
 Vibrational temperatures:    239.47   441.51   930.91  1010.41  1131.23
          (Kelvin)           1241.97  1336.83  1365.42  1604.79  1607.38
                             1750.64  1885.22  2013.76  2032.26  2979.61
                             4383.66  4437.62  4585.62

 Zero-point correction=                           0.055385 (Hartree/Particle)
 Thermal correction to Energy=                    0.059818
 Thermal correction to Enthalpy=                  0.060762
 Thermal correction to Gibbs Free Energy=         0.027555
 Sum of electronic and zero-point Energies=           -191.716599
 Sum of electronic and thermal Energies=              -191.712166
 Sum of electronic and thermal Enthalpies=            -191.711222
 Sum of electronic and thermal Free Energies=         -191.744429

                     E (Thermal)             CV                S
                      KCal/Mol        Cal/Mol-Kelvin    Cal/Mol-Kelvin
 Total                   37.536             14.475             69.889
 Electronic               0.000              0.000              2.183
 Translational            0.889              2.981             38.342
 Rotational               0.889              2.981             23.993
 Vibrational             35.759              8.514              5.370
 Vibration     1          0.624              1.884              2.475
 Vibration     2          0.697              1.661              1.379

 Optimization completed.
    -- Stationary point found.
 Normal termination of Gaussian 09 at Tue Jul 19 20:50:30 2016.
