 Gaussian 09, Revision E.01,
 Gaussian 09:  EM64L-G09RevE.01 30-Nov-2015

 ---------------------------------------------
 #p b3lyp/6-311++G(3df,2p) freq symmetry=Loose
 ---------------------------------------------

 ---------
 b3lyp opt
 ---------
 Symbolic Z-matrix:
 Charge =  0 Multiplicity = 2

                         Standard orientation:
 ---------------------------------------------------------------------
 Center     Atomic      Atomic             Coordinates (Angstroms)
 Number     Number       Type             X           Y           Z
 ---------------------------------------------------------------------
      1          6           0        2.272181   -0.646618    0.000000
      2          1           0        3.205552   -1.152966    0.000000
      3          6           0        1.206183   -0.068850    0.000000
      4          6           0       -0.000000    0.607563    0.000000
      5          1           0        0.011746    1.689392    0.000000
      6          6           0       -1.257028   -0.039396   -0.000000
      7          1           0       -1.321603   -1.146960   -0.000000
      8          6           0       -2.537285    0.249058   -0.000000
 ---------------------------------------------------------------------

 SCF Done:  E(UB3LYP) =  -192.151521935     A.U. after   19 cycles

 The electronic state is 2-A".
 Alpha  occ. eigenvalues --  -10.24996 -10.23809 -10.20629 -10.20236 -10.19924
 Alpha  occ. eigenvalues --   -0.85525  -0.79192  -0.72572  -0.57315  -0.54947
 Alpha  occ. eigenvalues --   -0.52159  -0.44685  -0.39265  -0.32227  -0.32057
 Alpha  occ. eigenvalues --   -0.30460  -0.22401
 Alpha virt. eigenvalues --   -0.11271  -0.00713  -0.00357  -0.00148   0.01163
 Alpha virt. eigenvalues --    0.01781   0.04210   0.04828   0.06197   0.06760
 Alpha virt. eigenvalues --    0.07554   0.08499   0.08557   0.09761   0.10208

  Beta  occ. eigenvalues --  -10.24440 -10.22917 -10.20861 -10.20475 -10.19378
  Beta  occ. eigenvalues --   -0.84611  -0.78510  -0.70766  -0.56700  -0.54477
  Beta  occ. eigenvalues --   -0.51775  -0.44366  -0.36585  -0.31408  -0.30094
  Beta  occ. eigenvalues --   -0.30005
  Beta virt. eigenvalues --   -0.12488  -0.10607  -0.00640  -0.00137   0.01108
  Beta virt. eigenvalues --    0.01182   0.01855   0.04360   0.04884   0.06839
  Beta virt. eigenvalues --    0.07040   0.07671   0.08598   0.09546   0.09914

 Mulliken charges and spin densities:
               1          2
     1  C    0.380584   0.399805
     2  H    0.320403  -0.012691
     3  C   -0.233941  -0.148611
     4  C   -0.535198   0.587242
     5  H    0.157256  -0.020393
     6  C    0.455918  -0.164026
     7  H    0.158223  -0.002192
     8  C   -0.703245   0.360866
 Sum of Mulliken charges =  -0.00000   1.00000

 Dipole moment (field-independent basis, Debye):
    X=              2.4162    Y=             -0.5257    Z=              0.0000  Tot=              2.4727
 Quadrupole moment (field-independent basis, Debye-Ang):
   XX=            -34.8622   YY=            -25.9619   ZZ=            -32.2599
   XY=             -0.6452   XZ=             -0.0000   YZ=             -0.0000

  Exact polarizability: 110.121 -13.302  49.875   0.000   0.000  39.353
 Approx polarizability: 172.327 -28.451  78.857   0.000  -0.000  54.764

                      1                      2                      3
                     A'                     A"                     A'
 Frequencies --    129.0363               176.5395               237.3041
 Red. masses --      6.5020                 3.2772                 4.1034
 Frc consts  --      0.0638                 0.0602                 0.1361
 IR Inten    --     11.9076                 3.7811                15.9542

                      4                      5                      6
                     A"                     A'                     A"
 Frequencies --    411.7889               538.6776               548.1577
 Red. masses --      4.3534                 4.9203                 1.2796
 Frc consts  --      0.4349                 0.8412                 0.2265
 IR Inten    --     10.4279                 6.1074                44.7427

                      7                      8                      9
                     A"                     A'                     A"
 Frequencies --    670.4354               676.7801               710.3963
 Red. masses --      1.3529                 1.2566                 1.7139
 Frc consts  --      0.3583                 0.3391                 0.5096
 IR Inten    --     25.7225                43.6179                12.7986

                     10                     11                     12
                     A'                     A'                     A'
 Frequencies --    830.4191              1060.4934              1157.4509
 Red. masses --      1.9558                 2.2299                 2.2334
 Frc consts  --      0.7946                 1.4776                 1.7629
 IR Inten    --      0.5617                 2.4937                 6.8089

                     13                     14                     15
                     A'                     A'                     A'
 Frequencies --   1376.6044              1611.1928              2075.5989
 Red. masses --      1.7836                 7.7455                 6.5763
 Frc consts  --      1.9914                11.8467                16.6924
 IR Inten    --      5.5430               108.0395                 1.5314

                     16                     17                     18
                     A'                     A'                     A'
 Frequencies --   2941.3651              3171.6657              3455.1313
 Red. masses --      1.0762                 1.0859                 1.1439
 Frc consts  --      5.4860                 6.4361                 8.0458
 IR Inten    --     25.7539                 0.0791                78.7862

 - Thermochemistry -
 -------------------
 Temperature   298.150 Kelvin.  Pressure   1.00000 Atm.
 Atom     1 has atomic number  6 and mass  12.00000

 Molecular mass:    63.02348 amu.
 Principal axes and moments of inertia in atomic units:
                           1         2         3
     Eigenvalues --    40.80337 685.87477 726.67813
           X            0.98781   0.15566   0.00000
           Y           -0.15566   0.98781   0.00000
           Z           -0.00000   0.00000   1.00000
 This molecule is an asymmetric top.
 Rotational symmetry number  1.
 Rotational temperatures (Kelvin)      2.12271     0.12628     0.11919
 Rotational constants (GHZ):          44.23020     2.63130     2.48355
 Zero-point vibrational energy     130267.6 (Joules/Mol)
                                   31.13470 (Kcal/Mol)
 Warning -- explicit consideration of   6 degrees of freedom as
           vibrations may cause significant error
 Vibrational temperatures:    185.65   254.00   341.43   592.47   775.04
          (Kelvin)            788.68   964.61   973.73  1022.10  1194.79
                             1525.81  1665.31  1980.62  2318.14  2986.32
                             4231.96  4563.31  4971.16

 Zero-point correction=                           0.049616 (Hartree/Particle)
 Thermal correction to Energy=                    0.055405
 Thermal correction to Enthalpy=                  0.056349
 Thermal correction to Gibbs Free Energy=         0.020841
 Sum of electronic and zero-point Energies=           -192.101906
 Sum of electronic and thermal Energies=              -192.096117
 Sum of electronic and thermal Enthalpies=            -192.095173
 Sum of electronic and thermal Free Energies=         -192.130681

                     E (Thermal)             CV                S
                      KCal/Mol        Cal/Mol-Kelvin    Cal/Mol-Kelvin
 Total                   34.767             19.190             74.734
 Electronic               0.000              0.000              1.377
 Translational            0.889              2.981             38.342
 Rotational               0.889              2.981             24.523
 Vibrational             32.990             13.229             10.491
 Vibration     1          0.612              1.924              2.960
 Vibration     2          0.628              1.871              2.365
 Vibration     3          0.656              1.784              1.823
 Vibration     4          0.776              1.445              0.920
 Vibration     5          0.894              1.165              0.568
 Vibration     6          0.903              1.144              0.548

 Optimization completed.
    -- Stationary point found.
 Normal termination of Gaussian 09 at Tue Jul 19 13:02:22 2016.
