 Gaussian 09, Revision E.01,
 Gaussian 09:  EM64L-G09RevE.01 30-Nov-2015

 ---------------------------------------------
 #p b3lyp/6-311++G(3df,2p) freq symmetry=Loose
 ---------------------------------------------

 ---------
 b3lyp opt
 ---------
 Symbolic Z-matrix:
 Charge =  3 Multiplicity = 1

                         Standard orientation:
 ---------------------------------------------------------------------
 Center     Atomic      Atomic             Coordinates (Angstroms)
 Number     Number       Type             X           Y           Z
 ---------------------------------------------------------------------
      1          6           0       -0.397509   -0.642837    0.000000
      2          1           0       -1.516632   -0.878778    0.000000
      3          6           0        0.212845   -1.926157   -0.000000
      4          1           0        0.388561   -2.492373    0.960717
      5          1           0        0.388561   -2.492373   -0.960717
      6          6           0       -1.099361    1.706897    0.000000
      7          6           0        0.000000    0.725411    0.000000
      8          6           0        1.407276    1.113940   -0.000000
 ---------------------------------------------------------------------

 SCF Done:  E(RB3LYP) =  -190.316150742     A.U. after   13 cycles

 The electronic state is 1-A'.
 Alpha  occ. eigenvalues --  -11.07897 -11.07299 -11.03012 -11.01989 -10.95433
 Alpha  occ. eigenvalues --   -1.59436  -1.50501  -1.38462  -1.34229  -1.22959
 Alpha  occ. eigenvalues --   -1.16918  -1.16509  -1.06036  -1.03855  -1.00010
 Alpha virt. eigenvalues --   -0.85882  -0.85315  -0.84163  -0.83426  -0.81730
 Alpha virt. eigenvalues --   -0.65265  -0.54928  -0.51981  -0.48914  -0.46376
 Alpha virt. eigenvalues --   -0.45026  -0.44207  -0.42349  -0.41354  -0.39553

 Mulliken charges:
               1
     1  C    0.072129
     2  H    0.328054
     3  C    0.038360
     4  H    0.366807
     5  H    0.366807
     6  C    0.489849
     7  C    0.991542
     8  C    0.346452
 Sum of Mulliken charges =   3.00000

 Dipole moment (field-independent basis, Debye):
    X=             -0.3076    Y=             -3.8729    Z=             -0.0000  Tot=              3.8851
 Quadrupole moment (field-independent basis, Debye-Ang):
   XX=            -10.5376   YY=             19.6008   ZZ=            -19.5268
   XY=             -1.7963   XZ=             -0.0000   YZ=              0.0000

  Exact polarizability:  46.710  -3.136  64.366   0.000  -0.000  27.992
 Approx polarizability: 105.037  -8.951 110.802  -0.000   0.000  43.160

                      1                      2                      3
                     A'                     A"                     A'
 Frequencies --    174.1183               190.8588               326.2931
 Red. masses --      6.2516                 2.0843                 7.0750
 Frc consts  --      0.1117                 0.0447                 0.4438
 IR Inten    --      2.3569                 0.5576                22.5133

                      4                      5                      6
                     A"                     A'                     A"
 Frequencies --    344.4416               384.0197               521.7818
 Red. masses --      2.6774                 4.5234                 1.6343
 Frc consts  --      0.1872                 0.3930                 0.2622
 IR Inten    --      2.9972                24.4142                 2.4142

                      7                      8                      9
                     A"                     A'                     A'
 Frequencies --    731.2388               747.5748               920.1557
 Red. masses --      1.1040                 6.1138                 2.4988
 Frc consts  --      0.3478                 2.0131                 1.2465
 IR Inten    --     23.1553                28.2697                55.6820

                     10                     11                     12
                     A"                     A'                     A'
 Frequencies --    988.7165              1083.4511              1159.0387
 Red. masses --      1.6317                 3.1511                 2.0413
 Frc consts  --      0.9398                 2.1794                 1.6156
 IR Inten    --      9.2430               399.0810               247.4099

                     13                     14                     15
                     A'                     A'                     A'
 Frequencies --   1233.6982              1280.5074              1406.2169
 Red. masses --      2.3736                 1.1401                 3.4761
 Frc consts  --      2.1285                 1.1014                 4.0499
 IR Inten    --    380.2816               101.1041               114.3609

                     16                     17                     18
                     A'                     A'                     A"
 Frequencies --   2612.2226              2708.4232              2791.5789
 Red. masses --      1.0813                 1.0448                 1.1185
 Frc consts  --      4.3471                 4.5155                 5.1354
 IR Inten    --    333.8660               713.6976               348.5504

 - Thermochemistry -
 -------------------
 Temperature   298.150 Kelvin.  Pressure   1.00000 Atm.
 Atom     1 has atomic number  6 and mass  12.00000

 Molecular mass:    63.02348 amu.
 Principal axes and moments of inertia in atomic units:
                           1         2         3
     Eigenvalues --   159.51218 431.32754 577.55250
           X           -0.08221   0.99662   0.00000
           Y            0.99662   0.08221   0.00000
           Z            0.00000   0.00000   1.00000
 This molecule is an asymmetric top.
 Rotational symmetry number  1.
 Rotational temperatures (Kelvin)      0.54299     0.20081     0.14997
 Rotational constants (GHZ):          11.31413     4.18415     3.12481
 Zero-point vibrational energy     117260.0 (Joules/Mol)
                                   28.02581 (Kcal/Mol)
 Warning -- explicit consideration of   6 degrees of freedom as
           vibrations may cause significant error
 Vibrational temperatures:    250.52   274.60   469.46   495.57   552.52
          (Kelvin)            750.73  1052.09  1075.59  1323.90  1422.54
                             1558.84  1667.60  1775.01  1842.36  2023.23
                             3758.40  3896.81  4016.45

 Zero-point correction=                           0.044662 (Hartree/Particle)
 Thermal correction to Energy=                    0.050326
 Thermal correction to Enthalpy=                  0.051270
 Thermal correction to Gibbs Free Energy=         0.016495
 Sum of electronic and zero-point Energies=           -190.271489
 Sum of electronic and thermal Energies=              -190.265825
 Sum of electronic and thermal Enthalpies=            -190.264880
 Sum of electronic and thermal Free Energies=         -190.299656

                     E (Thermal)             CV                S
                      KCal/Mol        Cal/Mol-Kelvin    Cal/Mol-Kelvin
 Total                   31.580             18.954             73.191
 Electronic               0.000              0.000              0.000
 Translational            0.889              2.981             38.342
 Rotational               0.889              2.981             25.189
 Vibrational             29.803             12.992              9.660
 Vibration     1          0.627              1.874              2.391
 Vibration     2          0.634              1.852              2.219
 Vibration     3          0.710              1.623              1.278
 Vibration     4          0.723              1.587              1.192
 Vibration     5          0.753              1.504              1.023
 Vibration     6          0.877              1.202              0.606

 Optimization completed.
    -- Stationary point found.
 Normal termination of Gaussian 09 at Tue Jul 19 16:37:12 2016.
