 Gaussian 09, Revision E.01,
 Gaussian 09:  EM64L-G09RevE.01 30-Nov-2015

 ---------------------------------------------
 #p b3lyp/6-311++G(3df,2p) freq symmetry=Loose
 ---------------------------------------------

 ---------
 b3lyp opt
 ---------
 Symbolic Z-matrix:
 Charge =  0 Multiplicity = 4

                         Standard orientation:
 ---------------------------------------------------------------------
 Center     Atomic      Atomic             Coordinates (Angstroms)
 Number     Number       Type             X           Y           Z
 ---------------------------------------------------------------------
      1          6           0       -1.357774    0.507406    0.000000
      2          1           0       -2.081750    1.322982    0.000000
      3          6           0        1.057807   -0.056411   -0.000000
      4          6           0       -1.851179   -0.762926    0.000000
      5          6           0        1.990083   -0.825756   -0.000000
      6          1           0        2.804756   -1.506580   -0.000000
      7          6           0       -0.000000    0.850426    0.000000
      8          1           0        0.243374    1.907159    0.000000
 ---------------------------------------------------------------------

 SCF Done:  E(UB3LYP) =  -192.087611243     A.U. after   18 cycles

 The electronic state is 4-A".
 Alpha  occ. eigenvalues --  -10.25124 -10.22022 -10.21816 -10.18945 -10.18588
 Alpha  occ. eigenvalues --   -0.84480  -0.77275  -0.70689  -0.59114  -0.53247
 Alpha  occ. eigenvalues --   -0.49530  -0.46141  -0.38643  -0.38003  -0.31109
 Alpha  occ. eigenvalues --   -0.29507  -0.24110  -0.21982
 Alpha virt. eigenvalues --   -0.01969  -0.00850   0.00575   0.01928   0.02635
 Alpha virt. eigenvalues --    0.04525   0.04896   0.06756   0.07291   0.07546
 Alpha virt. eigenvalues --    0.09212   0.09657   0.10886   0.11223   0.11404

  Beta  occ. eigenvalues --  -10.22134 -10.21213 -10.20886 -10.19144 -10.18163
  Beta  occ. eigenvalues --   -0.82469  -0.75775  -0.66958  -0.56456  -0.52195
  Beta  occ. eigenvalues --   -0.47613  -0.43442  -0.35317  -0.29345  -0.28348
  Beta virt. eigenvalues --   -0.17877  -0.10412  -0.05586  -0.00469   0.00644
  Beta virt. eigenvalues --    0.01164   0.02069   0.02860   0.04947   0.05387
  Beta virt. eigenvalues --    0.07110   0.08120   0.08304   0.09453   0.10729

 Mulliken charges and spin densities:
               1          2
     1  C   -0.077516  -0.369802
     2  H    0.144186   0.071989
     3  C   -0.263440  -0.130017
     4  C   -0.267416   2.538213
     5  C    0.423509   0.358416
     6  H    0.317738  -0.009051
     7  C   -0.432425   0.546142
     8  H    0.155365  -0.005890
 Sum of Mulliken charges =  -0.00000   3.00000

 Dipole moment (field-independent basis, Debye):
    X=              0.2086    Y=              0.6770    Z=              0.0000  Tot=              0.7084
 Quadrupole moment (field-independent basis, Debye-Ang):
   XX=            -26.4547   YY=            -26.0211   ZZ=            -32.0143
   XY=             -3.5729   XZ=             -0.0000   YZ=             -0.0000

  Exact polarizability:  93.410  -5.818  60.675  -0.000   0.000  39.041
 Approx polarizability: 144.382 -10.856  98.948  -0.000   0.000  53.517

                      1                      2                      3
                     A'                     A"                     A'
 Frequencies --    156.5359               262.0829               385.4908
 Red. masses --      5.4759                 2.9196                 6.4441
 Frc consts  --      0.0791                 0.1182                 0.5642
 IR Inten    --      1.3360                 5.8301                 4.6679

                      4                      5                      6
                     A"                     A"                     A'
 Frequencies --    476.8853               595.7695               674.2427
 Red. masses --      2.9529                 1.2777                 1.2674
 Frc consts  --      0.3957                 0.2672                 0.3395
 IR Inten    --      9.9232                44.5769                40.3646

                      7                      8                      9
                     A"                     A'                     A"
 Frequencies --    698.8099               714.4049               831.4316
 Red. masses --      1.4242                 7.0409                 1.4841
 Frc consts  --      0.4098                 2.1172                 0.6045
 IR Inten    --     32.6986                 3.6067                 0.0017

                     10                     11                     12
                     A'                     A'                     A'
 Frequencies --    943.4687              1151.2386              1227.8059
 Red. masses --      4.3321                 1.6084                 2.8782
 Frc consts  --      2.2720                 1.2560                 2.5564
 IR Inten    --      2.6206                 3.4452                10.7358

                     13                     14                     15
                     A'                     A'                     A'
 Frequencies --   1330.2788              1415.2418              2115.5275
 Red. masses --      1.8952                 2.1075                 6.3908
 Frc consts  --      1.9760                 2.4870                16.8518
 IR Inten    --      9.5021                 7.4013                 2.8147

                     16                     17                     18
                     A'                     A'                     A'
 Frequencies --   3060.7186              3144.8436              3458.3885
 Red. masses --      1.0830                 1.0862                 1.1483
 Frc consts  --      5.9775                 6.3295                 8.0921
 IR Inten    --      5.7276                 2.8118                70.0565

 - Thermochemistry -
 -------------------
 Temperature   298.150 Kelvin.  Pressure   1.00000 Atm.
 Atom     1 has atomic number  6 and mass  12.00000

 Molecular mass:    63.02348 amu.
 Principal axes and moments of inertia in atomic units:
                           1         2         3
     Eigenvalues --   112.27841 499.02670 611.30511
           X            0.98510   0.17198   0.00000
           Y           -0.17198   0.98510   0.00000
           Z            0.00000  -0.00000   1.00000
 This molecule is an asymmetric top.
 Rotational symmetry number  1.
 Rotational temperatures (Kelvin)      0.77142     0.17357     0.14169
 Rotational constants (GHZ):          16.07380     3.61652     2.95228
 Zero-point vibrational energy     135436.2 (Joules/Mol)
                                   32.37003 (Kcal/Mol)
 Warning -- explicit consideration of   5 degrees of freedom as
           vibrations may cause significant error
 Vibrational temperatures:    225.22   377.08   554.63   686.13   857.18
          (Kelvin)            970.08  1005.43  1027.87  1196.24  1357.44
                             1656.37  1766.54  1913.97  2036.21  3043.77
                             4403.69  4524.72  4975.84

 Zero-point correction=                           0.051585 (Hartree/Particle)
 Thermal correction to Energy=                    0.056759
 Thermal correction to Enthalpy=                  0.057703
 Thermal correction to Gibbs Free Energy=         0.022574
 Sum of electronic and zero-point Energies=           -192.036026
 Sum of electronic and thermal Energies=              -192.030852
 Sum of electronic and thermal Enthalpies=            -192.029908
 Sum of electronic and thermal Free Energies=         -192.065037

                     E (Thermal)             CV                S
                      KCal/Mol        Cal/Mol-Kelvin    Cal/Mol-Kelvin
 Total                   35.617             17.668             73.935
 Electronic               0.000              0.000              2.755
 Translational            0.889              2.981             38.342
 Rotational               0.889              2.981             25.041
 Vibrational             33.839             11.706              7.797
 Vibration     1          0.620              1.895              2.591
 Vibration     2          0.669              1.742              1.648
 Vibration     3          0.754              1.501              1.018
 Vibration     4          0.833              1.301              0.719
 Vibration     5          0.954              1.041              0.457

 Optimization completed.
    -- Stationary point found.
 Normal termination of Gaussian 09 at Tue Jul 19 15:41:18 2016.
