 Gaussian 09, Revision E.01,
 Gaussian 09:  EM64L-G09RevE.01 30-Nov-2015

 ---------------------------------------------
 #p b3lyp/6-311++G(3df,2p) freq symmetry=Loose
 ---------------------------------------------

 ---------
 b3lyp opt
 ---------
 Symbolic Z-matrix:
 Charge =  0 Multiplicity = 2

                         Standard orientation:
 ---------------------------------------------------------------------
 Center     Atomic      Atomic             Coordinates (Angstroms)
 Number     Number       Type             X           Y           Z
 ---------------------------------------------------------------------
      1          6           0        0.000000    1.030435   -0.263820
      2          6           0       -1.059430    0.000000   -0.315563
      3          6           0       -0.000000   -1.030435   -0.263820
      4          6           0        1.059430   -0.000000   -0.315563
      5          1           0        0.000000    2.095451   -0.116886
      6          1           0       -0.000000   -2.095451   -0.116886
      7          1           0        0.000000    0.000000    1.945333
      8          6           0        0.000000    0.000000    0.873507
 ---------------------------------------------------------------------

 SCF Done:  E(UB3LYP) =  -192.106268911     A.U. after   13 cycles

 The electronic state is 2-B1.
 Alpha  occ. eigenvalues --  -10.25819 -10.23814 -10.23812 -10.22355 -10.22351
 Alpha  occ. eigenvalues --   -1.04680  -0.71761  -0.67709  -0.63175  -0.57016
 Alpha  occ. eigenvalues --   -0.45370  -0.43896  -0.42507  -0.34121  -0.32350
 Alpha  occ. eigenvalues --   -0.30671  -0.21940
 Alpha virt. eigenvalues --   -0.00855   0.00674   0.01141   0.02094   0.02953
 Alpha virt. eigenvalues --    0.04465   0.06633   0.06661   0.07232   0.07269
 Alpha virt. eigenvalues --    0.07720   0.08565   0.09326   0.09442   0.11464

  Beta  occ. eigenvalues --  -10.25859 -10.23639 -10.23636 -10.21607 -10.21607
  Beta  occ. eigenvalues --   -1.03810  -0.71309  -0.65888  -0.62936  -0.56817
  Beta  occ. eigenvalues --   -0.45013  -0.43739  -0.41341  -0.32124  -0.29855
  Beta  occ. eigenvalues --   -0.27959
  Beta virt. eigenvalues --   -0.11197  -0.00843   0.00692   0.01182   0.02847
  Beta virt. eigenvalues --    0.03378   0.04508   0.06806   0.07252   0.07349
  Beta virt. eigenvalues --    0.07460   0.07741   0.08619   0.09454   0.09506

 Mulliken charges and spin densities:
               1          2
     1  C    0.092903   0.049268
     2  C   -0.628011   0.461003
     3  C    0.092903   0.049268
     4  C   -0.628011   0.461003
     5  H    0.205465  -0.001459
     6  H    0.205465  -0.001459
     7  H    0.330281  -0.005323
     8  C    0.329006  -0.012300
 Sum of Mulliken charges =  -0.00000   1.00000

 Dipole moment (field-independent basis, Debye):
    X=              0.0000    Y=             -0.0000    Z=              1.7289  Tot=              1.7289
 Quadrupole moment (field-independent basis, Debye-Ang):
   XX=            -37.0979   YY=            -23.7134   ZZ=            -27.9207
   XY=              0.0000   XZ=              0.0000   YZ=             -0.0000

  Exact polarizability:  71.047   0.000  48.867   0.000   0.000  44.268
 Approx polarizability: 133.202  -0.000  75.553   0.000   0.000  75.677

                      1                      2                      3
                     B1                     A1                     B2
 Frequencies --    379.2809               530.7484               610.6500
 Red. masses --      8.1145                10.7306                 8.0698
 Frc consts  --      0.6878                 1.7810                 1.7729
 IR Inten    --     48.9070                 4.6456                 6.0784

                      4                      5                      6
                     B1                     B2                     A1
 Frequencies --    799.5032               838.6774               847.8985
 Red. masses --      1.2661                 1.0618                 1.5633
 Frc consts  --      0.4768                 0.4400                 0.6622
 IR Inten    --     55.8238                 0.5079                38.9660

                      7                      8                      9
                     B1                     A1                     B2
 Frequencies --    950.8314               956.2779               993.1720
 Red. masses --      1.6590                 8.2245                 1.4812
 Frc consts  --      0.8837                 4.4313                 0.8608
 IR Inten    --     19.9864                 1.6626                 7.2944

                     10                     11                     12
                     A2                     A2                     A1
 Frequencies --   1007.8122              1088.9134              1136.6090
 Red. masses --      3.5937                 1.5015                 2.2471
 Frc consts  --      2.1505                 1.0489                 1.7104
 IR Inten    --      0.0000                 0.0000                 6.8549

                     13                     14                     15
                     B2                     B1                     A1
 Frequencies --   1209.1465              1248.5586              1277.7158
 Red. masses --      4.5357                 1.9596                 6.6915
 Frc consts  --      3.9070                 1.7998                 6.4364
 IR Inten    --      8.7221                 0.0301                 0.2694

                     16                     17                     18
                     A1                     B2                     A1
 Frequencies --   3268.2388              3270.2106              3298.3261
 Red. masses --      1.0996                 1.0964                 1.1012
 Frc consts  --      6.9200                 6.9083                 7.0584
 IR Inten    --      0.5581                 0.4668                13.5278

 - Thermochemistry -
 -------------------
 Temperature   298.150 Kelvin.  Pressure   1.00000 Atm.
 Atom     1 has atomic number  6 and mass  12.00000

 Molecular mass:    63.02348 amu.
 Principal axes and moments of inertia in atomic units:
                           1         2         3
     Eigenvalues --   156.94698 183.35950 218.80294
           X            0.00000   1.00000   0.00000
           Y            1.00000  -0.00000   0.00000
           Z           -0.00000  -0.00000   1.00000
 This molecule is an asymmetric top.
 Rotational symmetry number  2.
 Rotational temperatures (Kelvin)      0.55187     0.47237     0.39585
 Rotational constants (GHZ):          11.49905     9.84264     8.24825
 Zero-point vibrational energy     141832.7 (Joules/Mol)
                                   33.89882 (Kcal/Mol)
 Warning -- explicit consideration of   3 degrees of freedom as
           vibrations may cause significant error
 Vibrational temperatures:    545.70   763.63   878.59  1150.31  1206.67
          (Kelvin)           1219.94  1368.03  1375.87  1428.95  1450.02
                             1566.70  1635.32  1739.69  1796.40  1838.35
                             4702.26  4705.10  4745.55

 Zero-point correction=                           0.054021 (Hartree/Particle)
 Thermal correction to Energy=                    0.058004
 Thermal correction to Enthalpy=                  0.058948
 Thermal correction to Gibbs Free Energy=         0.028088
 Sum of electronic and zero-point Energies=           -192.052248
 Sum of electronic and thermal Energies=              -192.048265
 Sum of electronic and thermal Enthalpies=            -192.047321
 Sum of electronic and thermal Free Energies=         -192.078181

                     E (Thermal)             CV                S
                      KCal/Mol        Cal/Mol-Kelvin    Cal/Mol-Kelvin
 Total                   36.398             14.172             64.952
 Electronic               0.000              0.000              1.377
 Translational            0.889              2.981             38.342
 Rotational               0.889              2.981             21.981
 Vibrational             34.621              8.210              3.252
 Vibration     1          0.749              1.514              1.042
 Vibration     2          0.886              1.182              0.586
 Vibration     3          0.970              1.009              0.432

 Optimization completed.
    -- Stationary point found.
 Normal termination of Gaussian 09 at Tue Jul 19 11:58:25 2016.
