 Gaussian 09, Revision E.01,
 Gaussian 09:  EM64L-G09RevE.01 30-Nov-2015

 ---------------------------------------------
 #p b3lyp/6-311++G(3df,2p) freq symmetry=Loose
 ---------------------------------------------

 ---------
 b3lyp opt
 ---------
 Symbolic Z-matrix:
 Charge =  3 Multiplicity = 3

                         Standard orientation:
 ---------------------------------------------------------------------
 Center     Atomic      Atomic             Coordinates (Angstroms)
 Number     Number       Type             X           Y           Z
 ---------------------------------------------------------------------
      1          6           0       -2.369891   -0.392379    0.000055
      2          1           0       -3.414720   -0.762090   -0.000206
      3          6           0       -1.166186    0.009219    0.000000
      4          6           0        1.366112   -0.051158   -0.000064
      5          6           0        2.573279   -0.555756    0.000031
      6          6           0        0.114353    0.632338    0.000009
      7          1           0        0.154290    1.454262   -0.834123
      8          1           0        0.154436    1.454244    0.834148
 ---------------------------------------------------------------------

 SCF Done:  E(UB3LYP) =  -190.346494386     A.U. after   24 cycles

 The electronic state is 3-A.
 Alpha  occ. eigenvalues --  -11.09312 -11.04724 -10.95837 -10.95067 -10.94057
 Alpha  occ. eigenvalues --   -1.58681  -1.51236  -1.43264  -1.28876  -1.20877
 Alpha  occ. eigenvalues --   -1.16032  -1.14871  -1.13494  -1.07557  -1.04766
 Alpha  occ. eigenvalues --   -0.97153
 Alpha virt. eigenvalues --   -0.87206  -0.76404  -0.74126  -0.66008  -0.63183
 Alpha virt. eigenvalues --   -0.56244  -0.49298  -0.48207  -0.46147  -0.44678
 Alpha virt. eigenvalues --   -0.43978  -0.41081  -0.40586  -0.38042  -0.36333

  Beta  occ. eigenvalues --  -11.05356 -11.03555 -10.95644 -10.95563 -10.94689
  Beta  occ. eigenvalues --   -1.55064  -1.48653  -1.43408  -1.28044  -1.19202
  Beta  occ. eigenvalues --   -1.16271  -1.13087  -0.99800  -0.97854
  Beta virt. eigenvalues --   -0.91287  -0.91050  -0.87286  -0.67195  -0.66765
  Beta virt. eigenvalues --   -0.66566  -0.65650  -0.55212  -0.48662  -0.47485
  Beta virt. eigenvalues --   -0.46058  -0.44594  -0.43428  -0.40631  -0.39726

 Mulliken charges and spin densities:
               1          2
     1  C    0.598005  -0.306029
     2  H    0.487639   0.009658
     3  C    0.254786  -0.451365
     4  C    0.785401   0.674501
     5  C    0.650629   1.772946
     6  C   -0.537222   0.152324
     7  H    0.380387   0.073996
     8  H    0.380375   0.073970
 Sum of Mulliken charges =   3.00000   2.00000

 Dipole moment (field-independent basis, Debye):
    X=              1.3221    Y=              0.2246    Z=             -0.0000  Tot=              1.3410
 Quadrupole moment (field-independent basis, Debye-Ang):
   XX=             44.0765   YY=            -12.5876   ZZ=            -19.4691
   XY=              1.0187   XZ=              0.0009   YZ=              0.0000

  Exact polarizability: 120.807  -3.025  33.074  -0.001   0.000  24.864
 Approx polarizability: 268.254 -11.094  54.254  -0.003  -0.000  36.726

                      1                      2                      3
                      A                      A                      A
 Frequencies --    129.1032               264.5022               329.1716
 Red. masses --      5.3786                 1.9535                 5.3057
 Frc consts  --      0.0528                 0.0805                 0.3387
 IR Inten    --      2.7577                64.6427                25.6658

                      4                      5                      6
                      A                      A                      A
 Frequencies --    351.1907               543.8795               595.3726
 Red. masses --      5.0644                 9.3998                 2.3503
 Frc consts  --      0.3680                 1.6382                 0.4909
 IR Inten    --      0.5529                19.5656                25.3602

                      7                      8                      9
                      A                      A                      A
 Frequencies --    736.4197               783.6483               814.1086
 Red. masses --      1.2413                 5.8894                 1.2630
 Frc consts  --      0.3966                 2.1309                 0.4932
 IR Inten    --     60.2402               108.5770               180.3890

                     10                     11                     12
                      A                      A                      A
 Frequencies --    827.4340               938.6457               983.7315
 Red. masses --      1.4400                 1.4208                 1.1099
 Frc consts  --      0.5809                 0.7375                 0.6328
 IR Inten    --     16.1565                70.9531                 0.4601

                     13                     14                     15
                      A                      A                      A
 Frequencies --   1202.1858              1670.2190              1912.0257
 Red. masses --      2.7380                 8.3613                 6.3319
 Frc consts  --      2.3314                13.7426                13.6387
 IR Inten    --    350.0053              1444.4377               431.5124

                     16                     17                     18
                      A                      A                      A
 Frequencies --   2270.0619              2388.5451              3023.0816
 Red. masses --      1.0604                 1.0670                 1.1732
 Frc consts  --      3.2196                 3.5866                 6.3172
 IR Inten    --    423.2535               749.3049               442.5560

 - Thermochemistry -
 -------------------
 Temperature   298.150 Kelvin.  Pressure   1.00000 Atm.
 Atom     1 has atomic number  6 and mass  12.00000

 Molecular mass:    63.02348 amu.
 Principal axes and moments of inertia in atomic units:
                           1         2         3
     Eigenvalues --    58.98075 710.02743 758.99168
           X            0.99987   0.01604   0.00000
           Y           -0.01604   0.99987   0.00001
           Z           -0.00000  -0.00001   1.00000
 This molecule is an asymmetric top.
 Rotational symmetry number  1.
 Rotational temperatures (Kelvin)      1.46851     0.12199     0.11412
 Rotational constants (GHZ):          30.59882     2.54179     2.37781
 Zero-point vibrational energy     118210.9 (Joules/Mol)
                                   28.25309 (Kcal/Mol)
 Warning -- explicit consideration of   6 degrees of freedom as
           vibrations may cause significant error
 Vibrational temperatures:    185.75   380.56   473.60   505.28   782.52
          (Kelvin)            856.61  1059.54  1127.49  1171.32  1190.49
                             1350.50  1415.37  1729.68  2403.07  2750.98
                             3266.11  3436.58  4349.53

 Zero-point correction=                           0.045024 (Hartree/Particle)
 Thermal correction to Energy=                    0.050538
 Thermal correction to Enthalpy=                  0.051482
 Thermal correction to Gibbs Free Energy=         0.016008
 Sum of electronic and zero-point Energies=           -190.301470
 Sum of electronic and thermal Energies=              -190.295956
 Sum of electronic and thermal Enthalpies=            -190.295012
 Sum of electronic and thermal Free Energies=         -190.330486

                     E (Thermal)             CV                S
                      KCal/Mol        Cal/Mol-Kelvin    Cal/Mol-Kelvin
 Total                   31.713             18.795             74.661
 Electronic               0.000              0.000              2.183
 Translational            0.889              2.981             38.342
 Rotational               0.889              2.981             24.967
 Vibrational             29.936             12.833              9.169
 Vibration     1          0.612              1.924              2.959
 Vibration     2          0.671              1.738              1.632
 Vibration     3          0.712              1.617              1.264
 Vibration     4          0.728              1.573              1.161
 Vibration     5          0.899              1.153              0.557
 Vibration     6          0.953              1.042              0.458

 Optimization completed.
    -- Stationary point found.
 Normal termination of Gaussian 09 at Sun Jun 19 14:28:47 2016.
