 Gaussian 09, Revision E.01,
 Gaussian 09:  EM64L-G09RevE.01 30-Nov-2015

 ---------------------------------------------
 #p b3lyp/6-311++G(3df,2p) freq symmetry=Loose
 ---------------------------------------------

 ---------
 b3lyp opt
 ---------
 Symbolic Z-matrix:
 Charge =  3 Multiplicity = 1

                         Standard orientation:
 ---------------------------------------------------------------------
 Center     Atomic      Atomic             Coordinates (Angstroms)
 Number     Number       Type             X           Y           Z
 ---------------------------------------------------------------------
      1          6           0       -2.583810   -0.113098   -0.000000
      2          1           0       -3.695257   -0.225889   -0.000000
      3          6           0       -1.306866   -0.029235   -0.000000
      4          6           0        0.000000    0.123626    0.000000
      5          1           0       -0.003438    1.378795   -0.000000
      6          6           0        1.307154   -0.026266    0.000000
      7          6           0        2.584058   -0.110031    0.000000
      8          1           0        3.695479   -0.222883    0.000000
 ---------------------------------------------------------------------

 SCF Done:  E(RB3LYP) =  -190.478966141     A.U. after   13 cycles

 The electronic state is 1-A'.
 Alpha  occ. eigenvalues --  -11.01031 -11.01020 -11.00277 -10.95448 -10.95429
 Alpha  occ. eigenvalues --   -1.56781  -1.50377  -1.44471  -1.34862  -1.20191
 Alpha  occ. eigenvalues --   -1.19618  -1.16949  -1.08258  -0.99846  -0.99452
 Alpha virt. eigenvalues --   -0.91208  -0.84910  -0.68653  -0.68024  -0.67887
 Alpha virt. eigenvalues --   -0.54779  -0.53902  -0.50905  -0.49070  -0.46426
 Alpha virt. eigenvalues --   -0.44707  -0.42865  -0.40745  -0.39190  -0.37176

 Mulliken charges:
               1
     1  C    0.631476
     2  H    0.495663
     3  C    0.345019
     4  C   -0.362735
     5  H    0.415681
     6  C    0.345155
     7  C    0.634121
     8  H    0.495620
 Sum of Mulliken charges =   3.00000

 Dipole moment (field-independent basis, Debye):
    X=             -0.0057    Y=              1.2227    Z=              0.0000  Tot=              1.2227
 Quadrupole moment (field-independent basis, Debye-Ang):
   XX=             66.9934   YY=            -17.4014   ZZ=            -22.9627
   XY=              0.0390   XZ=              0.0000   YZ=              0.0000

  Exact polarizability: 136.080   0.071  25.740   0.000   0.000  21.597
 Approx polarizability: 778.500   0.543  39.961   0.000   0.000  29.828

                      1                      2                      3
                     A'                     A'                     A"
 Frequencies --     52.2488               145.8302               172.1476
 Red. masses --      1.0812                 3.6186                 2.7256
 Frc consts  --      0.0017                 0.0453                 0.0476
 IR Inten    --    206.2547                25.8994               106.1438

                      4                      5                      6
                     A"                     A'                     A'
 Frequencies --    289.0534               343.1612               416.1314
 Red. masses --      4.6502                 3.5798                 7.4687
 Frc consts  --      0.2289                 0.2484                 0.7620
 IR Inten    --      0.0002                16.3442                 3.4882

                      7                      8                      9
                     A"                     A'                     A"
 Frequencies --    622.7609               725.7472               807.5281
 Red. masses --      5.7399                 6.2918                 1.3313
 Frc consts  --      1.3116                 1.9525                 0.5115
 IR Inten    --      2.3302                12.9346                 0.0268

                     10                     11                     12
                     A"                     A'                     A'
 Frequencies --    811.8964               812.4608               812.6061
 Red. masses --      1.3500                 1.3768                 1.3643
 Frc consts  --      0.5243                 0.5355                 0.5308
 IR Inten    --     42.0623                 2.7205                35.2873

                     13                     14                     15
                     A'                     A'                     A'
 Frequencies --   1380.7492              1858.1932              1960.5865
 Red. masses --      6.2163                 1.1223                 4.4679
 Frc consts  --      6.9825                 2.2833                10.1186
 IR Inten    --    845.5796               545.0969                17.0726

                     16                     17                     18
                     A'                     A'                     A'
 Frequencies --   2049.5572              2943.5157              2946.8683
 Red. masses --      7.4022                 1.1897                 1.1774
 Frc consts  --     18.3203                 6.0733                 6.0243
 IR Inten    --   2585.9556               963.0597                 8.3619

 - Thermochemistry -
 -------------------
 Temperature   298.150 Kelvin.  Pressure   1.00000 Atm.
 Atom     1 has atomic number  6 and mass  12.00000

 Molecular mass:    63.02348 amu.
 Principal axes and moments of inertia in atomic units:
                           1         2         3
     Eigenvalues --     8.94391 816.93516 825.87907
           X            1.00000  -0.00065   0.00000
           Y            0.00065   1.00000   0.00000
           Z            0.00000  -0.00000   1.00000
 This molecule is an asymmetric top.
 Rotational symmetry number  1.
 Rotational temperatures (Kelvin)      9.68411     0.10602     0.10487
 Rotational constants (GHZ):         201.78440     2.20916     2.18524
 Zero-point vibrational energy     114548.7 (Joules/Mol)
                                   27.37779 (Kcal/Mol)
 Warning -- explicit consideration of   6 degrees of freedom as
           vibrations may cause significant error
 Vibrational temperatures:     75.17   209.82   247.68   415.88   493.73
          (Kelvin)            598.72   896.01  1044.19  1161.85  1168.14
                             1168.95  1169.16  1986.59  2673.52  2820.84
                             2948.85  4235.06  4239.88

 Zero-point correction=                           0.043629 (Hartree/Particle)
 Thermal correction to Energy=                    0.050207
 Thermal correction to Enthalpy=                  0.051151
 Thermal correction to Gibbs Free Energy=         0.014749
 Sum of electronic and zero-point Energies=           -190.435337
 Sum of electronic and thermal Energies=              -190.428759
 Sum of electronic and thermal Enthalpies=            -190.427815
 Sum of electronic and thermal Free Energies=         -190.464218

                     E (Thermal)             CV                S
                      KCal/Mol        Cal/Mol-Kelvin    Cal/Mol-Kelvin
 Total                   31.505             20.893             76.616
 Electronic               0.000              0.000              0.000
 Translational            0.889              2.981             38.342
 Rotational               0.889              2.981             23.316
 Vibrational             29.728             14.932             14.958
 Vibration     1          0.596              1.977              4.730
 Vibration     2          0.617              1.907              2.726
 Vibration     3          0.626              1.877              2.412
 Vibration     4          0.686              1.694              1.480
 Vibration     5          0.722              1.589              1.197
 Vibration     6          0.779              1.435              0.905

 Normal termination of Gaussian 09 at Sun Jun 19 13:39:36 2016.
