 Gaussian 09, Revision E.01,
 Gaussian 09:  EM64L-G09RevE.01 30-Nov-2015

 ---------------------------------------------
 #p b3lyp/6-311++G(3df,2p) freq symmetry=Loose
 ---------------------------------------------

 ---------
 b3lyp opt
 ---------
 Symbolic Z-matrix:
 Charge =  1 Multiplicity = 3

                         Standard orientation:
 ---------------------------------------------------------------------
 Center     Atomic      Atomic             Coordinates (Angstroms)
 Number     Number       Type             X           Y           Z
 ---------------------------------------------------------------------
      1          6           0        0.202821   -0.299386   -0.384226
      2          1           0        0.016093   -0.652297   -1.401362
      3          6           0        1.411774   -0.663807    0.357700
      4          1           0        1.855013    1.561960   -0.301011
      5          6           0        1.455679    0.577497   -0.105469
      6          6           0       -1.024701    0.101364    0.383495
      7          1           0       -0.999699    0.356107    1.445011
      8          6           0       -2.190808    0.073371   -0.208607
 ---------------------------------------------------------------------

 SCF Done:  E(UB3LYP) =  -191.705297243     A.U. after   23 cycles

 The electronic state is 3-A.
 Alpha  occ. eigenvalues --  -10.50700 -10.50593 -10.50420 -10.50069 -10.44166
 Alpha  occ. eigenvalues --   -1.18788  -1.04765  -0.88313  -0.83014  -0.79524
 Alpha  occ. eigenvalues --   -0.70405  -0.69682  -0.64755  -0.57037  -0.56317
 Alpha  occ. eigenvalues --   -0.54796  -0.49507
 Alpha virt. eigenvalues --   -0.34382  -0.29134  -0.22750  -0.15065  -0.14783
 Alpha virt. eigenvalues --   -0.14092  -0.12565  -0.11380  -0.09003  -0.08032
 Alpha virt. eigenvalues --   -0.07547  -0.06748  -0.05154  -0.05090  -0.04419

  Beta  occ. eigenvalues --  -10.49874 -10.49693 -10.49688 -10.49040 -10.44004
  Beta  occ. eigenvalues --   -1.16399  -1.03415  -0.86105  -0.81137  -0.77996
  Beta  occ. eigenvalues --   -0.69049  -0.65331  -0.63056  -0.52700  -0.51936
  Beta virt. eigenvalues --   -0.44994  -0.37810  -0.33405  -0.24945  -0.20284
  Beta virt. eigenvalues --   -0.14486  -0.14350  -0.13572  -0.11950  -0.10381
  Beta virt. eigenvalues --   -0.08718  -0.07506  -0.07202  -0.06164  -0.04894

 Mulliken charges and spin densities:
               1          2
     1  C    0.203536   0.098083
     2  H    0.261063   0.040001
     3  C   -0.090093   0.942187
     4  H    0.342359  -0.010096
     5  C    0.157342   0.462202
     6  C    0.207278   0.055740
     7  H    0.236119   0.001474
     8  C   -0.317603   0.410410
 Sum of Mulliken charges =   1.00000   2.00000

 Dipole moment (field-independent basis, Debye):
    X=              1.6424    Y=              1.5462    Z=             -0.1855  Tot=              2.2633
 Quadrupole moment (field-independent basis, Debye-Ang):
   XX=            -18.3576   YY=            -24.3558   ZZ=            -22.5703
   XY=              2.4898   XZ=             -2.7314   YZ=              1.3018

  Exact polarizability: 140.195  -3.850  40.538   6.462  -1.583  38.407
 Approx polarizability: 350.005 -16.312  68.142  31.058  -6.338  63.943

                      1                      2                      3
                      A                      A                      A
 Frequencies --    116.3392               166.9627               269.6511
 Red. masses --      4.2411                 6.9263                 2.5063
 Frc consts  --      0.0338                 0.1138                 0.1074
 IR Inten    --      6.3757                 6.4361                 7.2606

                      4                      5                      6
                      A                      A                      A
 Frequencies --    354.3468               643.7837               669.3942
 Red. masses --      6.4468                 1.6098                 2.3052
 Frc consts  --      0.4769                 0.3931                 0.6086
 IR Inten    --     13.2159                11.6429                 8.5165

                      7                      8                      9
                      A                      A                      A
 Frequencies --    722.6406               839.7152               900.6184
 Red. masses --      1.8226                 4.9752                 1.4318
 Frc consts  --      0.5608                 2.0669                 0.6842
 IR Inten    --     34.9920                52.8296               128.9308

                     10                     11                     12
                      A                      A                      A
 Frequencies --    940.4519               978.1908              1041.0015
 Red. masses --      1.3643                 1.2525                 3.6276
 Frc consts  --      0.7110                 0.7061                 2.3162
 IR Inten    --     30.8060                59.2083                99.6206

                     13                     14                     15
                      A                      A                      A
 Frequencies --   1251.9413              1454.1785              1564.4337
 Red. masses --      1.1182                 6.8763                 8.1095
 Frc consts  --      1.0326                 8.5673                11.6939
 IR Inten    --     16.2853               512.7782                73.6729

                     16                     17                     18
                      A                      A                      A
 Frequencies --   3035.4433              3098.5688              3246.3936
 Red. masses --      1.0795                 1.0864                 1.1131
 Frc consts  --      5.8604                 6.1457                 6.9116
 IR Inten    --     65.4112                81.2547                91.2320

 - Thermochemistry -
 -------------------
 Temperature   298.150 Kelvin.  Pressure   1.00000 Atm.
 Atom     1 has atomic number  6 and mass  12.00000

 Molecular mass:    63.02348 amu.
 Principal axes and moments of inertia in atomic units:
                           1         2         3
     Eigenvalues --    83.38879 479.40117 493.83987
           X            0.99958   0.02636  -0.01202
           Y           -0.02291   0.97318   0.22890
           Z            0.01773  -0.22853   0.97337
 This molecule is an asymmetric top.
 Rotational symmetry number  1.
 Rotational temperatures (Kelvin)      1.03867     0.18067     0.17539
 Rotational constants (GHZ):          21.64249     3.76457     3.65451
 Zero-point vibrational energy     127366.7 (Joules/Mol)
                                   30.44138 (Kcal/Mol)
 Warning -- explicit consideration of   4 degrees of freedom as
           vibrations may cause significant error
 Vibrational temperatures:    167.39   240.22   387.97   509.83   926.26
          (Kelvin)            963.11  1039.72  1208.16  1295.79  1353.10
                             1407.40  1497.77  1801.26  2092.24  2250.87
                             4367.32  4458.14  4670.83

 Zero-point correction=                           0.048511 (Hartree/Particle)
 Thermal correction to Energy=                    0.054108
 Thermal correction to Enthalpy=                  0.055052
 Thermal correction to Gibbs Free Energy=         0.019383
 Sum of electronic and zero-point Energies=           -191.656786
 Sum of electronic and thermal Energies=              -191.651190
 Sum of electronic and thermal Enthalpies=            -191.650245
 Sum of electronic and thermal Free Energies=         -191.685915

                     E (Thermal)             CV                S
                      KCal/Mol        Cal/Mol-Kelvin    Cal/Mol-Kelvin
 Total                   33.953             18.283             75.072
 Electronic               0.000              0.000              2.183
 Translational            0.889              2.981             38.342
 Rotational               0.889              2.981             24.494
 Vibrational             32.176             12.322             10.053
 Vibration     1          0.608              1.936              3.160
 Vibration     2          0.624              1.883              2.469
 Vibration     3          0.674              1.729              1.598
 Vibration     4          0.730              1.566              1.147

 Normal termination of Gaussian 09 at Sun Jun 19 10:22:49 2016.
