 Gaussian 09, Revision E.01,
 Gaussian 09:  EM64L-G09RevE.01 30-Nov-2015

 ---------------------------------------------
 #p b3lyp/6-311++G(3df,2p) freq symmetry=Loose
 ---------------------------------------------

 ---------
 b3lyp opt
 ---------
 Symbolic Z-matrix:
 Charge =  0 Multiplicity = 4

                         Standard orientation:
 ---------------------------------------------------------------------
 Center     Atomic      Atomic             Coordinates (Angstroms)
 Number     Number       Type             X           Y           Z
 ---------------------------------------------------------------------
      1          6           0       -0.002691    1.854633    0.000000
      2          1           0       -0.929801    2.410750    0.000000
      3          1           0        0.921575    2.415435    0.000000
      4          6           0        0.000000    0.531660    0.000000
      5          6           0       -0.992719   -0.587285    0.000000
      6          6           0        0.001736   -1.575985    0.000000
      7          1           0        0.003118   -2.652722    0.000000
      8          6           0        0.994525   -0.585267    0.000000
 ---------------------------------------------------------------------

 SCF Done:  E(UB3LYP) =  -192.071511451     A.U. after   18 cycles

 The electronic state is 4-A".
 Alpha  occ. eigenvalues --  -10.23916 -10.23911 -10.21445 -10.21128 -10.18017
 Alpha  occ. eigenvalues --   -0.92019  -0.76044  -0.63331  -0.62356  -0.51112
 Alpha  occ. eigenvalues --   -0.47029  -0.41204  -0.41135  -0.39384  -0.38745
 Alpha  occ. eigenvalues --   -0.26432  -0.23572  -0.21384
 Alpha virt. eigenvalues --   -0.05210   0.00221   0.00776   0.02856   0.04460
 Alpha virt. eigenvalues --    0.04462   0.05149   0.06850   0.07615   0.08258
 Alpha virt. eigenvalues --    0.09841   0.10446   0.11013   0.11390   0.13047

  Beta  occ. eigenvalues --  -10.21302 -10.21282 -10.21256 -10.21224 -10.17955
  Beta  occ. eigenvalues --   -0.88965  -0.75622  -0.61845  -0.55975  -0.50796
  Beta  occ. eigenvalues --   -0.45940  -0.39928  -0.37518  -0.36722  -0.25995
  Beta virt. eigenvalues --   -0.18801  -0.06109  -0.06101  -0.04637   0.00471
  Beta virt. eigenvalues --    0.00750   0.03387   0.05048   0.05412   0.05860
  Beta virt. eigenvalues --    0.07651   0.07906   0.08604   0.11062   0.11101

 Mulliken charges and spin densities:
               1          2
     1  C   -0.620232   0.130372
     2  H    0.172535   0.002647
     3  H    0.172538   0.002650
     4  C    0.299380  -0.158260
     5  C   -0.045281   1.730318
     6  C   -0.176306  -0.444064
     7  H    0.241255   0.005988
     8  C   -0.043890   1.730348
 Sum of Mulliken charges =  -0.00000   3.00000

 Dipole moment (field-independent basis, Debye):
    X=             -0.0002    Y=             -0.2887    Z=              0.0000  Tot=              0.2887
 Quadrupole moment (field-independent basis, Debye-Ang):
   XX=            -30.2808   YY=            -23.7964   ZZ=            -32.0681
   XY=             -0.0078   XZ=              0.0000   YZ=              0.0000

  Exact polarizability:  53.123  -0.051  84.084  -0.000   0.000  38.934
 Approx polarizability:  83.090  -0.099 136.474  -0.000  -0.000  54.455

                      1                      2                      3
                     A"                     A'                     A"
 Frequencies --    257.9891               349.9759               673.4979
 Red. masses --      3.1444                 2.6573                 3.7201
 Frc consts  --      0.1233                 0.1918                 0.9942
 IR Inten    --     10.2204                 2.2504                 4.0810

                      4                      5                      6
                     A"                     A'                     A"
 Frequencies --    715.2013               748.5293               818.1458
 Red. masses --      1.0747                 5.7584                 1.6390
 Frc consts  --      0.3239                 1.9010                 0.6464
 IR Inten    --      0.0000                 0.1847                53.8568

                      7                      8                      9
                     A'                     A'                     A"
 Frequencies --    820.4688               912.1788               915.8463
 Red. masses --      3.6715                 2.4930                 1.3503
 Frc consts  --      1.4562                 1.2222                 0.6673
 IR Inten    --      1.2074                 9.0683                35.0572

                     10                     11                     12
                     A'                     A'                     A'
 Frequencies --   1009.5040              1099.8904              1265.0109
 Red. masses --      9.6754                 1.5907                 2.1698
 Frc consts  --      5.8095                 1.1338                 2.0458
 IR Inten    --      0.4415                 0.9595                 6.2065

                     13                     14                     15
                     A'                     A'                     A'
 Frequencies --   1327.4564              1440.4162              1729.1218
 Red. masses --      7.4039                 1.1672                 7.0322
 Frc consts  --      7.6869                 1.4268                12.3877
 IR Inten    --      1.3003                 1.4166                19.7145

                     16                     17                     18
                     A'                     A'                     A'
 Frequencies --   3144.5641              3228.5179              3246.7947
 Red. masses --      1.0587                 1.1168                 1.0979
 Frc consts  --      6.1678                 6.8585                 6.8189
 IR Inten    --      1.7101                 2.8776                 1.3381

 - Thermochemistry -
 -------------------
 Temperature   298.150 Kelvin.  Pressure   1.00000 Atm.
 Atom     1 has atomic number  6 and mass  12.00000

 Molecular mass:    63.02348 amu.
 Principal axes and moments of inertia in atomic units:
                           1         2         3
     Eigenvalues --    90.78390 362.38266 453.16655
           X           -0.00138   1.00000   0.00000
           Y            1.00000   0.00138   0.00000
           Z           -0.00000   0.00000   1.00000
 This molecule is an asymmetric top.
 Rotational symmetry number  1.
 Rotational temperatures (Kelvin)      0.95407     0.23901     0.19113
 Rotational constants (GHZ):          19.87953     4.98021     3.98251
 Zero-point vibrational energy     141776.1 (Joules/Mol)
                                   33.88530 (Kcal/Mol)
 Warning -- explicit consideration of   2 degrees of freedom as
           vibrations may cause significant error
 Vibrational temperatures:    371.19   503.54   969.01  1029.01  1076.97
          (Kelvin)           1177.13  1180.47  1312.42  1317.70  1452.45
                             1582.49  1820.07  1909.91  2072.44  2487.82
                             4524.32  4645.11  4671.41

 Zero-point correction=                           0.054000 (Hartree/Particle)
 Thermal correction to Energy=                    0.058334
 Thermal correction to Enthalpy=                  0.059278
 Thermal correction to Gibbs Free Energy=         0.026061
 Sum of electronic and zero-point Energies=           -192.017512
 Sum of electronic and thermal Energies=              -192.013177
 Sum of electronic and thermal Enthalpies=            -192.012233
 Sum of electronic and thermal Free Energies=         -192.045450

                     E (Thermal)             CV                S
                      KCal/Mol        Cal/Mol-Kelvin    Cal/Mol-Kelvin
 Total                   36.605             14.982             69.911
 Electronic               0.000              0.000              2.755
 Translational            0.889              2.981             38.342
 Rotational               0.889              2.981             24.215
 Vibrational             34.828              9.020              4.599
 Vibration     1          0.667              1.749              1.675
 Vibration     2          0.727              1.575              1.166

 Normal termination of Gaussian 09 at Sun Jun 19 08:56:45 2016.
