 Gaussian 09, Revision E.01,
 Gaussian 09:  EM64L-G09RevE.01 30-Nov-2015

 ---------------------------------------------
 #p b3lyp/6-311++G(3df,2p) freq symmetry=Loose
 ---------------------------------------------

 ---------
 b3lyp opt
 ---------
 Symbolic Z-matrix:
 Charge =  3 Multiplicity = 3

                         Standard orientation:
 ---------------------------------------------------------------------
 Center     Atomic      Atomic             Coordinates (Angstroms)
 Number     Number       Type             X           Y           Z
 ---------------------------------------------------------------------
      1          6           0        0.689470    1.823162    0.000000
      2          6           0       -0.671635    1.831458   -0.000000
      3          6           0        0.000000    0.581780   -0.000000
      4          6           0       -0.004057   -0.815095    0.000000
      5          6           0        0.014400   -2.122496    0.000000
      6          1           0       -0.619059   -2.595383    0.883895
      7          1           0       -0.619059   -2.595383   -0.883895
      8          1           0        1.069051   -2.602093    0.000000
 ---------------------------------------------------------------------

 SCF Done:  E(UB3LYP) =  -190.363699395     A.U. after   17 cycles

 The electronic state is 3-A'.
 Alpha  occ. eigenvalues --  -11.08929 -11.05534 -11.05450 -11.02810 -10.91757
 Alpha  occ. eigenvalues --   -1.69851  -1.56340  -1.44769  -1.25855  -1.22219
 Alpha  occ. eigenvalues --   -1.18364  -1.15065  -1.14624  -1.09988  -1.06910
 Alpha  occ. eigenvalues --   -1.01814
 Alpha virt. eigenvalues --   -0.89708  -0.84984  -0.73861  -0.70153  -0.58163
 Alpha virt. eigenvalues --   -0.53242  -0.52769  -0.48916  -0.46977  -0.46232
 Alpha virt. eigenvalues --   -0.42806  -0.42510  -0.40885  -0.38194  -0.37810

  Beta  occ. eigenvalues --  -11.08637 -11.03466 -11.03396 -11.02714 -10.91758
  Beta  occ. eigenvalues --   -1.68128  -1.55543  -1.43891  -1.21596  -1.20253
  Beta  occ. eigenvalues --   -1.15512  -1.14692  -1.12784  -1.09144
  Beta virt. eigenvalues --   -0.88797  -0.88670  -0.86742  -0.78914  -0.69458
  Beta virt. eigenvalues --   -0.69037  -0.56973  -0.52290  -0.49811  -0.48898
  Beta virt. eigenvalues --   -0.45841  -0.45380  -0.42464  -0.42381  -0.40480

 Mulliken charges and spin densities:
               1          2
     1  C    0.468973   0.958804
     2  C    0.495464   0.942043
     3  C    0.378024  -0.115973
     4  C    0.472961   0.165716
     5  C    0.024502   0.006330
     6  H    0.394896   0.000328
     7  H    0.394896   0.000328
     8  H    0.370284   0.042425
 Sum of Mulliken charges =   3.00000   2.00000

 Dipole moment (field-independent basis, Debye):
    X=             -0.3588    Y=             -4.2277    Z=              0.0000  Tot=              4.2428
 Quadrupole moment (field-independent basis, Debye-Ang):
   XX=            -14.9524   YY=             36.2833   ZZ=            -18.8329
   XY=              1.2408   XZ=             -0.0000   YZ=             -0.0000

  Exact polarizability:  31.156   0.580  95.278  -0.000  -0.000  25.273
 Approx polarizability:  56.323   2.146 203.244  -0.000   0.000  38.963

                      1                      2                      3
                     A"                     A'                     A"
 Frequencies --     71.2753               205.0845               213.9066
 Red. masses --      1.2975                 3.5332                 2.4119
 Frc consts  --      0.0039                 0.0876                 0.0650
 IR Inten    --     12.7535                13.5589                23.2535

                      4                      5                      6
                     A"                     A'                     A'
 Frequencies --    369.8536               411.6387               644.2607
 Red. masses --      1.9754                 2.1088                 2.3605
 Frc consts  --      0.1592                 0.2105                 0.5773
 IR Inten    --     17.0174                21.1213                65.1415

                      7                      8                      9
                     A'                     A"                     A'
 Frequencies --    661.8967               703.2887               753.6776
 Red. masses --      2.6340                 4.8267                 1.6023
 Frc consts  --      0.6799                 1.4066                 0.5362
 IR Inten    --     60.6971                56.5219                86.0656

                     10                     11                     12
                     A"                     A'                     A'
 Frequencies --    838.4991               954.7389              1091.8657
 Red. masses --      1.1021                 8.1401                 1.1785
 Frc consts  --      0.4566                 4.3717                 0.8278
 IR Inten    --     91.3787                77.5509               334.0447

                     13                     14                     15
                     A'                     A'                     A'
 Frequencies --   1264.4159              1521.9120              1743.2955
 Red. masses --      8.1701                10.7882                10.7832
 Frc consts  --      7.6958                14.7224                19.3081
 IR Inten    --     33.6686                14.5926               836.0724

                     16                     17                     18
                     A"                     A'                     A'
 Frequencies --   2174.3320              2302.5320              2443.4533
 Red. masses --      1.0657                 1.0788                 1.0605
 Frc consts  --      2.9686                 3.3697                 3.7306
 IR Inten    --    580.0435              1674.5010              1334.3230

 - Thermochemistry -
 -------------------
 Temperature   298.150 Kelvin.  Pressure   1.00000 Atm.
 Atom     1 has atomic number  6 and mass  12.00000

 Molecular mass:    63.02348 amu.
 Principal axes and moments of inertia in atomic units:
                           1         2         3
     Eigenvalues --    52.20087 597.29835 638.25201
           X            0.00269   1.00000   0.00000
           Y            1.00000  -0.00269   0.00000
           Z           -0.00000  -0.00000   1.00000
 This molecule is an asymmetric top.
 Rotational symmetry number  1.
 Rotational temperatures (Kelvin)      1.65924     0.14501     0.13570
 Rotational constants (GHZ):          34.57301     3.02151     2.82763
 Zero-point vibrational energy     109876.6 (Joules/Mol)
                                   26.26113 (Kcal/Mol)
 Warning -- explicit consideration of   5 degrees of freedom as
           vibrations may cause significant error
 Vibrational temperatures:    102.55   295.07   307.76   532.14   592.26
          (Kelvin)            926.95   952.32  1011.87  1084.37  1206.41
                             1373.65  1570.95  1819.21  2189.69  2508.21
                             3128.37  3312.83  3515.58

 Zero-point correction=                           0.041850 (Hartree/Particle)
 Thermal correction to Energy=                    0.047831
 Thermal correction to Enthalpy=                  0.048775
 Thermal correction to Gibbs Free Energy=         0.012223
 Sum of electronic and zero-point Energies=           -190.321850
 Sum of electronic and thermal Energies=              -190.315868
 Sum of electronic and thermal Enthalpies=            -190.314924
 Sum of electronic and thermal Free Energies=         -190.351476

                     E (Thermal)             CV                S
                      KCal/Mol        Cal/Mol-Kelvin    Cal/Mol-Kelvin
 Total                   30.015             19.542             76.930
 Electronic               0.000              0.000              2.183
 Translational            0.889              2.981             38.342
 Rotational               0.889              2.981             24.502
 Vibrational             28.237             13.580             11.903
 Vibration     1          0.598              1.968              4.118
 Vibration     2          0.640              1.833              2.087
 Vibration     3          0.644              1.820              2.010
 Vibration     4          0.742              1.534              1.080
 Vibration     5          0.776              1.445              0.921

 Optimization completed.
    -- Stationary point found.
 Normal termination of Gaussian 09 at Tue Jul 19 16:53:39 2016.
