 Gaussian 09, Revision E.01,
 Gaussian 09:  EM64L-G09RevE.01 30-Nov-2015

 ---------------------------------------------
 #p b3lyp/6-311++G(3df,2p) freq symmetry=Loose
 ---------------------------------------------

 ---------
 b3lyp opt
 ---------
 Symbolic Z-matrix:
 Charge =  1 Multiplicity = 3

                         Standard orientation:
 ---------------------------------------------------------------------
 Center     Atomic      Atomic             Coordinates (Angstroms)
 Number     Number       Type             X           Y           Z
 ---------------------------------------------------------------------
      1          6           0       -0.000000   -1.985615   -0.658480
      2          1           0       -0.000000   -2.793770   -1.360284
      3          6           0       -0.000000   -1.084689    0.190415
      4          6           0        0.000000    0.000000    1.036690
      5          1           0        0.000000    0.000000    2.117204
      6          6           0        0.000000    1.084689    0.190415
      7          6           0        0.000000    1.985615   -0.658480
      8          1           0        0.000000    2.793770   -1.360284
 ---------------------------------------------------------------------

 SCF Done:  E(UB3LYP) =  -191.857957662     A.U. after   14 cycles

 The electronic state is 3-A2.
 Alpha  occ. eigenvalues --  -10.46203 -10.46203 -10.46004 -10.46001 -10.45776
 Alpha  occ. eigenvalues --   -1.09365  -1.02256  -0.97296  -0.80141  -0.77377
 Alpha  occ. eigenvalues --   -0.73650  -0.73508  -0.62244  -0.56805  -0.54784
 Alpha  occ. eigenvalues --   -0.53931  -0.44988
 Alpha virt. eigenvalues --   -0.25318  -0.20719  -0.18396  -0.15120  -0.13661
 Alpha virt. eigenvalues --   -0.12119  -0.11694  -0.10694  -0.09590  -0.08559
 Alpha virt. eigenvalues --   -0.06950  -0.05234  -0.05063  -0.04574  -0.04468

  Beta  occ. eigenvalues --  -10.46162 -10.46161 -10.44876 -10.44868 -10.44862
  Beta  occ. eigenvalues --   -1.07412  -0.99325  -0.94010  -0.78920  -0.76141
  Beta  occ. eigenvalues --   -0.72901  -0.72441  -0.59365  -0.52180  -0.51863
  Beta virt. eigenvalues --   -0.43924  -0.34228  -0.22333  -0.18714  -0.15555
  Beta virt. eigenvalues --   -0.14780  -0.11858  -0.11701  -0.11355  -0.10052
  Beta virt. eigenvalues --   -0.09180  -0.07114  -0.06353  -0.04679  -0.04613

 Mulliken charges and spin densities:
               1          2
     1  C    0.499615   0.698634
     2  H    0.377778  -0.020430
     3  C   -0.162428   0.013078
     4  C   -0.678976   0.647537
     5  H    0.249047  -0.030102
     6  C   -0.162428   0.013078
     7  C    0.499615   0.698634
     8  H    0.377778  -0.020430
 Sum of Mulliken charges =   1.00000   2.00000

 Dipole moment (field-independent basis, Debye):
    X=              0.0000    Y=              0.0000    Z=             -1.1503  Tot=              1.1503
 Quadrupole moment (field-independent basis, Debye-Ang):
   XX=            -28.6229   YY=             -3.9802   ZZ=            -17.1174
   XY=              0.0000   XZ=             -0.0000   YZ=             -0.0000

  Exact polarizability:  29.812   0.000 125.620   0.000  -0.000  47.868
 Approx polarizability:  41.345   0.000 288.785  -0.000  -0.000  82.963

                      1                      2                      3
                     A1                     B2                     B1
 Frequencies --    120.6144               341.4404               346.6435
 Red. masses --      4.0783                 4.2012                 1.7109
 Frc consts  --      0.0350                 0.2886                 0.1211
 IR Inten    --      1.3633                 7.1467                22.7364

                      4                      5                      6
                     A2                     B1                     A1
 Frequencies --    355.0560               531.7674               533.6271
 Red. masses --      6.5472                 1.9469                 5.9712
 Frc consts  --      0.4863                 0.3244                 1.0018
 IR Inten    --      0.0000                 6.9480                13.4327

                      7                      8                      9
                     A2                     B1                     A1
 Frequencies --    533.8812               537.6961               718.5235
 Red. masses --      1.2200                 1.4398                 1.3319
 Frc consts  --      0.2049                 0.2453                 0.4051
 IR Inten    --      0.0000                99.4485                24.2361

                     10                     11                     12
                     B2                     B2                     A1
 Frequencies --    718.8598              1042.5853              1069.0668
 Red. masses --      1.3081                 2.1594                 6.1115
 Frc consts  --      0.3983                 1.3829                 4.1154
 IR Inten    --      9.1972                 0.1009                 1.5038

                     13                     14                     15
                     B2                     B2                     A1
 Frequencies --   1289.2151              1738.4534              2014.1623
 Red. masses --      1.7721                 7.1388                 6.6745
 Frc consts  --      1.7353                12.7116                15.9535
 IR Inten    --     29.5505              1269.8472                 8.4633

                     16                     17                     18
                     A1                     B2                     A1
 Frequencies --   3208.4694              3369.8014              3377.8504
 Red. masses --      1.0945                 1.1292                 1.1417
 Frc consts  --      6.6387                 7.5548                 7.6751
 IR Inten    --     54.3634               126.7089               125.4238

 - Thermochemistry -
 -------------------
 Temperature   298.150 Kelvin.  Pressure   1.00000 Atm.
 Atom     1 has atomic number  6 and mass  12.00000

 Molecular mass:    63.02348 amu.
 Principal axes and moments of inertia in atomic units:
                           1         2         3
     Eigenvalues --   115.75552 494.92686 610.68237
           X            0.00000  -0.00000   1.00000
           Y            1.00000   0.00000  -0.00000
           Z           -0.00000   1.00000   0.00000
 This molecule is an asymmetric top.
 Rotational symmetry number  2.
 Rotational temperatures (Kelvin)      0.74825     0.17500     0.14183
 Rotational constants (GHZ):          15.59097     3.64648     2.95529
 Zero-point vibrational energy     130678.3 (Joules/Mol)
                                   31.23287 (Kcal/Mol)
 Warning -- explicit consideration of   8 degrees of freedom as
           vibrations may cause significant error
 Vibrational temperatures:    173.54   491.26   498.74   510.85   765.09
          (Kelvin)            767.77   768.14   773.62  1033.79  1034.28
                             1500.05  1538.15  1854.89  2501.24  2897.93
                             4616.27  4848.39  4859.97

 Zero-point correction=                           0.049773 (Hartree/Particle)
 Thermal correction to Energy=                    0.055477
 Thermal correction to Enthalpy=                  0.056421
 Thermal correction to Gibbs Free Energy=         0.021311
 Sum of electronic and zero-point Energies=           -191.808185
 Sum of electronic and thermal Energies=              -191.802481
 Sum of electronic and thermal Enthalpies=            -191.801537
 Sum of electronic and thermal Free Energies=         -191.836647

                     E (Thermal)             CV                S
                      KCal/Mol        Cal/Mol-Kelvin    Cal/Mol-Kelvin
 Total                   34.812             19.755             73.895
 Electronic               0.000              0.000              2.183
 Translational            0.889              2.981             38.342
 Rotational               0.889              2.981             23.685
 Vibrational             33.035             13.794              9.685
 Vibration     1          0.609              1.932              3.091
 Vibration     2          0.721              1.593              1.205
 Vibration     3          0.725              1.582              1.181
 Vibration     4          0.731              1.565              1.144
 Vibration     5          0.887              1.180              0.583
 Vibration     6          0.889              1.176              0.579
 Vibration     7          0.889              1.175              0.579
 Vibration     8          0.893              1.167              0.570

 Optimization completed.
    -- Stationary point found.
 Normal termination of Gaussian 09 at Tue Jul 19 18:38:11 2016.
