 Gaussian 09, Revision E.01,
 Gaussian 09:  EM64L-G09RevE.01 30-Nov-2015

 ---------------------------------------------
 #p b3lyp/6-311++G(3df,2p) freq symmetry=Loose
 ---------------------------------------------

 ---------
 b3lyp opt
 ---------
 Symbolic Z-matrix:
 Charge =  0 Multiplicity = 4

                         Standard orientation:
 ---------------------------------------------------------------------
 Center     Atomic      Atomic             Coordinates (Angstroms)
 Number     Number       Type             X           Y           Z
 ---------------------------------------------------------------------
      1          6           0       -0.045038   -0.404027    0.000079
      2          1           0       -0.092747   -1.483529    0.000008
      3          6           0        1.239939    0.205896    0.000364
      4          6           0        2.498400   -0.153378    0.000039
      5          1           0        1.339120    1.309626    0.000873
      6          6           0       -1.227965    0.338031   -0.000146
      7          1           0       -1.157422    1.428331   -0.000493
      8          6           0       -2.480162   -0.195593   -0.000403
 ---------------------------------------------------------------------

 SCF Done:  E(UB3LYP) =  -192.011615237     A.U. after   21 cycles

 The electronic state is 4-A.
 Alpha  occ. eigenvalues --  -10.26217 -10.24628 -10.23016 -10.22818 -10.20210
 Alpha  occ. eigenvalues --   -0.86278  -0.80648  -0.70807  -0.57947  -0.54063
 Alpha  occ. eigenvalues --   -0.49691  -0.42932  -0.40017  -0.39026  -0.32429
 Alpha  occ. eigenvalues --   -0.31344  -0.25252  -0.22443
 Alpha virt. eigenvalues --   -0.11122  -0.02535  -0.00548   0.00823   0.02147
 Alpha virt. eigenvalues --    0.02332   0.04882   0.04987   0.06286   0.07705
 Alpha virt. eigenvalues --    0.08148   0.08427   0.09979   0.11076   0.11121

  Beta  occ. eigenvalues --  -10.24141 -10.23119 -10.22302 -10.21902 -10.20400
  Beta  occ. eigenvalues --   -0.84799  -0.78668  -0.66793  -0.56123  -0.50843
  Beta  occ. eigenvalues --   -0.48579  -0.41587  -0.36491  -0.30595  -0.29465
  Beta virt. eigenvalues --   -0.18939  -0.10840  -0.10800  -0.06256  -0.00454
  Beta virt. eigenvalues --    0.00798   0.01242   0.02512   0.03296   0.05180
  Beta virt. eigenvalues --    0.05929   0.06621   0.07809   0.08971   0.09344

 Mulliken charges and spin densities:
               1          2
     1  C    0.028954   0.577445
     2  H    0.147317  -0.014070
     3  C    0.414272  -0.147273
     4  C   -0.647342   0.334255
     5  H    0.137073   0.001939
     6  C    0.144420  -0.280466
     7  H    0.134848   0.077465
     8  C   -0.359543   2.450705
 Sum of Mulliken charges =  -0.00000   3.00000

 Dipole moment (field-independent basis, Debye):
    X=             -1.9204    Y=              0.8647    Z=              0.0004  Tot=              2.1061
 Quadrupole moment (field-independent basis, Debye-Ang):
   XX=            -39.8695   YY=            -26.0150   ZZ=            -32.6748
   XY=              1.4916   XZ=              0.0013   YZ=              0.0013

  Exact polarizability: 114.442   0.457  49.607   0.009   0.002  41.252
 Approx polarizability: 182.180  -0.797  75.292   0.012   0.005  56.559

                      1                      2                      3
                      A                      A                      A
 Frequencies --    138.9700               161.3814               295.7224
 Red. masses --      8.1530                 7.7974                 2.4965
 Frc consts  --      0.0928                 0.1196                 0.1286
 IR Inten    --     21.4291                 3.3618                 4.0690

                      4                      5                      6
                      A                      A                      A
 Frequencies --    331.8401               510.1049               665.3645
 Red. masses --      3.7655                 6.4634                 1.6164
 Frc consts  --      0.2443                 0.9909                 0.4216
 IR Inten    --      3.9166                 2.6717                 6.7464

                      7                      8                      9
                      A                      A                      A
 Frequencies --    792.2268               843.9688               870.7991
 Red. masses --      1.9185                 1.1178                 1.5229
 Frc consts  --      0.7094                 0.4691                 0.6804
 IR Inten    --      0.4528                32.4050                 3.0264

                     10                     11                     12
                      A                      A                      A
 Frequencies --   1107.6272              1195.1273              1250.1326
 Red. masses --      2.6762                 2.4193                 1.5011
 Frc consts  --      1.9344                 2.0360                 1.3822
 IR Inten    --      0.1298                 0.5510                 6.6063

                     13                     14                     15
                      A                      A                      A
 Frequencies --   1291.0266              1423.3058              1652.8779
 Red. masses --      3.2067                 1.7966                 8.6894
 Frc consts  --      3.1490                 2.1444                13.9869
 IR Inten    --     16.7116                 0.9730                86.0890

                     16                     17                     18
                      A                      A                      A
 Frequencies --   2948.1731              3038.9389              3192.2137
 Red. masses --      1.0766                 1.0832                 1.0880
 Frc consts  --      5.5134                 5.8939                 6.5323
 IR Inten    --     21.3828                 5.4072                 0.3530

 - Thermochemistry -
 -------------------
 Temperature   298.150 Kelvin.  Pressure   1.00000 Atm.
 Atom     1 has atomic number  6 and mass  12.00000

 Molecular mass:    63.02348 amu.
 Principal axes and moments of inertia in atomic units:
                           1         2         3
     Eigenvalues --    37.70313 672.97877 710.68188
           X            1.00000   0.00134  -0.00012
           Y           -0.00134   1.00000  -0.00012
           Z            0.00012   0.00012   1.00000
 This molecule is an asymmetric top.
 Rotational symmetry number  1.
 Rotational temperatures (Kelvin)      2.29726     0.12870     0.12187
 Rotational constants (GHZ):          47.86715     2.68172     2.53945
 Zero-point vibrational energy     129853.4 (Joules/Mol)
                                   31.03572 (Kcal/Mol)
 Warning -- explicit consideration of   5 degrees of freedom as
           vibrations may cause significant error
 Vibrational temperatures:    199.95   232.19   425.48   477.44   733.93
          (Kelvin)            957.31  1139.84  1214.28  1252.88  1593.63
                             1719.52  1798.66  1857.50  2047.82  2378.12
                             4241.76  4372.35  4592.88

 Zero-point correction=                           0.049459 (Hartree/Particle)
 Thermal correction to Energy=                    0.055013
 Thermal correction to Enthalpy=                  0.055957
 Thermal correction to Gibbs Free Energy=         0.020199
 Sum of electronic and zero-point Energies=           -191.962157
 Sum of electronic and thermal Energies=              -191.956603
 Sum of electronic and thermal Enthalpies=            -191.955658
 Sum of electronic and thermal Free Energies=         -191.991417

                     E (Thermal)             CV                S
                      KCal/Mol        Cal/Mol-Kelvin    Cal/Mol-Kelvin
 Total                   34.521             17.920             75.259
 Electronic               0.000              0.000              2.755
 Translational            0.889              2.981             38.342
 Rotational               0.889              2.981             24.404
 Vibrational             32.743             11.958              9.759
 Vibration     1          0.615              1.914              2.818
 Vibration     2          0.622              1.890              2.534
 Vibration     3          0.690              1.682              1.441
 Vibration     4          0.714              1.612              1.251
 Vibration     5          0.865              1.228              0.633

 Optimization completed.
    -- Stationary point found.
 Normal termination of Gaussian 09 at Sun Jun 19 08:30:25 2016.
