 Gaussian 09, Revision E.01,
 Gaussian 09:  EM64L-G09RevE.01 30-Nov-2015

 ---------------------------------------------
 #p b3lyp/6-311++G(3df,2p) freq symmetry=Loose
 ---------------------------------------------

 ---------
 b3lyp opt
 ---------
 Symbolic Z-matrix:
 Charge =  0 Multiplicity = 4

                         Standard orientation:
 ---------------------------------------------------------------------
 Center     Atomic      Atomic             Coordinates (Angstroms)
 Number     Number       Type             X           Y           Z
 ---------------------------------------------------------------------
      1          6           0        0.156961   -0.356311   -0.323510
      2          1           0       -0.003050   -0.876350   -1.262062
      3          6           0        1.459148   -0.583423    0.426527
      4          1           0        1.846424    1.474862   -0.566823
      5          6           0        1.520082    0.535191   -0.170684
      6          6           0       -1.030706    0.148953    0.332824
      7          1           0       -0.902628    0.641863    1.299228
      8          6           0       -2.262276    0.048861   -0.176881
 ---------------------------------------------------------------------

 SCF Done:  E(UB3LYP) =  -192.010927084     A.U. after   21 cycles

 The electronic state is 4-A.
 Alpha  occ. eigenvalues --  -10.25490 -10.24282 -10.22030 -10.21555 -10.20951
 Alpha  occ. eigenvalues --   -0.90166  -0.80601  -0.65012  -0.58164  -0.56179
 Alpha  occ. eigenvalues --   -0.45857  -0.43576  -0.40985  -0.38015  -0.32622
 Alpha  occ. eigenvalues --   -0.29620  -0.24149  -0.23802
 Alpha virt. eigenvalues --   -0.03861  -0.00495   0.00171   0.01219   0.01752
 Alpha virt. eigenvalues --    0.03457   0.05164   0.06602   0.07496   0.07542
 Alpha virt. eigenvalues --    0.08716   0.09232   0.10296   0.10623   0.11102

  Beta  occ. eigenvalues --  -10.23565 -10.22118 -10.21899 -10.21427 -10.20076
  Beta  occ. eigenvalues --   -0.88957  -0.77622  -0.61767  -0.56914  -0.53541
  Beta  occ. eigenvalues --   -0.44200  -0.39877  -0.37792  -0.29221  -0.28414
  Beta virt. eigenvalues --   -0.18801  -0.12637  -0.06361  -0.01569  -0.00000
  Beta virt. eigenvalues --    0.01183   0.01570   0.02425   0.03832   0.06121
  Beta virt. eigenvalues --    0.06808   0.08164   0.08376   0.09299   0.09608

 Mulliken charges and spin densities:
               1          2
     1  C    0.164014   0.374365
     2  H    0.176469  -0.011519
     3  C   -0.458372   0.527702
     4  H    0.278519   0.000834
     5  C    0.093251   0.047590
     6  C   -0.089624  -0.336325
     7  H    0.168283   0.076341
     8  C   -0.332540   2.321012
 Sum of Mulliken charges =  -0.00000   3.00000

 Dipole moment (field-independent basis, Debye):
    X=             -0.1684    Y=              1.5852    Z=             -0.9428  Tot=              1.8520
 Quadrupole moment (field-independent basis, Debye-Ang):
   XX=            -31.5872   YY=            -29.6480   ZZ=            -29.4636
   XY=              3.3817   XZ=             -1.9427   YZ=              0.9033

  Exact polarizability: 101.761  -3.073  50.412   6.759  -2.705  47.892
 Approx polarizability: 166.310  -6.967  80.413  18.854  -8.467  72.679

                      1                      2                      3
                      A                      A                      A
 Frequencies --    174.7285               287.8536               334.0849
 Red. masses --      4.5601                 2.4590                 5.4193
 Frc consts  --      0.0820                 0.1200                 0.3564
 IR Inten    --      2.3128                 8.1181                12.4691

                      4                      5                      6
                      A                      A                      A
 Frequencies --    467.6421               551.7465               643.4364
 Red. masses --      7.2098                 7.5503                 1.3562
 Frc consts  --      0.9290                 1.3542                 0.3308
 IR Inten    --      1.3070                 7.6886                58.8056

                      7                      8                      9
                      A                      A                      A
 Frequencies --    756.0290               851.5179               933.0743
 Red. masses --      1.5767                 1.2693                 4.1762
 Frc consts  --      0.5310                 0.5422                 2.1422
 IR Inten    --      5.0860                79.0586                25.2687

                     10                     11                     12
                      A                      A                      A
 Frequencies --    952.0662              1080.8682              1236.7022
 Red. masses --      1.3031                 5.3246                 1.1362
 Frc consts  --      0.6959                 3.6651                 1.0239
 IR Inten    --     10.1698                32.6601                 5.1005

                     13                     14                     15
                      A                      A                      A
 Frequencies --   1340.9546              1436.9358              1753.7906
 Red. masses --      1.3370                 5.0299                 6.5178
 Frc consts  --      1.4165                 6.1191                11.8116
 IR Inten    --     15.5610                 4.2314                17.8791

                     16                     17                     18
                      A                      A                      A
 Frequencies --   3043.4488              3123.2967              3332.2363
 Red. masses --      1.0832                 1.0867                 1.1251
 Frc consts  --      5.9115                 6.2456                 7.3603
 IR Inten    --      0.9941                10.8917                24.4280

 - Thermochemistry -
 -------------------
 Temperature   298.150 Kelvin.  Pressure   1.00000 Atm.
 Atom     1 has atomic number  6 and mass  12.00000

 Molecular mass:    63.02348 amu.
 Principal axes and moments of inertia in atomic units:
                           1         2         3
     Eigenvalues --    77.62708 502.99938 517.80277
           X            0.99967   0.02225  -0.01272
           Y           -0.01815   0.96505   0.26142
           Z            0.01810  -0.26110   0.96514
 This molecule is an asymmetric top.
 Rotational symmetry number  1.
 Rotational temperatures (Kelvin)      1.11577     0.17219     0.16727
 Rotational constants (GHZ):          23.24886     3.58796     3.48538
 Zero-point vibrational energy     133386.1 (Joules/Mol)
                                   31.88004 (Kcal/Mol)
 Warning -- explicit consideration of   5 degrees of freedom as
           vibrations may cause significant error
 Vibrational temperatures:    251.40   414.16   480.67   672.83   793.84
          (Kelvin)            925.76  1087.76  1225.14  1342.48  1369.81
                             1555.13  1779.34  1929.33  2067.43  2523.31
                             4378.84  4493.72  4794.34

 Zero-point correction=                           0.050804 (Hartree/Particle)
 Thermal correction to Energy=                    0.055936
 Thermal correction to Enthalpy=                  0.056880
 Thermal correction to Gibbs Free Energy=         0.022107
 Sum of electronic and zero-point Energies=           -191.960123
 Sum of electronic and thermal Energies=              -191.954991
 Sum of electronic and thermal Enthalpies=            -191.954047
 Sum of electronic and thermal Free Energies=         -191.988821

                     E (Thermal)             CV                S
                      KCal/Mol        Cal/Mol-Kelvin    Cal/Mol-Kelvin
 Total                   35.100             17.454             73.187
 Electronic               0.000              0.000              2.755
 Translational            0.889              2.981             38.342
 Rotational               0.889              2.981             24.517
 Vibrational             33.323             11.493              7.573
 Vibration     1          0.627              1.874              2.384
 Vibration     2          0.685              1.696              1.487
 Vibration     3          0.716              1.607              1.240
 Vibration     4          0.825              1.322              0.744
 Vibration     5          0.907              1.136              0.541

 Normal termination of Gaussian 09 at Sun Jun 19 08:30:55 2016.
