 Gaussian 09, Revision E.01,
 Gaussian 09:  EM64L-G09RevE.01 30-Nov-2015

 ---------------------------------------------
 #p b3lyp/6-311++G(3df,2p) freq symmetry=Loose
 ---------------------------------------------

 ---------
 b3lyp opt
 ---------
 Symbolic Z-matrix:
 Charge =  0 Multiplicity = 2

                         Standard orientation:
 ---------------------------------------------------------------------
 Center     Atomic      Atomic             Coordinates (Angstroms)
 Number     Number       Type             X           Y           Z
 ---------------------------------------------------------------------
      1          6           0       -1.260670   -1.791313    0.000000
      2          1           0       -0.388190   -2.427281    0.000000
      3          1           0       -2.231855   -2.260666    0.000000
      4          6           0       -1.157997   -0.433319    0.000000
      5          1           0       -2.062436    0.171756    0.000000
      6          6           0       -0.000000    0.292719    0.000000
      7          6           0        1.052563    0.987933    0.000000
      8          6           0        2.146518    1.696679    0.000000
 ---------------------------------------------------------------------

 SCF Done:  E(UB3LYP) =  -192.167562212     A.U. after   20 cycles

 The electronic state is 2-A".
 Alpha  occ. eigenvalues --  -10.26734 -10.23648 -10.23457 -10.21542 -10.19877
 Alpha  occ. eigenvalues --   -0.86397  -0.80242  -0.71852  -0.64992  -0.54452
 Alpha  occ. eigenvalues --   -0.49075  -0.42470  -0.40834  -0.35211  -0.32263
 Alpha  occ. eigenvalues --   -0.31066  -0.22191
 Alpha virt. eigenvalues --   -0.14649  -0.04323  -0.01528   0.00570   0.01567
 Alpha virt. eigenvalues --    0.04692   0.05065   0.05488   0.06973   0.07275
 Alpha virt. eigenvalues --    0.07863   0.08453   0.08715   0.09731   0.11090

  Beta  occ. eigenvalues --  -10.26065 -10.23737 -10.22940 -10.20877 -10.20117
  Beta  occ. eigenvalues --   -0.85655  -0.79627  -0.70014  -0.64153  -0.54266
  Beta  occ. eigenvalues --   -0.48700  -0.42115  -0.38675  -0.35066  -0.29820
  Beta  occ. eigenvalues --   -0.29814
  Beta virt. eigenvalues --   -0.13717  -0.12492  -0.02091  -0.01493   0.00590
  Beta virt. eigenvalues --    0.01601   0.04936   0.05076   0.05521   0.07045
  Beta virt. eigenvalues --    0.07456   0.07946   0.08767   0.09427   0.09844

 Mulliken charges and spin densities:
               1          2
     1  C   -0.599159   0.502497
     2  H    0.160366  -0.012440
     3  H    0.183030  -0.018004
     4  C    0.185759  -0.180882
     5  H    0.162615   0.005495
     6  C   -0.257582   0.377136
     7  C    0.968029  -0.105706
     8  C   -0.803057   0.431903
 Sum of Mulliken charges =  -0.00000   1.00000

 Dipole moment (field-independent basis, Debye):
    X=             -3.8230    Y=             -2.5523    Z=              0.0000  Tot=              4.5967
 Quadrupole moment (field-independent basis, Debye-Ang):
   XX=            -33.8372   YY=            -31.0510   ZZ=            -32.1351
   XY=             -5.5692   XZ=              0.0000   YZ=              0.0000

  Exact polarizability:  91.275  41.766  86.048  -0.000  -0.000  39.884
 Approx polarizability: 166.923  84.867 145.781  -0.000  -0.000  55.056

                      1                      2                      3
                     A'                     A"                     A'
 Frequencies --    124.5160               168.7363               280.1844
 Red. masses --      5.3694                 3.5164                 5.1671
 Frc consts  --      0.0490                 0.0590                 0.2390
 IR Inten    --      5.7804                 0.2121                 1.9885

                      4                      5                      6
                     A"                     A"                     A'
 Frequencies --    391.2591               557.5195               604.4383
 Red. masses --      6.4858                 1.6477                 4.6632
 Frc consts  --      0.5850                 0.3018                 1.0038
 IR Inten    --      4.0509                 7.7083                 0.1890

                      7                      8                      9
                     A'                     A"                     A"
 Frequencies --    793.8630               841.3467               909.3262
 Red. masses --      3.5556                 1.3805                 1.1595
 Frc consts  --      1.3203                 0.5758                 0.5649
 IR Inten    --      0.9836                40.5606                17.5434

                     10                     11                     12
                     A'                     A'                     A'
 Frequencies --   1053.3837              1251.1600              1357.1607
 Red. masses --      1.4361                 1.7549                 1.9103
 Frc consts  --      0.9389                 1.6185                 2.0731
 IR Inten    --      1.1540                 0.1677                12.5767

                     13                     14                     15
                     A'                     A'                     A'
 Frequencies --   1507.2746              1550.2904              1948.8284
 Red. masses --      1.5150                 5.5659                11.5954
 Frc consts  --      2.0279                 7.8816                25.9468
 IR Inten    --     11.0876                20.1141               337.5711

                     16                     17                     18
                     A'                     A'                     A'
 Frequencies --   3110.5739              3160.3712              3258.9728
 Red. masses --      1.0837                 1.0552                 1.1188
 Frc consts  --      6.1780                 6.2096                 7.0013
 IR Inten    --      4.6546                 0.4225                 0.4876

 - Thermochemistry -
 -------------------
 Temperature   298.150 Kelvin.  Pressure   1.00000 Atm.
 Atom     1 has atomic number  6 and mass  12.00000

 Molecular mass:    63.02348 amu.
 Principal axes and moments of inertia in atomic units:
                           1         2         3
     Eigenvalues --    39.08608 716.93666 756.02274
           X            0.73276  -0.68049   0.00000
           Y            0.68049   0.73276   0.00000
           Z            0.00000   0.00000   1.00000
 This molecule is an asymmetric top.
 Rotational symmetry number  1.
 Rotational temperatures (Kelvin)      2.21598     0.12081     0.11457
 Rotational constants (GHZ):          46.17350     2.51730     2.38715
 Zero-point vibrational energy     136788.2 (Joules/Mol)
                                   32.69317 (Kcal/Mol)
 Warning -- explicit consideration of   6 degrees of freedom as
           vibrations may cause significant error
 Vibrational temperatures:    179.15   242.77   403.12   562.93   802.15
          (Kelvin)            869.65  1142.19  1210.51  1308.32  1515.58
                             1800.14  1952.65  2168.63  2230.52  2803.93
                             4475.42  4547.06  4688.93

 Zero-point correction=                           0.052100 (Hartree/Particle)
 Thermal correction to Energy=                    0.057600
 Thermal correction to Enthalpy=                  0.058544
 Thermal correction to Gibbs Free Energy=         0.023415
 Sum of electronic and zero-point Energies=           -192.115462
 Sum of electronic and thermal Energies=              -192.109962
 Sum of electronic and thermal Enthalpies=            -192.109018
 Sum of electronic and thermal Free Energies=         -192.144148

                     E (Thermal)             CV                S
                      KCal/Mol        Cal/Mol-Kelvin    Cal/Mol-Kelvin
 Total                   36.145             17.618             73.937
 Electronic               0.000              0.000              1.377
 Translational            0.889              2.981             38.342
 Rotational               0.889              2.981             24.564
 Vibrational             34.367             11.657              9.653
 Vibration     1          0.610              1.928              3.029
 Vibration     2          0.625              1.881              2.450
 Vibration     3          0.680              1.710              1.533
 Vibration     4          0.759              1.489              0.995
 Vibration     5          0.913              1.123              0.529
 Vibration     6          0.963              1.022              0.442

 Optimization completed.
    -- Stationary point found.
 Normal termination of Gaussian 09 at Sun Jun 19 07:43:13 2016.
