 Gaussian 09, Revision E.01,
 Gaussian 09:  EM64L-G09RevE.01 30-Nov-2015

 ---------------------------------------------
 #p b3lyp/6-311++G(3df,2p) freq symmetry=Loose
 ---------------------------------------------

 ---------
 b3lyp opt
 ---------
 Symbolic Z-matrix:
 Charge =  2 Multiplicity = 4

                         Standard orientation:
 ---------------------------------------------------------------------
 Center     Atomic      Atomic             Coordinates (Angstroms)
 Number     Number       Type             X           Y           Z
 ---------------------------------------------------------------------
      1          6           0       -2.437638   -0.008249   -0.280566
      2          6           0        0.104528    0.527990    0.047255
      3          1           0        0.031449    1.627524    0.048005
      4          6           0        1.349876    0.054856   -0.010166
      5          6           0        2.591003   -0.304628   -0.080447
      6          6           0       -1.149490   -0.274817    0.127443
      7          1           0       -1.672011   -0.213645    1.187522
      8          1           0       -1.109111   -1.384789   -0.056643
 ---------------------------------------------------------------------

 SCF Done:  E(UB3LYP) =  -191.094589048     A.U. after   27 cycles

 The electronic state is 4-A.
 Alpha  occ. eigenvalues --  -10.79037 -10.78994 -10.74536 -10.70073 -10.69583
 Alpha  occ. eigenvalues --   -1.33937  -1.30157  -1.21261  -1.03117  -0.99135
 Alpha  occ. eigenvalues --   -0.92909  -0.90830  -0.88255  -0.83740  -0.81114
 Alpha  occ. eigenvalues --   -0.77251  -0.69944
 Alpha virt. eigenvalues --   -0.57866  -0.54011  -0.49831  -0.42006  -0.34863
 Alpha virt. eigenvalues --   -0.31945  -0.31134  -0.27136  -0.26116  -0.24762
 Alpha virt. eigenvalues --   -0.23256  -0.22366  -0.21532  -0.19971  -0.19566

  Beta  occ. eigenvalues --  -10.78887 -10.74958 -10.73990 -10.69588 -10.69140
  Beta  occ. eigenvalues --   -1.32610  -1.26352  -1.16410  -1.01696  -0.97943
  Beta  occ. eigenvalues --   -0.92044  -0.89042  -0.79500  -0.76692
  Beta virt. eigenvalues --   -0.66078  -0.62567  -0.57345  -0.56701  -0.51986
  Beta virt. eigenvalues --   -0.41048  -0.37127  -0.33956  -0.31509  -0.30230
  Beta virt. eigenvalues --   -0.26758  -0.25642  -0.23505  -0.22679  -0.21580

 Mulliken charges and spin densities:
               1          2
     1  C   -0.032095   0.101480
     2  C    0.042583   0.629861
     3  H    0.252381   0.020084
     4  C    0.704539   0.381976
     5  C    0.281744   1.885157
     6  C    0.153783  -0.032547
     7  H    0.311925   0.014684
     8  H    0.285141  -0.000694
 Sum of Mulliken charges =   2.00000   3.00000

 Dipole moment (field-independent basis, Debye):
    X=              0.9076    Y=             -0.7038    Z=              0.6859  Tot=              1.3377
 Quadrupole moment (field-independent basis, Debye-Ang):
   XX=             10.6919   YY=            -17.3690   ZZ=            -23.3298
   XY=              0.0264   XZ=             -2.1735   YZ=             -0.0423

  Exact polarizability:  84.131  -5.335  33.884   0.311   0.159  30.139
 Approx polarizability: 139.757 -17.275  54.345   2.889  -0.110  46.732

                      1                      2                      3
                      A                      A                      A
 Frequencies --     81.0828               169.2841               213.3331
 Red. masses --      3.6060                 6.9358                 1.7716
 Frc consts  --      0.0140                 0.1171                 0.0475
 IR Inten    --      5.9465                 8.1198                54.2341

                      4                      5                      6
                      A                      A                      A
 Frequencies --    274.5139               379.6905               540.3780
 Red. masses --      3.3583                 4.8402                 7.3089
 Frc consts  --      0.1491                 0.4111                 1.2575
 IR Inten    --      5.4589                11.5848                 9.4162

                      7                      8                      9
                      A                      A                      A
 Frequencies --    601.6965               768.4153               870.9848
 Red. masses --      1.4401                 2.3489                 1.7009
 Frc consts  --      0.3072                 0.8172                 0.7602
 IR Inten    --     27.7000                25.8399                10.7820

                     10                     11                     12
                      A                      A                      A
 Frequencies --    983.7500              1123.0711              1228.9349
 Red. masses --      1.3924                 1.5832                 1.0960
 Frc consts  --      0.7939                 1.1765                 0.9753
 IR Inten    --      0.6709                13.1135                59.3545

                     13                     14                     15
                      A                      A                      A
 Frequencies --   1299.8918              1471.2632              1717.3013
 Red. masses --      2.6121                 5.6214                11.5892
 Frc consts  --      2.6005                 7.1692                20.1371
 IR Inten    --     72.7845                83.4699                 1.6937

                     16                     17                     18
                      A                      A                      A
 Frequencies --   2398.5981              2789.2885              2975.4973
 Red. masses --      1.0669                 1.0749                 1.0804
 Frc consts  --      3.6165                 4.9271                 5.6358
 IR Inten    --    179.8666               143.2444               204.7165

 - Thermochemistry -
 -------------------
 Temperature   298.150 Kelvin.  Pressure   1.00000 Atm.
 Atom     1 has atomic number  6 and mass  12.00000

 Molecular mass:    63.02348 amu.
 Principal axes and moments of inertia in atomic units:
                           1         2         3
     Eigenvalues --    45.21080 701.09426 727.53234
           X            0.99989   0.01033  -0.01040
           Y           -0.01049   0.99982  -0.01561
           Z            0.01024   0.01572   0.99982
 This molecule is an asymmetric top.
 Rotational symmetry number  1.
 Rotational temperatures (Kelvin)      1.91578     0.12354     0.11905
 Rotational constants (GHZ):          39.91837     2.57418     2.48063
 Zero-point vibrational energy     118950.5 (Joules/Mol)
                                   28.42986 (Kcal/Mol)
 Warning -- explicit consideration of   7 degrees of freedom as
           vibrations may cause significant error
 Vibrational temperatures:    116.66   243.56   306.94   394.96   546.29
          (Kelvin)            777.48   865.71  1105.58  1253.15  1415.40
                             1615.85  1768.16  1870.25  2116.82  2470.81
                             3451.04  4013.16  4281.07

 Zero-point correction=                           0.045306 (Hartree/Particle)
 Thermal correction to Energy=                    0.051442
 Thermal correction to Enthalpy=                  0.052386
 Thermal correction to Gibbs Free Energy=         0.015175
 Sum of electronic and zero-point Energies=           -191.049283
 Sum of electronic and thermal Energies=              -191.043147
 Sum of electronic and thermal Enthalpies=            -191.042203
 Sum of electronic and thermal Free Energies=         -191.079414

                     E (Thermal)             CV                S
                      KCal/Mol        Cal/Mol-Kelvin    Cal/Mol-Kelvin
 Total                   32.280             19.404             78.317
 Electronic               0.000              0.000              2.755
 Translational            0.889              2.981             38.342
 Rotational               0.889              2.981             24.648
 Vibrational             30.503             13.442             12.572
 Vibration     1          0.600              1.962              3.864
 Vibration     2          0.625              1.880              2.443
 Vibration     3          0.644              1.821              2.015
 Vibration     4          0.677              1.720              1.568
 Vibration     5          0.750              1.513              1.040
 Vibration     6          0.895              1.161              0.564
 Vibration     7          0.960              1.028              0.447

 Normal termination of Gaussian 09 at Sun Jun 19 12:37:14 2016.
