 Gaussian 09, Revision E.01,
 Gaussian 09:  EM64L-G09RevE.01 30-Nov-2015

 ---------------------------------------------
 #p b3lyp/6-311++G(3df,2p) freq symmetry=Loose
 ---------------------------------------------

 ---------
 b3lyp opt
 ---------
 Symbolic Z-matrix:
 Charge =  1 Multiplicity = 3

                         Standard orientation:
 ---------------------------------------------------------------------
 Center     Atomic      Atomic             Coordinates (Angstroms)
 Number     Number       Type             X           Y           Z
 ---------------------------------------------------------------------
      1          6           0       -2.490448    0.119021    0.000000
      2          6           0       -1.225753   -0.241131    0.000000
      3          1           0       -1.318322   -1.347381    0.000000
      4          6           0        0.000000    0.453200    0.000000
      5          1           0        0.000984    1.532469    0.000000
      6          6           0        1.224480   -0.242778    0.000000
      7          1           0        1.316152   -1.349879    0.000000
      8          6           0        2.491918    0.105820    0.000000
 ---------------------------------------------------------------------

 SCF Done:  E(UB3LYP) =  -191.684953468     A.U. after   22 cycles

 The electronic state is 3-A".
 Alpha  occ. eigenvalues --  -10.52811 -10.52789 -10.46117 -10.44770 -10.44733
 Alpha  occ. eigenvalues --   -1.09547  -1.04964  -0.94976  -0.78715  -0.76769
 Alpha  occ. eigenvalues --   -0.72103  -0.65113  -0.61593  -0.59670  -0.58200
 Alpha  occ. eigenvalues --   -0.55633  -0.45278
 Alpha virt. eigenvalues --   -0.36152  -0.34392  -0.23812  -0.17734  -0.15709
 Alpha virt. eigenvalues --   -0.13383  -0.13186  -0.09795  -0.08024  -0.07834
 Alpha virt. eigenvalues --   -0.07407  -0.05994  -0.05651  -0.04452  -0.03447

  Beta  occ. eigenvalues --  -10.51230 -10.51213 -10.45216 -10.44900 -10.44864
  Beta  occ. eigenvalues --   -1.08192  -1.03397  -0.92067  -0.77914  -0.74951
  Beta  occ. eigenvalues --   -0.71348  -0.64290  -0.58921  -0.52761  -0.50269
  Beta virt. eigenvalues --   -0.46822  -0.34004  -0.33735  -0.32140  -0.20572
  Beta virt. eigenvalues --   -0.15653  -0.15490  -0.13081  -0.12968  -0.09658
  Beta virt. eigenvalues --   -0.07831  -0.07494  -0.07014  -0.05841  -0.05098

 Mulliken charges and spin densities:
               1          2
     1  C   -0.261804   0.808993
     2  C    0.343192  -0.116975
     3  H    0.191011   0.004744
     4  C    0.247096   0.616686
     5  H    0.203631  -0.013171
     6  C    0.347792  -0.115959
     7  H    0.190728   0.004648
     8  C   -0.261645   0.811035
 Sum of Mulliken charges =   1.00000   2.00000

 Dipole moment (field-independent basis, Debye):
    X=              0.0101    Y=             -1.0498    Z=              0.0000  Tot=              1.0498
 Quadrupole moment (field-independent basis, Debye-Ang):
   XX=            -13.2911   YY=            -19.5103   ZZ=            -29.5763
   XY=             -0.0077   XZ=              0.0000   YZ=              0.0000

  Exact polarizability: 388.171  -1.087  41.184  -0.000  -0.000 -33.741
 Approx polarizability:1621.249  -4.491  66.916  -0.000  -0.000  47.870

                      1                      2                      3
                     A"                     A'                     A'
 Frequencies --    153.0514               165.1507               255.0348
 Red. masses --      8.4558                 9.0172                 5.9087
 Frc consts  --      0.1167                 0.1449                 0.2264
 IR Inten    --      0.2113                 1.4600                32.0927

                      4                      5                      6
                     A"                     A'                     A"
 Frequencies --    281.0713               406.2865               625.2103
 Red. masses --      2.1197                 3.7761                 1.7037
 Frc consts  --      0.0987                 0.3673                 0.3924
 IR Inten    --      0.0001                 0.2216                 0.0037

                      7                      8                      9
                     A"                     A'                     A'
 Frequencies --    762.0523               874.3288               913.7748
 Red. masses --      1.1799                 2.3096                 1.1416
 Frc consts  --      0.4037                 1.0402                 0.5616
 IR Inten    --     47.8363                 4.7016               199.9532

                     10                     11                     12
                     A'                     A'                     A'
 Frequencies --   1134.6576              1168.2086              1375.4661
 Red. masses --      2.0249                 3.0054                 1.5813
 Frc consts  --      1.5359                 2.4166                 1.7626
 IR Inten    --      0.4601                45.1055                 0.5018

                     13                     14                     15
                     A'                     A"                     A'
 Frequencies --   1434.5927              1547.6160              1571.4828
 Red. masses --      4.9929                 1.9378                 8.4546
 Frc consts  --      6.0542                 2.7345                12.3017
 IR Inten    --     20.2317              5333.3850                11.5362

                     16                     17                     18
                     A'                     A'                     A'
 Frequencies --   2926.4814              2937.4627              3218.3137
 Red. masses --      1.0772                 1.0770                 1.0900
 Frc consts  --      5.4356                 5.4752                 6.6519
 IR Inten    --    229.9881               158.8704                18.7084

 - Thermochemistry -
 -------------------
 Temperature   298.150 Kelvin.  Pressure   1.00000 Atm.
 Atom     1 has atomic number  6 and mass  12.00000

 Molecular mass:    63.02348 amu.
 Principal axes and moments of inertia in atomic units:
                           1         2         3
     Eigenvalues --    36.37072 673.01730 709.38802
           X            1.00000   0.00231   0.00000
           Y           -0.00231   1.00000   0.00000
           Z           -0.00000   0.00000   1.00000
 This molecule is an asymmetric top.
 Rotational symmetry number  1.
 Rotational temperatures (Kelvin)      2.38142     0.12869     0.12210
 Rotational constants (GHZ):          49.62071     2.68157     2.54408
 Zero-point vibrational energy     130095.3 (Joules/Mol)
                                   31.09353 (Kcal/Mol)
 Warning -- explicit consideration of   5 degrees of freedom as
           vibrations may cause significant error
 Vibrational temperatures:    220.21   237.61   366.94   404.40   584.55
          (Kelvin)            899.54  1096.42  1257.96  1314.72  1632.52
                             1680.79  1978.99  2064.06  2226.67  2261.01
                             4210.55  4226.35  4630.43

 Zero-point correction=                           0.049551 (Hartree/Particle)
 Thermal correction to Energy=                    0.055276
 Thermal correction to Enthalpy=                  0.056221
 Thermal correction to Gibbs Free Energy=         0.020458
 Sum of electronic and zero-point Energies=           -191.635403
 Sum of electronic and thermal Energies=              -191.629677
 Sum of electronic and thermal Enthalpies=            -191.628733
 Sum of electronic and thermal Free Energies=         -191.664495

                     E (Thermal)             CV                S
                      KCal/Mol        Cal/Mol-Kelvin    Cal/Mol-Kelvin
 Total                   34.686             18.187             75.268
 Electronic               0.000              0.000              2.183
 Translational            0.889              2.981             38.342
 Rotational               0.889              2.981             24.366
 Vibrational             32.909             12.225             10.377
 Vibration     1          0.619              1.899              2.634
 Vibration     2          0.624              1.885              2.490
 Vibration     3          0.665              1.754              1.696
 Vibration     4          0.681              1.709              1.527
 Vibration     5          0.771              1.457              0.940

 Normal termination of Gaussian 09 at Sun Jun 19 10:19:53 2016.
