 Gaussian 09, Revision E.01,
 Gaussian 09:  EM64L-G09RevE.01 30-Nov-2015

 ------------------------------------------------------
 #p b3lyp/6-311++G(3df,2p) freq IOp(2/17=3) IOp(2/18=3)
 ------------------------------------------------------

 ---------
 b3lyp opt
 ---------
 Symbolic Z-matrix:
 Charge =  3 Multiplicity = 3

                         Standard orientation:
 ---------------------------------------------------------------------
 Center     Atomic      Atomic             Coordinates (Angstroms)
 Number     Number       Type             X           Y           Z
 ---------------------------------------------------------------------
      1          6           0       -0.292937    2.019711    0.000000
      2          6           0        0.000000    0.655304    0.000000
      3          6           0        0.200610   -0.394710    1.002633
      4          1           0        0.631739   -0.409098    2.028350
      5          6           0       -0.207350   -1.354751    0.000000
      6          1           0       -0.670828   -2.366939    0.000000
      7          6           0        0.200610   -0.394710   -1.002633
      8          1           0        0.631739   -0.409098   -2.028350
 ---------------------------------------------------------------------

 SCF Done:  E(UB3LYP) =  -190.395936036     A.U. after   15 cycles

 The electronic state is 3-A'.
 Alpha  occ. eigenvalues --  -11.17190 -11.04393 -11.02185 -11.02185 -11.00006
 Alpha  occ. eigenvalues --   -1.69916  -1.55152  -1.39872  -1.34557  -1.24272
 Alpha  occ. eigenvalues --   -1.20135  -1.18251  -1.14767  -1.13690  -1.12742
 Alpha  occ. eigenvalues --   -1.04610
 Alpha virt. eigenvalues --   -0.91971  -0.83004  -0.80815  -0.70387  -0.54654
 Alpha virt. eigenvalues --   -0.53156  -0.52334  -0.50610  -0.47927  -0.47678
 Alpha virt. eigenvalues --   -0.43795  -0.43043  -0.41785  -0.40436  -0.40270

  Beta  occ. eigenvalues --  -11.13623 -11.04164 -11.02079 -11.02078 -10.99714
  Beta  occ. eigenvalues --   -1.69210  -1.50416  -1.39548  -1.32591  -1.24050
  Beta  occ. eigenvalues --   -1.17843  -1.15264  -1.12517  -1.11659
  Beta virt. eigenvalues --   -0.93619  -0.90853  -0.86913  -0.82013  -0.75278
  Beta virt. eigenvalues --   -0.67270  -0.54162  -0.52604  -0.51426  -0.50081
  Beta virt. eigenvalues --   -0.47154  -0.47010  -0.43769  -0.42607  -0.41051

 Mulliken charges and spin densities:
               1          2
     1  C    0.488342   1.534646
     2  C    0.574679   0.094652
     3  C    0.288577   0.090928
     4  H    0.405432  -0.003247
     5  C    0.161538   0.186322
     6  H    0.387423   0.009019
     7  C    0.288577   0.090928
     8  H    0.405432  -0.003247
 Sum of Mulliken charges =   3.00000   2.00000

 Dipole moment (field-independent basis, Debye):
    X=             -0.2334    Y=              1.8341    Z=             -0.0000  Tot=              1.8489
 Quadrupole moment (field-independent basis, Debye-Ang):
   XX=            -19.4017   YY=             11.7545   ZZ=             -4.9547
   XY=             -1.3366   XZ=             -0.0000   YZ=              0.0000

  Exact polarizability:  22.147  -1.315  55.690  -0.000  -0.000  37.423
 Approx polarizability:  33.525  -4.289 112.028  -0.000   0.000  65.864

                      1                      2                      3
                     A'                     A"                     A'
 Frequencies --    219.1142               335.0846               420.2246
 Red. masses --      2.7549                 5.7602                 2.8531
 Frc consts  --      0.0779                 0.3811                 0.2968
 IR Inten    --      2.4508                 3.1581                25.8443

                      4                      5                      6
                     A'                     A'                     A"
 Frequencies --    633.3741               827.0584               882.8013
 Red. masses --      4.3286                 3.0311                 2.0055
 Frc consts  --      1.0231                 1.2216                 0.9209
 IR Inten    --      3.1973                23.2625                16.0891

                      7                      8                      9
                     A'                     A"                     A'
 Frequencies --    923.1130               984.2982               986.0691
 Red. masses --      1.5751                 1.8653                 1.7113
 Frc consts  --      0.7908                 1.0647                 0.9804
 IR Inten    --     38.0856                 9.4312                 4.9386

                     10                     11                     12
                     A"                     A'                     A"
 Frequencies --   1035.2735              1089.8085              1143.0420
 Red. masses --      1.6876                 1.9910                 1.2699
 Frc consts  --      1.0657                 1.3932                 0.9776
 IR Inten    --      6.3476                10.4177                 0.1117

                     13                     14                     15
                     A'                     A"                     A'
 Frequencies --   1188.2905              1227.6789              1295.6765
 Red. masses --      4.8605                 3.0288                 3.3858
 Frc consts  --      4.0437                 2.6896                 3.3490
 IR Inten    --     17.4927               178.6407               210.3249

                     16                     17                     18
                     A'                     A"                     A'
 Frequencies --   2909.8322              2929.9768              2946.6755
 Red. masses --      1.1011                 1.1104                 1.1215
 Frc consts  --      5.4929                 5.6164                 5.7371
 IR Inten    --    361.7960               591.6747               176.9454

 - Thermochemistry -
 -------------------
 Temperature   298.150 Kelvin.  Pressure   1.00000 Atm.
 Atom     1 has atomic number  6 and mass  12.00000

 Molecular mass:    63.02348 amu.
 Principal axes and moments of inertia in atomic units:
                           1         2         3
     Eigenvalues --   128.32488 319.45400 422.67218
           X           -0.05492   0.00000   0.99849
           Y            0.99849   0.00000   0.05492
           Z           -0.00000   1.00000   0.00000
 This molecule is an asymmetric top.
 Rotational symmetry number  1.
 Rotational temperatures (Kelvin)      0.67496     0.27113     0.20492
 Rotational constants (GHZ):          14.06384     5.64946     4.26984
 Zero-point vibrational energy     131454.0 (Joules/Mol)
                                   31.41826 (Kcal/Mol)
 Warning -- explicit consideration of   3 degrees of freedom as
           vibrations may cause significant error
 Vibrational temperatures:    315.26   482.11   604.61   911.28  1189.95
          (Kelvin)           1270.15  1328.15  1416.18  1418.73  1489.53
                             1567.99  1644.58  1709.68  1766.35  1864.19
                             4186.59  4215.58  4239.60

 Zero-point correction=                           0.050068 (Hartree/Particle)
 Thermal correction to Energy=                    0.054622
 Thermal correction to Enthalpy=                  0.055566
 Thermal correction to Gibbs Free Energy=         0.022142
 Sum of electronic and zero-point Energies=           -190.345868
 Sum of electronic and thermal Energies=              -190.341314
 Sum of electronic and thermal Enthalpies=            -190.340370
 Sum of electronic and thermal Free Energies=         -190.373794

                     E (Thermal)             CV                S
                      KCal/Mol        Cal/Mol-Kelvin    Cal/Mol-Kelvin
 Total                   34.276             15.580             70.346
 Electronic               0.000              0.000              2.183
 Translational            0.889              2.981             38.342
 Rotational               0.889              2.981             24.364
 Vibrational             32.498              9.619              5.457
 Vibration     1          0.647              1.812              1.966
 Vibration     2          0.716              1.605              1.235
 Vibration     3          0.783              1.426              0.891

 Normal termination of Gaussian 09 at Thu Jan 31 06:11:19 2019.
