 Gaussian 09, Revision E.01,
 Gaussian 09:  EM64L-G09RevE.01 30-Nov-2015

 ---------------------------------------------
 #p b3lyp/6-311++G(3df,2p) freq symmetry=Loose
 ---------------------------------------------

 ---------
 b3lyp opt
 ---------
 Symbolic Z-matrix:
 Charge =  3 Multiplicity = 3

                         Standard orientation:
 ---------------------------------------------------------------------
 Center     Atomic      Atomic             Coordinates (Angstroms)
 Number     Number       Type             X           Y           Z
 ---------------------------------------------------------------------
      1          6           0       -2.287170   -0.564375   -0.000000
      2          1           0       -3.391514   -0.747072   -0.000000
      3          6           0       -0.995194   -0.547548   -0.000000
      4          1           0       -0.767905   -1.673305   -0.000000
      5          6           0        0.000000    0.481287    0.000000
      6          1           0       -0.324997    1.555221   -0.000000
      7          6           0        1.370601    0.361222    0.000000
      8          6           0        2.659165    0.413607    0.000000
 ---------------------------------------------------------------------

 SCF Done:  E(UB3LYP) =  -190.423984160     A.U. after   17 cycles

 The electronic state is 3-A'.
 Alpha  occ. eigenvalues --  -11.07412 -11.01740 -10.99677 -10.99022 -10.92048
 Alpha  occ. eigenvalues --   -1.56839  -1.52489  -1.44500  -1.28706  -1.22115
 Alpha  occ. eigenvalues --   -1.19285  -1.12402  -1.10833  -1.07439  -1.04979
 Alpha  occ. eigenvalues --   -1.00944
 Alpha virt. eigenvalues --   -0.85508  -0.80121  -0.73453  -0.68985  -0.59616
 Alpha virt. eigenvalues --   -0.52597  -0.51061  -0.50089  -0.44459  -0.44070
 Alpha virt. eigenvalues --   -0.42139  -0.40667  -0.38934  -0.37813  -0.37525

  Beta  occ. eigenvalues --  -11.03757 -11.01958 -10.99078 -10.98838 -10.91961
  Beta  occ. eigenvalues --   -1.55322  -1.49848  -1.42105  -1.28093  -1.21643
  Beta  occ. eigenvalues --   -1.18738  -1.10666  -1.06697  -0.99975
  Beta virt. eigenvalues --   -0.89294  -0.85758  -0.83706  -0.80201  -0.67208
  Beta virt. eigenvalues --   -0.63901  -0.58059  -0.51992  -0.50669  -0.49693
  Beta virt. eigenvalues --   -0.44169  -0.43604  -0.41368  -0.40679  -0.38371

 Mulliken charges and spin densities:
               1          2
     1  C    0.361841  -0.094062
     2  H    0.502555   0.003371
     3  C    0.100153   0.020929
     4  H    0.282565  -0.000362
     5  C    0.122252   0.004112
     6  H    0.301438   0.029774
     7  C    0.770289   0.382481
     8  C    0.558907   1.653758
 Sum of Mulliken charges =   3.00000   2.00000

 Dipole moment (field-independent basis, Debye):
    X=             -1.0819    Y=             -0.4811    Z=             -0.0000  Tot=              1.1840
 Quadrupole moment (field-independent basis, Debye-Ang):
   XX=             47.8518   YY=            -10.0234   ZZ=            -23.1923
   XY=             14.3950   XZ=              0.0000   YZ=              0.0000

  Exact polarizability:  94.496  13.466  32.280  -0.000  -0.000  22.397
 Approx polarizability: 207.293  25.030  49.587   0.000   0.000  31.012

                      1                      2                      3
                     A"                     A'                     A'
 Frequencies --    147.2257               180.5920               293.5630
 Red. masses --      3.2007                 4.5004                 3.3118
 Frc consts  --      0.0409                 0.0865                 0.1682
 IR Inten    --     15.0229                17.2831                10.8107

                      4                      5                      6
                     A"                     A'                     A"
 Frequencies --    326.8005               531.9829               676.1672
 Red. masses --      5.4413                 6.8683                 1.2495
 Frc consts  --      0.3424                 1.1452                 0.3366
 IR Inten    --      1.3630                 2.0586               101.9659

                      7                      8                      9
                     A'                     A"                     A"
 Frequencies --    783.6537               790.4719               866.9066
 Red. masses --      2.4153                 1.3850                 1.8333
 Frc consts  --      0.8739                 0.5099                 0.8118
 IR Inten    --     21.4255                14.8347                 7.7168

                     10                     11                     12
                     A'                     A'                     A'
 Frequencies --    971.2169              1045.1360              1152.9687
 Red. masses --      1.9021                 1.3621                 1.7336
 Frc consts  --      1.0571                 0.8766                 1.3578
 IR Inten    --      7.8639                12.4237                20.2612

                     13                     14                     15
                     A'                     A'                     A'
 Frequencies --   1334.6699              1719.0183              1819.7099
 Red. masses --      2.2137                 5.2553                11.5716
 Frc consts  --      2.3234                 9.1498                22.5761
 IR Inten    --     17.4272               919.5142               410.9735

                     16                     17                     18
                     A'                     A'                     A'
 Frequencies --   2585.3942              2791.7889              2916.1171
 Red. masses --      1.0741                 1.0831                 1.1542
 Frc consts  --      4.2303                 4.9735                 5.7830
 IR Inten    --    350.7821               342.9010               532.0167

 - Thermochemistry -
 -------------------
 Temperature   298.150 Kelvin.  Pressure   1.00000 Atm.
 Atom     1 has atomic number  6 and mass  12.00000

 Molecular mass:    63.02348 amu.
 Principal axes and moments of inertia in atomic units:
                           1         2         3
     Eigenvalues --    31.97772 731.02539 763.00311
           X            0.97235  -0.23351   0.00000
           Y            0.23351   0.97235   0.00000
           Z           -0.00000   0.00000   1.00000
 This molecule is an asymmetric top.
 Rotational symmetry number  1.
 Rotational temperatures (Kelvin)      2.70857     0.11848     0.11352
 Rotational constants (GHZ):          56.43746     2.46878     2.36531
 Zero-point vibrational energy     125209.4 (Joules/Mol)
                                   29.92577 (Kcal/Mol)
 Warning -- explicit consideration of   5 degrees of freedom as
           vibrations may cause significant error
 Vibrational temperatures:    211.82   259.83   422.37   470.19   765.40
          (Kelvin)            972.85  1127.50  1137.31  1247.28  1397.36
                             1503.72  1658.86  1920.29  2473.28  2618.15
                             3719.80  4016.76  4195.64

 Zero-point correction=                           0.047690 (Hartree/Particle)
 Thermal correction to Energy=                    0.053233
 Thermal correction to Enthalpy=                  0.054177
 Thermal correction to Gibbs Free Energy=         0.018801
 Sum of electronic and zero-point Energies=           -190.376294
 Sum of electronic and thermal Energies=              -190.370751
 Sum of electronic and thermal Enthalpies=            -190.369807
 Sum of electronic and thermal Free Energies=         -190.405183

                     E (Thermal)             CV                S
                      KCal/Mol        Cal/Mol-Kelvin    Cal/Mol-Kelvin
 Total                   33.404             18.157             74.456
 Electronic               0.000              0.000              2.183
 Translational            0.889              2.981             38.342
 Rotational               0.889              2.981             24.393
 Vibrational             31.627             12.195              9.538
 Vibration     1          0.617              1.906              2.708
 Vibration     2          0.630              1.866              2.322
 Vibration     3          0.688              1.686              1.453
 Vibration     4          0.710              1.622              1.276
 Vibration     5          0.887              1.179              0.583

 Optimization completed.
    -- Stationary point found.
 Normal termination of Gaussian 09 at Sun Jun 19 14:56:02 2016.
