 Gaussian 09, Revision E.01,
 Gaussian 09:  EM64L-G09RevE.01 30-Nov-2015

 ---------------------------------------------
 #p b3lyp/6-311++G(3df,2p) freq symmetry=Loose
 ---------------------------------------------

 ---------
 b3lyp opt
 ---------
 Symbolic Z-matrix:
 Charge =  3 Multiplicity = 1

                         Standard orientation:
 ---------------------------------------------------------------------
 Center     Atomic      Atomic             Coordinates (Angstroms)
 Number     Number       Type             X           Y           Z
 ---------------------------------------------------------------------
      1          6           0        0.772485    0.001457    0.241461
      2          1           0        1.325759    0.005838    1.262076
      3          6           0       -0.767442   -0.002754    0.393217
      4          6           0        1.136046    1.352802   -0.334202
      5          6           0       -1.842323   -0.007344   -0.296140
      6          1           0       -2.866563   -0.011285   -0.739269
      7          6           0        1.161478   -1.343311   -0.333477
      8          1           0       -1.220659    0.000346    1.452039
 ---------------------------------------------------------------------

 SCF Done:  E(RB3LYP) =  -190.271017698     A.U. after   14 cycles

 The electronic state is 1-A.
 Alpha  occ. eigenvalues --  -11.11994 -11.11962 -11.00470 -10.97929 -10.94195
 Alpha  occ. eigenvalues --   -1.59307  -1.49884  -1.39877  -1.28748  -1.21789
 Alpha  occ. eigenvalues --   -1.19850  -1.13740  -1.05939  -1.04729  -1.00873
 Alpha virt. eigenvalues --   -0.87227  -0.86516  -0.85301  -0.83577  -0.79094
 Alpha virt. eigenvalues --   -0.68390  -0.57537  -0.53059  -0.50701  -0.48045
 Alpha virt. eigenvalues --   -0.46826  -0.44038  -0.43330  -0.41643  -0.41622

 Mulliken charges:
               1
     1  C    0.042124
     2  H    0.342313
     3  C    0.154284
     4  C    0.652923
     5  C    0.352172
     6  H    0.479957
     7  C    0.653355
     8  H    0.322871
 Sum of Mulliken charges =   3.00000

 Dipole moment (field-independent basis, Debye):
    X=             -0.5540    Y=             -0.0098    Z=              0.3895  Tot=              0.6773
 Quadrupole moment (field-independent basis, Debye-Ang):
   XX=             15.9174   YY=            -13.8299   ZZ=            -13.5312
   XY=              0.0624   XZ=              2.6683   YZ=              0.0280

  Exact polarizability:  58.334  -0.010  46.014   1.315  -0.002  33.674
 Approx polarizability: 106.623  -0.023 104.640   5.835  -0.021  61.107

                      1                      2                      3
                      A                      A                      A
 Frequencies --     29.7025               178.8181               201.2915
 Red. masses --      6.6931                 2.0844                 4.6680
 Frc consts  --      0.0035                 0.0393                 0.1114
 IR Inten    --      1.0002                 2.4441                 5.5980

                      4                      5                      6
                      A                      A                      A
 Frequencies --    314.4384               408.0548               616.1954
 Red. masses --      4.7361                 5.4722                 1.6079
 Frc consts  --      0.2759                 0.5368                 0.3597
 IR Inten    --     17.6206                18.6515               171.5001

                      7                      8                      9
                      A                      A                      A
 Frequencies --    740.2892               760.8930               777.4523
 Red. masses --      7.6739                 1.3735                 1.2991
 Frc consts  --      2.4778                 0.4685                 0.4626
 IR Inten    --     31.4792                31.5434                11.7492

                     10                     11                     12
                      A                      A                      A
 Frequencies --    782.2208               919.5376              1023.3627
 Red. masses --      2.8824                 1.2269                 1.3672
 Frc consts  --      1.0391                 0.6112                 0.8436
 IR Inten    --     53.8554                 7.4846                13.9484

                     13                     14                     15
                      A                      A                      A
 Frequencies --   1026.2532              1088.9067              1768.4728
 Red. masses --      3.5197                 1.4651                 5.1899
 Frc consts  --      2.1841                 1.0235                 9.5633
 IR Inten    --    513.4181                64.1899               350.8221

                     16                     17                     18
                      A                      A                      A
 Frequencies --   2446.0754              2563.4593              2945.3864
 Red. masses --      1.0746                 1.0741                 1.1610
 Frc consts  --      3.7884                 4.1586                 5.9345
 IR Inten    --    371.2653               519.8866               454.8242

 - Thermochemistry -
 -------------------
 Temperature   298.150 Kelvin.  Pressure   1.00000 Atm.
 Atom     1 has atomic number  6 and mass  12.00000

 Molecular mass:    63.02348 amu.
 Principal axes and moments of inertia in atomic units:
                           1         2         3
     Eigenvalues --   193.10847 387.71630 506.11607
           X            0.99976   0.00071   0.02190
           Y           -0.00072   1.00000   0.00051
           Z           -0.02190  -0.00052   0.99976
 This molecule is an asymmetric top.
 Rotational symmetry number  1.
 Rotational temperatures (Kelvin)      0.44852     0.22339     0.17113
 Rotational constants (GHZ):           9.34574     4.65480     3.56586
 Zero-point vibrational energy     111197.7 (Joules/Mol)
                                   26.57690 (Kcal/Mol)
 Warning -- explicit consideration of   6 degrees of freedom as
           vibrations may cause significant error
 Vibrational temperatures:     42.74   257.28   289.61   452.41   587.10
          (Kelvin)            886.57  1065.11  1094.75  1118.58  1125.44
                             1323.01  1472.39  1476.55  1566.69  2544.43
                             3519.35  3688.24  4237.75

 Zero-point correction=                           0.042353 (Hartree/Particle)
 Thermal correction to Energy=                    0.048574
 Thermal correction to Enthalpy=                  0.049518
 Thermal correction to Gibbs Free Energy=         0.012548
 Sum of electronic and zero-point Energies=           -190.228665
 Sum of electronic and thermal Energies=              -190.222444
 Sum of electronic and thermal Enthalpies=            -190.221500
 Sum of electronic and thermal Free Energies=         -190.258469

                     E (Thermal)             CV                S
                      KCal/Mol        Cal/Mol-Kelvin    Cal/Mol-Kelvin
 Total                   30.481             20.086             77.810
 Electronic               0.000              0.000              0.000
 Translational            0.889              2.981             38.342
 Rotational               0.889              2.981             25.142
 Vibrational             28.703             14.125             14.326
 Vibration     1          0.593              1.984              5.849
 Vibration     2          0.629              1.868              2.341
 Vibration     3          0.638              1.838              2.121
 Vibration     4          0.702              1.646              1.339
 Vibration     5          0.773              1.453              0.934
 Vibration     6          0.976              0.998              0.423

 Normal termination of Gaussian 09 at Sun Jun 19 13:31:01 2016.
