 Gaussian 09, Revision E.01,
 Gaussian 09:  EM64L-G09RevE.01 30-Nov-2015

 ---------------------------------------------
 #p b3lyp/6-311++G(3df,2p) freq symmetry=Loose
 ---------------------------------------------

 ---------
 b3lyp opt
 ---------
 Symbolic Z-matrix:
 Charge =  1 Multiplicity = 1

                         Standard orientation:
 ---------------------------------------------------------------------
 Center     Atomic      Atomic             Coordinates (Angstroms)
 Number     Number       Type             X           Y           Z
 ---------------------------------------------------------------------
      1          6           0       -0.978246    0.000101   -0.032172
      2          6           0        0.277466   -0.000264   -0.013365
      3          6           0        1.565443   -0.000532   -0.000045
      4          6           0        2.893539    0.000521    0.012260
      5          6           0       -2.380023    0.000316   -0.009291
      6          1           0       -2.821150    0.918476   -0.408851
      7          1           0       -2.821002   -0.915385   -0.414859
      8          1           0       -2.626923   -0.003945    1.079379
 ---------------------------------------------------------------------

 SCF Done:  E(RB3LYP) =  -191.804733228     A.U. after   17 cycles

 The electronic state is 1-A.
 Alpha  occ. eigenvalues --  -10.52125 -10.49082 -10.48394 -10.47042 -10.43653
 Alpha  occ. eigenvalues --   -1.09324  -1.03579  -0.97507  -0.88815  -0.73261
 Alpha  occ. eigenvalues --   -0.68964  -0.68302  -0.60756  -0.60124  -0.52535
 Alpha  occ. eigenvalues --   -0.49417
 Alpha virt. eigenvalues --   -0.44306  -0.28726  -0.28216  -0.17313  -0.12689
 Alpha virt. eigenvalues --   -0.12443  -0.11830  -0.10029  -0.09801  -0.08976
 Alpha virt. eigenvalues --   -0.07521  -0.07035  -0.06467  -0.05924  -0.04993

 Mulliken charges:
               1
     1  C    0.492488
     2  C   -0.401386
     3  C    1.031223
     4  C   -0.419496
     5  C   -0.384873
     6  H    0.225534
     7  H    0.225605
     8  H    0.230904
 Sum of Mulliken charges =   1.00000

 Dipole moment (field-independent basis, Debye):
    X=             -4.4328    Y=             -0.0021    Z=              0.2627  Tot=              4.4405
 Quadrupole moment (field-independent basis, Debye-Ang):
   XX=             -8.0064   YY=            -26.9784   ZZ=            -24.0065
   XY=              0.0029   XZ=             -0.7774   YZ=             -0.0049

  Exact polarizability: 126.472   0.013  34.387  -0.959   0.009  33.904
 Approx polarizability: 282.423   0.036  47.500  -2.167  -0.006  51.197

                      1                      2                      3
                      A                      A                      A
 Frequencies --     89.6569               135.3471               231.9931
 Red. masses --      6.9951                 4.7433                 4.7835
 Frc consts  --      0.0331                 0.0512                 0.1517
 IR Inten    --      6.3699                 0.6885                20.3909

                      4                      5                      6
                      A                      A                      A
 Frequencies --    261.5544               485.1935               492.0322
 Red. masses --      3.9987                 2.7402                 9.2679
 Frc consts  --      0.1612                 0.3801                 1.3220
 IR Inten    --     10.5172                 1.9008                 4.8666

                      7                      8                      9
                      A                      A                      A
 Frequencies --    557.5847               697.3966               894.9916
 Red. masses --      1.4993                 5.3955                 2.0697
 Frc consts  --      0.2746                 1.5461                 0.9768
 IR Inten    --     88.7480                26.6880                32.3659

                     10                     11                     12
                      A                      A                      A
 Frequencies --   1202.0493              1228.9146              1288.9702
 Red. masses --      4.4790                 1.0732                 1.2319
 Frc consts  --      3.8131                 0.9550                 1.2059
 IR Inten    --     49.5845                26.6375                90.4280

                     13                     14                     15
                      A                      A                      A
 Frequencies --   1441.6169              1781.5890              2196.1862
 Red. masses --      1.1458                11.3833                11.8165
 Frc consts  --      1.4029                21.2879                33.5799
 IR Inten    --     13.3139               760.3100                30.8909

                     16                     17                     18
                      A                      A                      A
 Frequencies --   2850.2376              3012.5768              3051.7649
 Red. masses --      1.0634                 1.0556                 1.0944
 Frc consts  --      5.0901                 5.6447                 6.0050
 IR Inten    --    300.9905                59.5703                48.3288

 - Thermochemistry -
 -------------------
 Temperature   298.150 Kelvin.  Pressure   1.00000 Atm.
 Atom     1 has atomic number  6 and mass  12.00000

 Molecular mass:    63.02348 amu.
 Principal axes and moments of inertia in atomic units:
                           1         2         3
     Eigenvalues --    11.51998 834.63048 835.21435
           X            1.00000   0.00001  -0.00234
           Y           -0.00001   1.00000  -0.00018
           Z            0.00234   0.00018   1.00000
 This molecule is an asymmetric top.
 Rotational symmetry number  1.
 Rotational temperatures (Kelvin)      7.51857     0.10378     0.10370
 Rotational constants (GHZ):         156.66184     2.16232     2.16081
 Zero-point vibrational energy     130989.0 (Joules/Mol)
                                   31.30713 (Kcal/Mol)
 Warning -- explicit consideration of   7 degrees of freedom as
           vibrations may cause significant error
 Vibrational temperatures:    129.00   194.73   333.79   376.32   698.08
          (Kelvin)            707.92   802.24  1003.40  1287.69  1729.48
                             1768.13  1854.54  2074.16  2563.31  3159.82
                             4100.85  4334.42  4390.80

 Zero-point correction=                           0.049891 (Hartree/Particle)
 Thermal correction to Energy=                    0.056000
 Thermal correction to Enthalpy=                  0.056945
 Thermal correction to Gibbs Free Energy=         0.021560
 Sum of electronic and zero-point Energies=           -191.754842
 Sum of electronic and thermal Energies=              -191.748733
 Sum of electronic and thermal Enthalpies=            -191.747789
 Sum of electronic and thermal Free Energies=         -191.783173

                     E (Thermal)             CV                S
                      KCal/Mol        Cal/Mol-Kelvin    Cal/Mol-Kelvin
 Total                   35.141             19.055             74.473
 Electronic               0.000              0.000              0.000
 Translational            0.889              2.981             38.342
 Rotational               0.889              2.981             23.600
 Vibrational             33.363             13.094             12.531
 Vibration     1          0.602              1.956              3.668
 Vibration     2          0.613              1.918              2.869
 Vibration     3          0.653              1.792              1.863
 Vibration     4          0.669              1.743              1.651
 Vibration     5          0.841              1.283              0.696
 Vibration     6          0.848              1.268              0.678
 Vibration     7          0.913              1.123              0.529

 Optimization completed.
    -- Stationary point found.
 Normal termination of Gaussian 09 at Sun Jun 19 09:36:18 2016.
