 Gaussian 09, Revision E.01,
 Gaussian 09:  EM64L-G09RevE.01 30-Nov-2015

 ---------------------------------------------
 #p b3lyp/6-311++G(3df,2p) freq symmetry=Loose
 ---------------------------------------------

 ---------
 b3lyp opt
 ---------
 Symbolic Z-matrix:
 Charge =  2 Multiplicity = 4

                         Standard orientation:
 ---------------------------------------------------------------------
 Center     Atomic      Atomic             Coordinates (Angstroms)
 Number     Number       Type             X           Y           Z
 ---------------------------------------------------------------------
      1          6           0        0.000000    2.417709   -0.396818
      2          1           0        0.000000    3.430869   -0.790439
      3          6           0        0.000000    1.235408    0.059930
      4          6           0       -0.000000   -0.000000    0.644083
      5          1           0       -0.000000   -0.000000    1.759037
      6          6           0       -0.000000   -1.235408    0.059930
      7          6           0       -0.000000   -2.417709   -0.396818
      8          1           0       -0.000000   -3.430869   -0.790439
 ---------------------------------------------------------------------

 SCF Done:  E(UB3LYP) =  -191.270999970     A.U. after   14 cycles

 The electronic state is 4-A2.
 Alpha  occ. eigenvalues --  -10.73005 -10.73003 -10.72479 -10.72478 -10.69350
 Alpha  occ. eigenvalues --   -1.32397  -1.27841  -1.21384  -1.06664  -0.98854
 Alpha  occ. eigenvalues --   -0.97240  -0.95427  -0.85024  -0.80777  -0.79308
 Alpha  occ. eigenvalues --   -0.78665  -0.67766
 Alpha virt. eigenvalues --   -0.48560  -0.47083  -0.45647  -0.34805  -0.33226
 Alpha virt. eigenvalues --   -0.29472  -0.28968  -0.27128  -0.26471  -0.23963
 Alpha virt. eigenvalues --   -0.23452  -0.21416  -0.20725  -0.20018  -0.19621

  Beta  occ. eigenvalues --  -10.72487 -10.72487 -10.71012 -10.71011 -10.68519
  Beta  occ. eigenvalues --   -1.29051  -1.23127  -1.17110  -1.04523  -0.97041
  Beta  occ. eigenvalues --   -0.95884  -0.92383  -0.81754  -0.75221
  Beta virt. eigenvalues --   -0.66184  -0.65597  -0.56607  -0.42454  -0.42255
  Beta virt. eigenvalues --   -0.40583  -0.31797  -0.31602  -0.27866  -0.27362
  Beta virt. eigenvalues --   -0.26385  -0.25964  -0.23360  -0.22235  -0.20888

 Mulliken charges and spin densities:
               1          2
     1  C    0.457081   0.752787
     2  H    0.438315  -0.024859
     3  C    0.054837   0.327194
     4  C   -0.166971   0.835970
     5  H    0.266504   0.053786
     6  C    0.054837   0.327194
     7  C    0.457081   0.752787
     8  H    0.438315  -0.024859
 Sum of Mulliken charges =   2.00000   3.00000

 Dipole moment (field-independent basis, Debye):
    X=             -0.0000    Y=             -0.0000    Z=             -0.7641  Tot=              0.7641
 Quadrupole moment (field-independent basis, Debye-Ang):
   XX=            -26.3660   YY=             30.9667   ZZ=            -16.4360
   XY=              0.0000   XZ=              0.0000   YZ=             -0.0000

  Exact polarizability:  25.529   0.000  96.398  -0.000  -0.000  33.527
 Approx polarizability:  34.527   0.000 161.109   0.000  -0.000  53.134

                      1                      2                      3
                     A1                     B1                     B2
 Frequencies --    145.6360               309.7389               353.5030
 Red. masses --      3.8241                 2.3259                 3.5122
 Frc consts  --      0.0478                 0.1315                 0.2586
 IR Inten    --      9.0751                34.6385                 3.8223

                      4                      5                      6
                     A2                     B1                     A2
 Frequencies --    356.2285               545.6980               546.0149
 Red. masses --      7.4918                 1.2411                 1.1982
 Frc consts  --      0.5601                 0.2177                 0.2105
 IR Inten    --      0.0000               105.0424                 0.0000

                      7                      8                      9
                     A1                     B1                     B2
 Frequencies --    559.8467               610.9191               734.3398
 Red. masses --      4.3228                 2.0514                 1.3482
 Frc consts  --      0.7983                 0.4511                 0.4284
 IR Inten    --      8.5946                 6.9563                 2.9253

                     10                     11                     12
                     A1                     A1                     B2
 Frequencies --    741.1906               873.9758              1038.9471
 Red. masses --      1.4731                 7.0409                 1.3273
 Frc consts  --      0.4768                 3.1686                 0.8441
 IR Inten    --     16.2180                 6.8862                 2.1606

                     13                     14                     15
                     B2                     B2                     A1
 Frequencies --   1329.1991              1750.7551              1893.9456
 Red. masses --      3.7896                 7.2268                 6.7449
 Frc consts  --      3.9448                13.0511                14.2548
 IR Inten    --     50.4320                40.4908                 2.1889

                     16                     17                     18
                     A1                     B2                     A1
 Frequencies --   2841.5845              3206.8006              3217.1101
 Red. masses --      1.0766                 1.1344                 1.1421
 Frc consts  --      5.1218                 6.8730                 6.9643
 IR Inten    --    325.5944               840.5922                74.4044

 - Thermochemistry -
 -------------------
 Temperature   298.150 Kelvin.  Pressure   1.00000 Atm.
 Atom     1 has atomic number  6 and mass  12.00000

 Molecular mass:    63.02348 amu.
 Principal axes and moments of inertia in atomic units:
                           1         2         3
     Eigenvalues --    47.21217 716.50955 763.72171
           X            0.00000   0.00000   1.00000
           Y            1.00000   0.00000   0.00000
           Z           -0.00000   1.00000  -0.00000
 This molecule is an asymmetric top.
 Rotational symmetry number  2.
 Rotational temperatures (Kelvin)      1.83457     0.12088     0.11341
 Rotational constants (GHZ):          38.22619     2.51880     2.36309
 Zero-point vibrational energy     125939.5 (Joules/Mol)
                                   30.10025 (Kcal/Mol)
 Warning -- explicit consideration of   8 degrees of freedom as
           vibrations may cause significant error
 Vibrational temperatures:    209.54   445.64   508.61   512.53   785.14
          (Kelvin)            785.59   805.49   878.98  1056.55  1066.41
                             1257.45  1494.81  1912.42  2518.94  2724.96
                             4088.40  4613.87  4628.70

 Zero-point correction=                           0.047968 (Hartree/Particle)
 Thermal correction to Energy=                    0.053594
 Thermal correction to Enthalpy=                  0.054538
 Thermal correction to Gibbs Free Energy=         0.019513
 Sum of electronic and zero-point Energies=           -191.223032
 Sum of electronic and thermal Energies=              -191.217406
 Sum of electronic and thermal Enthalpies=            -191.216462
 Sum of electronic and thermal Free Energies=         -191.251487

                     E (Thermal)             CV                S
                      KCal/Mol        Cal/Mol-Kelvin    Cal/Mol-Kelvin
 Total                   33.631             19.653             73.717
 Electronic               0.000              0.000              2.755
 Translational            0.889              2.981             38.342
 Rotational               0.889              2.981             23.384
 Vibrational             31.853             13.691              9.236
 Vibration     1          0.617              1.907              2.728
 Vibration     2          0.699              1.655              1.364
 Vibration     3          0.730              1.568              1.151
 Vibration     4          0.732              1.562              1.139
 Vibration     5          0.901              1.149              0.553
 Vibration     6          0.901              1.148              0.552
 Vibration     7          0.915              1.118              0.524
 Vibration     8          0.970              1.009              0.431

 Optimization completed.
    -- Stationary point found.
 Normal termination of Gaussian 09 at Tue Jul 19 13:10:00 2016.
