 Gaussian 09, Revision E.01,
 Gaussian 09:  EM64L-G09RevE.01 30-Nov-2015

 ---------------------------------------------
 #p b3lyp/6-311++G(3df,2p) freq symmetry=Loose
 ---------------------------------------------

 ---------
 b3lyp opt
 ---------
 Symbolic Z-matrix:
 Charge =  2 Multiplicity = 4

                         Standard orientation:
 ---------------------------------------------------------------------
 Center     Atomic      Atomic             Coordinates (Angstroms)
 Number     Number       Type             X           Y           Z
 ---------------------------------------------------------------------
      1          6           0        2.150065   -0.803469    0.000000
      2          1           0        3.051197   -1.408576    0.000000
      3          6           0        1.117480   -0.111862    0.000000
      4          6           0       -1.325488    0.174577   -0.000000
      5          6           0       -2.484301   -0.304961   -0.000000
      6          6           0        0.000000    0.791556   -0.000000
      7          1           0        0.101133    1.466765    0.882972
      8          1           0        0.101133    1.466765   -0.882972
 ---------------------------------------------------------------------

 SCF Done:  E(UB3LYP) =  -191.181882254     A.U. after   22 cycles

 The electronic state is 4-A".
 Alpha  occ. eigenvalues --  -10.78549 -10.74914 -10.71479 -10.70817 -10.69695
 Alpha  occ. eigenvalues --   -1.32650  -1.28120  -1.21789  -1.03253  -0.97538
 Alpha  occ. eigenvalues --   -0.94946  -0.92557  -0.87831  -0.82502  -0.80303
 Alpha  occ. eigenvalues --   -0.77083  -0.76608
 Alpha virt. eigenvalues --   -0.49334  -0.45945  -0.45506  -0.43790  -0.34986
 Alpha virt. eigenvalues --   -0.28888  -0.27361  -0.27139  -0.26791  -0.25507
 Alpha virt. eigenvalues --   -0.23112  -0.22206  -0.21331  -0.20354  -0.20286

  Beta  occ. eigenvalues --  -10.75321 -10.74084 -10.70779 -10.69987 -10.69656
  Beta  occ. eigenvalues --   -1.30081  -1.23257  -1.18510  -1.01617  -0.96340
  Beta  occ. eigenvalues --   -0.93505  -0.90938  -0.75937  -0.75476
  Beta virt. eigenvalues --   -0.66755  -0.65221  -0.63493  -0.43502  -0.42301
  Beta virt. eigenvalues --   -0.40037  -0.39493  -0.34306  -0.27701  -0.26775
  Beta virt. eigenvalues --   -0.26643  -0.26240  -0.25054  -0.22465  -0.21641

 Mulliken charges and spin densities:
               1          2
     1  C    0.567935   0.399148
     2  H    0.435541  -0.013815
     3  C    0.050642   0.459121
     4  C    0.617038   0.413602
     5  C    0.469197   1.536875
     6  C   -0.739668   0.107196
     7  H    0.299658   0.048936
     8  H    0.299658   0.048936
 Sum of Mulliken charges =   2.00000   3.00000

 Dipole moment (field-independent basis, Debye):
    X=              0.1426    Y=             -0.3736    Z=             -0.0000  Tot=              0.3999
 Quadrupole moment (field-independent basis, Debye-Ang):
   XX=             16.5091   YY=            -15.0178   ZZ=            -22.7562
   XY=             -6.6932   XZ=             -0.0000   YZ=             -0.0000

  Exact polarizability:  80.331  -8.919  38.023  -0.000   0.000  29.656
 Approx polarizability: 126.129 -13.607  60.572   0.000   0.000  40.243

                      1                      2                      3
                     A'                     A"                     A"
 Frequencies --    128.7837               248.0014               310.6259
 Red. masses --      5.7120                 3.4356                 2.7708
 Frc consts  --      0.0558                 0.1245                 0.1575
 IR Inten    --      3.4225                 6.1389                15.5562

                      4                      5                      6
                     A'                     A'                     A"
 Frequencies --    340.7502               547.6081               715.6846
 Red. masses --      5.9414                 9.9316                 1.3648
 Frc consts  --      0.4065                 1.7547                 0.4119
 IR Inten    --     13.5844                 7.8018                 0.0665

                      7                      8                      9
                     A'                     A"                     A'
 Frequencies --    731.6977               799.4587               830.3755
 Red. masses --      1.2565                 1.9013                 7.0914
 Frc consts  --      0.3964                 0.7160                 2.8809
 IR Inten    --     40.7215                22.8839                39.4623

                     10                     11                     12
                     A'                     A"                     A'
 Frequencies --    959.8677              1174.3079              1251.0955
 Red. masses --      2.7830                 1.0920                 1.1833
 Frc consts  --      1.5107                 0.8873                 1.0913
 IR Inten    --     23.0738                 0.2840                94.5342

                     13                     14                     15
                     A'                     A'                     A'
 Frequencies --   1303.3981              2010.2579              2053.9912
 Red. masses --      1.3501                10.6749                 6.3932
 Frc consts  --      1.3514                25.4165                15.8915
 IR Inten    --     18.8850                78.2888                56.9505

                     16                     17                     18
                     A'                     A"                     A'
 Frequencies --   2818.9492              2847.3422              3239.8542
 Red. masses --      1.0554                 1.0936                 1.1634
 Frc consts  --      4.9414                 5.2239                 7.1950
 IR Inten    --    300.4955               135.6877               318.6514

 - Thermochemistry -
 -------------------
 Temperature   298.150 Kelvin.  Pressure   1.00000 Atm.
 Atom     1 has atomic number  6 and mass  12.00000

 Molecular mass:    63.02348 amu.
 Principal axes and moments of inertia in atomic units:
                           1         2         3
     Eigenvalues --    79.16573 639.26306 707.20506
           X            0.99168   0.12875   0.00000
           Y           -0.12875   0.99168   0.00000
           Z           -0.00000  -0.00000   1.00000
 This molecule is an asymmetric top.
 Rotational symmetry number  1.
 Rotational temperatures (Kelvin)      1.09408     0.13549     0.12247
 Rotational constants (GHZ):          22.79700     2.82316     2.55193
 Zero-point vibrational energy     133455.7 (Joules/Mol)
                                   31.89668 (Kcal/Mol)
 Warning -- explicit consideration of   5 degrees of freedom as
           vibrations may cause significant error
 Vibrational temperatures:    185.29   356.82   446.92   490.26   787.88
          (Kelvin)           1029.71  1052.75  1150.24  1194.72  1381.03
                             1689.57  1800.05  1875.30  2892.31  2955.23
                             4055.83  4096.69  4661.42

 Zero-point correction=                           0.050831 (Hartree/Particle)
 Thermal correction to Energy=                    0.056246
 Thermal correction to Enthalpy=                  0.057190
 Thermal correction to Gibbs Free Energy=         0.021472
 Sum of electronic and zero-point Energies=           -191.131052
 Sum of electronic and thermal Energies=              -191.125636
 Sum of electronic and thermal Enthalpies=            -191.124692
 Sum of electronic and thermal Free Energies=         -191.160411

                     E (Thermal)             CV                S
                      KCal/Mol        Cal/Mol-Kelvin    Cal/Mol-Kelvin
 Total                   35.295             17.855             75.176
 Electronic               0.000              0.000              2.755
 Translational            0.889              2.981             38.342
 Rotational               0.889              2.981             25.085
 Vibrational             33.518             11.894              8.995
 Vibration     1          0.611              1.924              2.964
 Vibration     2          0.662              1.766              1.745
 Vibration     3          0.699              1.653              1.359
 Vibration     4          0.720              1.594              1.209
 Vibration     5          0.903              1.145              0.549

 Normal termination of Gaussian 09 at Tue Jul 19 14:34:14 2016.
