 Gaussian 09, Revision E.01,
 Gaussian 09:  EM64L-G09RevE.01 30-Nov-2015

 ---------------------------------------------
 #p b3lyp/6-311++G(3df,2p) freq symmetry=Loose
 ---------------------------------------------

 ---------
 b3lyp opt
 ---------
 Symbolic Z-matrix:
 Charge =  1 Multiplicity = 1

                         Standard orientation:
 ---------------------------------------------------------------------
 Center     Atomic      Atomic             Coordinates (Angstroms)
 Number     Number       Type             X           Y           Z
 ---------------------------------------------------------------------
      1          6           0        1.077241   -0.156573    0.001678
      2          6           0        0.000102   -0.450335   -0.939391
      3          6           0       -1.077242   -0.156573    0.001445
      4          6           0       -0.000103   -0.429641    0.948733
      5          1           0        2.152213   -0.096563    0.001225
      6          1           0       -2.152213   -0.096563    0.000759
      7          1           0        0.000002    1.974507   -0.019128
      8          6           0        0.000001    0.896225   -0.009607
 ---------------------------------------------------------------------

 SCF Done:  E(RB3LYP) =  -191.823073783     A.U. after   11 cycles

 The electronic state is 1-A.
 Alpha  occ. eigenvalues --  -10.51732 -10.51726 -10.51588 -10.51520 -10.51507
 Alpha  occ. eigenvalues --   -1.33340  -0.99243  -0.90947  -0.89317  -0.82050
 Alpha  occ. eigenvalues --   -0.71599  -0.71407  -0.68269  -0.62747  -0.55443
 Alpha  occ. eigenvalues --   -0.53814
 Alpha virt. eigenvalues --   -0.33873  -0.25415  -0.19118  -0.16855  -0.15103
 Alpha virt. eigenvalues --   -0.14965  -0.14028  -0.12242  -0.10524  -0.08373
 Alpha virt. eigenvalues --   -0.08332  -0.07371  -0.05890  -0.05637  -0.05367

 Mulliken charges:
               1
     1  C    0.540002
     2  C   -0.584940
     3  C    0.540002
     4  C   -0.584073
     5  H    0.345087
     6  H    0.345087
     7  H    0.342860
     8  C    0.055975
 Sum of Mulliken charges =   1.00000

 Dipole moment (field-independent basis, Debye):
    X=              0.0000    Y=              1.8896    Z=             -0.0195  Tot=              1.8897
 Quadrupole moment (field-independent basis, Debye-Ang):
   XX=            -14.9827   YY=            -22.4558   ZZ=            -27.8476
   XY=              0.0000   XZ=              0.0014   YZ=             -0.0498

  Exact polarizability:  39.957  -0.000  37.623   0.001   0.079  44.490
 Approx polarizability:  63.468  -0.000  70.088  -0.006   0.544 118.483

                      1                      2                      3
                      A                      A                      A
 Frequencies --    371.1925               465.4336               587.5354
 Red. masses --      9.8244                 7.8631                 6.5688
 Frc consts  --      0.7975                 1.0036                 1.3360
 IR Inten    --     11.3000                86.2326                16.1274

                      4                      5                      6
                      A                      A                      A
 Frequencies --    753.4680               831.2108               852.2292
 Red. masses --      1.3811                 3.1978                 8.2442
 Frc consts  --      0.4619                 1.3018                 3.5279
 IR Inten    --     31.5856                12.7543                 0.0001

                      7                      8                      9
                      A                      A                      A
 Frequencies --    889.5519               899.7797               964.5910
 Red. masses --      1.1072                 1.9128                 1.6492
 Frc consts  --      0.5162                 0.9124                 0.9041
 IR Inten    --      1.8717                27.4723                 0.8963

                     10                     11                     12
                      A                      A                      A
 Frequencies --   1031.7601              1041.0164              1147.3436
 Red. masses --      1.3258                 1.2355                 1.7913
 Frc consts  --      0.8316                 0.7888                 1.3894
 IR Inten    --      2.7642                 0.0000                18.5711

                     13                     14                     15
                      A                      A                      A
 Frequencies --   1162.3375              1321.3812              1352.2011
 Red. masses --      2.7833                 5.9582                 5.9245
 Frc consts  --      2.2155                 6.1294                 6.3824
 IR Inten    --     10.4948                 0.0829                43.5626

                     16                     17                     18
                      A                      A                      A
 Frequencies --   3251.3079              3285.0741              3291.5059
 Red. masses --      1.1022                 1.1064                 1.1177
 Frc consts  --      6.8647                 7.0345                 7.1343
 IR Inten    --    118.6004               161.4669                 2.3787

 - Thermochemistry -
 -------------------
 Temperature   298.150 Kelvin.  Pressure   1.00000 Atm.
 Atom     1 has atomic number  6 and mass  12.00000

 Molecular mass:    63.02348 amu.
 Principal axes and moments of inertia in atomic units:
                           1         2         3
     Eigenvalues --   143.43631 199.83998 209.19300
           X            1.00000  -0.00011   0.00000
           Y           -0.00000   0.01457   0.99989
           Z            0.00011   0.99989  -0.01457
 This molecule is an asymmetric top.
 Rotational symmetry number  1.
 Rotational temperatures (Kelvin)      0.60385     0.43342     0.41404
 Rotational constants (GHZ):          12.58218     9.03093     8.62716
 Zero-point vibrational energy     140554.8 (Joules/Mol)
                                   33.59339 (Kcal/Mol)
 Warning -- explicit consideration of   3 degrees of freedom as
           vibrations may cause significant error
 Vibrational temperatures:    534.06   669.65   845.33  1084.07  1195.93
          (Kelvin)           1226.17  1279.87  1294.58  1387.83  1484.47
                             1497.79  1650.77  1672.34  1901.17  1945.51
                             4677.90  4726.48  4735.74

 Zero-point correction=                           0.053534 (Hartree/Particle)
 Thermal correction to Energy=                    0.057627
 Thermal correction to Enthalpy=                  0.058571
 Thermal correction to Gibbs Free Energy=         0.027568
 Sum of electronic and zero-point Energies=           -191.769539
 Sum of electronic and thermal Energies=              -191.765447
 Sum of electronic and thermal Enthalpies=            -191.764503
 Sum of electronic and thermal Free Energies=         -191.795506

                     E (Thermal)             CV                S
                      KCal/Mol        Cal/Mol-Kelvin    Cal/Mol-Kelvin
 Total                   36.161             14.624             65.251
 Electronic               0.000              0.000              0.000
 Translational            0.889              2.981             38.342
 Rotational               0.889              2.981             23.310
 Vibrational             34.384              8.662              3.599
 Vibration     1          0.743              1.531              1.075
 Vibration     2          0.823              1.327              0.750
 Vibration     3          0.945              1.058              0.472

 Optimization completed.
    -- Stationary point found.
 Normal termination of Gaussian 09 at Tue Jul 19 17:43:47 2016.
