 Gaussian 09, Revision E.01,
 Gaussian 09:  EM64L-G09RevE.01 30-Nov-2015

 ---------------------------------------------
 #p b3lyp/6-311++G(3df,2p) freq symmetry=Loose
 ---------------------------------------------

 ---------
 b3lyp opt
 ---------
 Symbolic Z-matrix:
 Charge =  2 Multiplicity = 2

                         Standard orientation:
 ---------------------------------------------------------------------
 Center     Atomic      Atomic             Coordinates (Angstroms)
 Number     Number       Type             X           Y           Z
 ---------------------------------------------------------------------
      1          6           0        2.171253   -0.835642    0.000000
      2          1           0        3.072149   -1.441924    0.000000
      3          6           0        1.134180   -0.147628    0.000000
      4          6           0       -1.329231    0.187977    0.000000
      5          6           0       -2.518702   -0.192940    0.000000
      6          6           0       -0.000000    0.737581    0.000000
      7          1           0        0.091427    1.472914    0.844347
      8          1           0        0.091427    1.472914   -0.844347
 ---------------------------------------------------------------------

 SCF Done:  E(UB3LYP) =  -191.188967712     A.U. after   24 cycles

 The electronic state is 2-A'.
 Alpha  occ. eigenvalues --  -10.77300 -10.73109 -10.70858 -10.70448 -10.70079
 Alpha  occ. eigenvalues --   -1.31684  -1.26009  -1.19944  -1.02959  -0.97195
 Alpha  occ. eigenvalues --   -0.94847  -0.91481  -0.86910  -0.80307  -0.78313
 Alpha  occ. eigenvalues --   -0.75747
 Alpha virt. eigenvalues --   -0.65527  -0.47131  -0.45942  -0.42962  -0.40610
 Alpha virt. eigenvalues --   -0.34490  -0.27984  -0.27227  -0.26989  -0.26571
 Alpha virt. eigenvalues --   -0.25327  -0.22931  -0.21594  -0.20955  -0.20056

  Beta  occ. eigenvalues --  -10.74082 -10.72410 -10.71557 -10.71229 -10.70024
  Beta  occ. eigenvalues --   -1.31166  -1.25232  -1.19244  -1.02934  -0.97366
  Beta  occ. eigenvalues --   -0.95107  -0.91303  -0.78937  -0.76816  -0.75887
  Beta virt. eigenvalues --   -0.65389  -0.62506  -0.45873  -0.44538  -0.41704
  Beta virt. eigenvalues --   -0.39037  -0.34507  -0.28762  -0.27066  -0.26985
  Beta virt. eigenvalues --   -0.26380  -0.25245  -0.22969  -0.21345  -0.20709

 Mulliken charges and spin densities:
               1          2
     1  C    0.641838  -0.418020
     2  H    0.437359   0.013646
     3  C    0.130296  -0.478484
     4  C    0.662859   0.331920
     5  C    0.397504   1.508659
     6  C   -0.885634   0.041575
     7  H    0.307888   0.000352
     8  H    0.307888   0.000352
 Sum of Mulliken charges =   2.00000   1.00000

 Dipole moment (field-independent basis, Debye):
    X=              0.6684    Y=             -0.1187    Z=             -0.0000  Tot=              0.6789
 Quadrupole moment (field-independent basis, Debye-Ang):
   XX=             16.6947   YY=            -15.8600   ZZ=            -21.4193
   XY=             -7.4759   XZ=             -0.0000   YZ=             -0.0000

  Exact polarizability:  78.386  -7.604  39.329   0.000  -0.000  26.886
 Approx polarizability: 119.702  -8.802  58.671   0.000   0.000  39.567

                      1                      2                      3
                     A'                     A"                     A'
 Frequencies --    141.0230               280.2369               295.6794
 Red. masses --      5.8581                 1.8838                 6.1788
 Frc consts  --      0.0686                 0.0872                 0.3183
 IR Inten    --      3.2533                33.6595                 7.9203

                      4                      5                      6
                     A"                     A'                     A"
 Frequencies --    354.7412               539.6700               662.8597
 Red. masses --      4.4032                 9.2489                 2.2547
 Frc consts  --      0.3265                 1.5871                 0.5837
 IR Inten    --      0.0402                 8.0427                11.4825

                      7                      8                      9
                     A'                     A"                     A'
 Frequencies --    726.0597               772.3912               822.2441
 Red. masses --      1.2559                 1.4683                 7.7435
 Frc consts  --      0.3901                 0.5161                 3.0845
 IR Inten    --     44.3230                21.5200                17.2208

                     10                     11                     12
                     A'                     A"                     A'
 Frequencies --    959.2226              1068.6992              1151.6909
 Red. masses --      2.3414                 1.1035                 1.0412
 Frc consts  --      1.2693                 0.7426                 0.8137
 IR Inten    --     18.3764                 0.0923               141.9855

                     13                     14                     15
                     A'                     A'                     A'
 Frequencies --   1294.8782              2043.6705              2068.1105
 Red. masses --      1.7314                 6.9415                 9.3849
 Frc consts  --      1.7104                17.0814                23.6497
 IR Inten    --     13.7230                76.3239                 4.2441

                     16                     17                     18
                     A"                     A'                     A'
 Frequencies --   2737.7619              2776.6103              3235.8606
 Red. masses --      1.0742                 1.0613                 1.1639
 Frc consts  --      4.7440                 4.8207                 7.1805
 IR Inten    --    186.3258               303.8139               335.7949

 - Thermochemistry -
 -------------------
 Temperature   298.150 Kelvin.  Pressure   1.00000 Atm.
 Atom     1 has atomic number  6 and mass  12.00000

 Molecular mass:    63.02348 amu.
 Principal axes and moments of inertia in atomic units:
                           1         2         3
     Eigenvalues --    71.20796 657.45887 718.40358
           X            0.98784   0.15551   0.00000
           Y           -0.15551   0.98784   0.00000
           Z            0.00000  -0.00000   1.00000
 This molecule is an asymmetric top.
 Rotational symmetry number  1.
 Rotational temperatures (Kelvin)      1.21635     0.13174     0.12056
 Rotational constants (GHZ):          25.34465     2.74503     2.51216
 Zero-point vibrational energy     131179.0 (Joules/Mol)
                                   31.35252 (Kcal/Mol)
 Warning -- explicit consideration of   5 degrees of freedom as
           vibrations may cause significant error
 Vibrational temperatures:    202.90   403.20   425.42   510.39   776.46
          (Kelvin)            953.71  1044.64  1111.30  1183.02  1380.11
                             1537.62  1657.02  1863.04  2940.38  2975.55
                             3939.02  3994.92  4655.68

 Zero-point correction=                           0.049963 (Hartree/Particle)
 Thermal correction to Energy=                    0.055373
 Thermal correction to Enthalpy=                  0.056317
 Thermal correction to Gibbs Free Energy=         0.021381
 Sum of electronic and zero-point Energies=           -191.139004
 Sum of electronic and thermal Energies=              -191.133595
 Sum of electronic and thermal Enthalpies=            -191.132651
 Sum of electronic and thermal Free Energies=         -191.167587

                     E (Thermal)             CV                S
                      KCal/Mol        Cal/Mol-Kelvin    Cal/Mol-Kelvin
 Total                   34.747             18.130             73.529
 Electronic               0.000              0.000              1.377
 Translational            0.889              2.981             38.342
 Rotational               0.889              2.981             25.023
 Vibrational             32.969             12.168              8.787
 Vibration     1          0.615              1.912              2.790
 Vibration     2          0.680              1.710              1.532
 Vibration     3          0.690              1.682              1.441
 Vibration     4          0.731              1.566              1.145
 Vibration     5          0.895              1.162              0.566

 Optimization completed.
    -- Stationary point found.
 Normal termination of Gaussian 09 at Sun Jun 19 11:35:18 2016.
