 Gaussian 09, Revision E.01,
 Gaussian 09:  EM64L-G09RevE.01 30-Nov-2015

 ---------------------------------------------
 #p b3lyp/6-311++G(3df,2p) freq symmetry=Loose
 ---------------------------------------------

 ---------
 b3lyp opt
 ---------
 Symbolic Z-matrix:
 Charge =  1 Multiplicity = 3

                         Standard orientation:
 ---------------------------------------------------------------------
 Center     Atomic      Atomic             Coordinates (Angstroms)
 Number     Number       Type             X           Y           Z
 ---------------------------------------------------------------------
      1          6           0       -1.191227   -1.848418    0.000000
      2          1           0       -0.307659   -2.469424    0.000000
      3          1           0       -2.159999   -2.324536    0.000000
      4          6           0       -1.113726   -0.481852    0.000000
      5          1           0       -2.028521    0.122472    0.000000
      6          6           0        0.000000    0.274985    0.000000
      7          6           0        1.027066    1.045459    0.000000
      8          6           0        2.027250    1.788406    0.000000
 ---------------------------------------------------------------------

 SCF Done:  E(UB3LYP) =  -191.797441864     A.U. after   18 cycles

 The electronic state is 3-A".
 Alpha  occ. eigenvalues --  -10.54535 -10.51048 -10.45822 -10.43220 -10.41420
 Alpha  occ. eigenvalues --   -1.08648  -1.03631  -0.95431  -0.86368  -0.73518
 Alpha  occ. eigenvalues --   -0.68006  -0.66603  -0.63376  -0.61025  -0.59097
 Alpha  occ. eigenvalues --   -0.54978  -0.44902
 Alpha virt. eigenvalues --   -0.39414  -0.24584  -0.16515  -0.14330  -0.12227
 Alpha virt. eigenvalues --   -0.11089  -0.10894  -0.09161  -0.08758  -0.07189
 Alpha virt. eigenvalues --   -0.06333  -0.05571  -0.05370  -0.04537  -0.02642

  Beta  occ. eigenvalues --  -10.51482 -10.50439 -10.45904 -10.43469 -10.40698
  Beta  occ. eigenvalues --   -1.07636  -1.02001  -0.92608  -0.85224  -0.73428
  Beta  occ. eigenvalues --   -0.67630  -0.60693  -0.60601  -0.58091  -0.51290
  Beta virt. eigenvalues --   -0.43064  -0.36551  -0.33742  -0.21089  -0.15649
  Beta virt. eigenvalues --   -0.13399  -0.12176  -0.10625  -0.09572  -0.08099
  Beta virt. eigenvalues --   -0.08056  -0.06798  -0.06162  -0.04908  -0.04569

 Mulliken charges and spin densities:
               1          2
     1  C   -0.509559   0.496442
     2  H    0.198317  -0.013309
     3  H    0.233761  -0.015842
     4  C    0.394327  -0.149620
     5  H    0.210884  -0.004462
     6  C   -0.298598   0.279883
     7  C    0.592844  -0.118983
     8  C    0.178025   1.525890
 Sum of Mulliken charges =   1.00000   2.00000

 Dipole moment (field-independent basis, Debye):
    X=              0.5235    Y=              0.6856    Z=              0.0000  Tot=              0.8626
 Quadrupole moment (field-independent basis, Debye-Ang):
   XX=            -10.8022   YY=            -12.0912   ZZ=            -28.6205
   XY=             10.6646   XZ=              0.0000   YZ=              0.0000

  Exact polarizability:  74.201  37.308  76.103  -0.000  -0.000  32.733
 Approx polarizability: 145.146  83.900 135.473  -0.000  -0.000  41.810

                      1                      2                      3
                     A'                     A"                     A'
 Frequencies --    132.3559               179.7178               290.9971
 Red. masses --      4.4521                 3.4767                 6.2432
 Frc consts  --      0.0460                 0.0662                 0.3115
 IR Inten    --      1.4553                 4.8864                 2.2297

                      4                      5                      6
                     A"                     A"                     A'
 Frequencies --    301.2791               594.5654               624.6999
 Red. masses --      8.8064                 1.6750                 5.1601
 Frc consts  --      0.4710                 0.3489                 1.1864
 IR Inten    --      5.4039                 1.0483                 2.8008

                      7                      8                      9
                     A'                     A"                     A"
 Frequencies --    813.5493               879.5834               983.2414
 Red. masses --      3.8153                 1.1862                 1.2917
 Frc consts  --      1.4878                 0.5407                 0.7358
 IR Inten    --      3.6241                26.3095                37.6457

                     10                     11                     12
                     A'                     A'                     A'
 Frequencies --   1027.2900              1230.6434              1354.8350
 Red. masses --      1.3150                 1.5275                 2.4966
 Frc consts  --      0.8176                 1.3630                 2.7001
 IR Inten    --      4.1098                 7.9935                47.0088

                     13                     14                     15
                     A'                     A'                     A'
 Frequencies --   1505.9275              1634.5248              1962.9299
 Red. masses --      1.3403                 9.8373                11.7202
 Frc consts  --      1.7909                15.4850                26.6069
 IR Inten    --     20.2891                83.2963               264.4384

                     16                     17                     18
                     A'                     A'                     A'
 Frequencies --   3036.0640              3163.1803              3273.2299
 Red. masses --      1.0804                 1.0547                 1.1217
 Frc consts  --      5.8676                 6.2176                 7.0808
 IR Inten    --     89.3737                14.1050                11.7099

 - Thermochemistry -
 -------------------
 Temperature   298.150 Kelvin.  Pressure   1.00000 Atm.
 Atom     1 has atomic number  6 and mass  12.00000

 Molecular mass:    63.02348 amu.
 Principal axes and moments of inertia in atomic units:
                           1         2         3
     Eigenvalues --    37.32664 712.49960 749.82625
           X            0.69781   0.71628   0.00000
           Y            0.71628  -0.69781   0.00000
           Z            0.00000  -0.00000   1.00000
 This molecule is an asymmetric top.
 Rotational symmetry number  1.
 Rotational temperatures (Kelvin)      2.32043     0.12156     0.11551
 Rotational constants (GHZ):          48.34995     2.53297     2.40688
 Zero-point vibrational energy     137502.4 (Joules/Mol)
                                   32.86387 (Kcal/Mol)
 Warning -- explicit consideration of   5 degrees of freedom as
           vibrations may cause significant error
 Vibrational temperatures:    190.43   258.57   418.68   433.47   855.45
          (Kelvin)            898.80  1170.51  1265.52  1414.66  1478.04
                             1770.62  1949.30  2166.69  2351.71  2824.21
                             4368.21  4551.11  4709.44

 Zero-point correction=                           0.052372 (Hartree/Particle)
 Thermal correction to Energy=                    0.057870
 Thermal correction to Enthalpy=                  0.058814
 Thermal correction to Gibbs Free Energy=         0.023356
 Sum of electronic and zero-point Energies=           -191.745070
 Sum of electronic and thermal Energies=              -191.739572
 Sum of electronic and thermal Enthalpies=            -191.738628
 Sum of electronic and thermal Free Energies=         -191.774086

                     E (Thermal)             CV                S
                      KCal/Mol        Cal/Mol-Kelvin    Cal/Mol-Kelvin
 Total                   36.314             17.479             74.628
 Electronic               0.000              0.000              2.183
 Translational            0.889              2.981             38.342
 Rotational               0.889              2.981             24.504
 Vibrational             34.536             11.517              9.599
 Vibration     1          0.612              1.921              2.912
 Vibration     2          0.629              1.867              2.331
 Vibration     3          0.687              1.690              1.468
 Vibration     4          0.693              1.671              1.410
 Vibration     5          0.952              1.043              0.459

 Optimization completed.
    -- Stationary point found.
 Normal termination of Gaussian 09 at Sun Jun 19 10:48:23 2016.
