 Gaussian 09, Revision E.01,
 Gaussian 09:  EM64L-G09RevE.01 30-Nov-2015

 ---------------------------------------------
 #p b3lyp/6-311++G(3df,2p) freq symmetry=Loose
 ---------------------------------------------

 ---------
 b3lyp opt
 ---------
 Symbolic Z-matrix:
 Charge =  3 Multiplicity = 3

                         Standard orientation:
 ---------------------------------------------------------------------
 Center     Atomic      Atomic             Coordinates (Angstroms)
 Number     Number       Type             X           Y           Z
 ---------------------------------------------------------------------
      1          6           0       -0.434299    0.792863    0.027484
      2          1           0       -2.334632    0.144716   -0.932783
      3          6           0        0.725798   -0.000237   -0.005855
      4          6           0        2.109608   -0.015557    0.014841
      5          1           0        3.235040    0.054791   -0.047774
      6          6           0       -0.440861   -0.785014   -0.030123
      7          6           0       -1.721948   -0.001568    0.000706
      8          1           0       -2.330201   -0.142436    0.938235
 ---------------------------------------------------------------------

 SCF Done:  E(UB3LYP) =  -190.355717080     A.U. after   24 cycles

 The electronic state is 3-A.
 Alpha  occ. eigenvalues --  -11.11732 -11.11697 -11.07692 -11.03758 -10.96982
 Alpha  occ. eigenvalues --   -1.76404  -1.54202  -1.43807  -1.34468  -1.25340
 Alpha  occ. eigenvalues --   -1.21081  -1.19531  -1.17852  -1.11491  -1.08933
 Alpha  occ. eigenvalues --   -1.00035
 Alpha virt. eigenvalues --   -0.90351  -0.85317  -0.78491  -0.70779  -0.61053
 Alpha virt. eigenvalues --   -0.53884  -0.52399  -0.51146  -0.45740  -0.45232
 Alpha virt. eigenvalues --   -0.44455  -0.44415  -0.40854  -0.40457  -0.40142

  Beta  occ. eigenvalues --  -11.10248 -11.10230 -11.06198 -11.04026 -10.97048
  Beta  occ. eigenvalues --   -1.75023  -1.52492  -1.41988  -1.29574  -1.23878
  Beta  occ. eigenvalues --   -1.19776  -1.18755  -1.16177  -1.07689
  Beta virt. eigenvalues --   -0.94848  -0.88464  -0.85027  -0.81294  -0.71927
  Beta virt. eigenvalues --   -0.68307  -0.59381  -0.52775  -0.51989  -0.50304
  Beta virt. eigenvalues --   -0.45464  -0.44280  -0.43475  -0.42736  -0.40385

 Mulliken charges and spin densities:
               1          2
     1  C    1.290269   0.377111
     2  H    0.357946   0.027314
     3  C   -0.035572   0.093293
     4  C    0.034991   1.009851
     5  H    0.519830  -0.017881
     6  C    1.303985   0.370224
     7  C   -0.830865   0.111676
     8  H    0.359415   0.028413
 Sum of Mulliken charges =   3.00000   2.00000

 Dipole moment (field-independent basis, Debye):
    X=              2.4602    Y=              0.0562    Z=             -0.0411  Tot=              2.4612
 Quadrupole moment (field-independent basis, Debye-Ang):
   XX=             30.3566   YY=            -16.5946   ZZ=            -19.2649
   XY=              0.2154   XZ=             -0.2158   YZ=              0.3772

  Exact polarizability:  89.391  -0.997  29.277  -0.516  -0.038  23.655
 Approx polarizability: 143.898  -0.907  66.625   0.429   1.160  35.573

                      1                      2                      3
                      A                      A                      A
 Frequencies --     56.7310               166.7882               249.6844
 Red. masses --      1.3386                 6.8294                 2.2585
 Frc consts  --      0.0025                 0.1119                 0.0830
 IR Inten    --     57.6657                11.5732                40.1735

                      4                      5                      6
                      A                      A                      A
 Frequencies --    395.6053               445.4751               499.8904
 Red. masses --      4.1232                 5.0799                 5.5642
 Frc consts  --      0.3802                 0.5940                 0.8192
 IR Inten    --     18.6427               685.6021                13.2681

                      7                      8                      9
                      A                      A                      A
 Frequencies --    760.4610               848.0759               859.0097
 Red. masses --      3.3248                 1.9638                 1.5159
 Frc consts  --      1.1328                 0.8322                 0.6590
 IR Inten    --      4.1153                 1.4109                63.7097

                     10                     11                     12
                      A                      A                      A
 Frequencies --    938.4542               963.8707              1035.7899
 Red. masses --      1.5477                 2.6244                 9.3175
 Frc consts  --      0.8031                 1.4366                 5.8897
 IR Inten    --      6.4457                 8.9426                 3.9091

                     13                     14                     15
                      A                      A                      A
 Frequencies --   1082.8616              1262.2445              1474.1942
 Red. masses --      1.3012                 1.1575                 5.1165
 Frc consts  --      0.8990                 1.0866                 6.5514
 IR Inten    --     83.7204               422.6841               265.0411

                     16                     17                     18
                      A                      A                      A
 Frequencies --   2671.8352              2770.0855              2792.3218
 Red. masses --      1.0445                 1.1211                 1.1136
 Frc consts  --      4.3932                 5.0687                 5.1157
 IR Inten    --   2082.4402               374.4271               579.2398

 - Thermochemistry -
 -------------------
 Temperature   298.150 Kelvin.  Pressure   1.00000 Atm.
 Atom     1 has atomic number  6 and mass  12.00000

 Molecular mass:    63.02348 amu.
 Principal axes and moments of inertia in atomic units:
                           1         2         3
     Eigenvalues --    59.90415 439.84365 487.00882
           X            1.00000   0.00155  -0.00137
           Y           -0.00158   0.99979  -0.02040
           Z            0.00134   0.02040   0.99979
 This molecule is an asymmetric top.
 Rotational symmetry number  1.
 Rotational temperatures (Kelvin)      1.44587     0.19692     0.17785
 Rotational constants (GHZ):          30.12715     4.10314     3.70577
 Zero-point vibrational energy     115280.4 (Joules/Mol)
                                   27.55268 (Kcal/Mol)
 Warning -- explicit consideration of   6 degrees of freedom as
           vibrations may cause significant error
 Vibrational temperatures:     81.62   239.97   359.24   569.19   640.94
          (Kelvin)            719.23  1094.13  1220.19  1235.92  1350.22
                             1386.79  1490.27  1557.99  1816.09  2121.03
                             3844.17  3985.53  4017.52

 Zero-point correction=                           0.043908 (Hartree/Particle)
 Thermal correction to Energy=                    0.049854
 Thermal correction to Enthalpy=                  0.050798
 Thermal correction to Gibbs Free Energy=         0.014304
 Sum of electronic and zero-point Energies=           -190.311809
 Sum of electronic and thermal Energies=              -190.305863
 Sum of electronic and thermal Enthalpies=            -190.304919
 Sum of electronic and thermal Free Energies=         -190.341413

                     E (Thermal)             CV                S
                      KCal/Mol        Cal/Mol-Kelvin    Cal/Mol-Kelvin
 Total                   31.284             19.289             76.809
 Electronic               0.000              0.000              2.183
 Translational            0.889              2.981             38.342
 Rotational               0.889              2.981             24.066
 Vibrational             29.506             13.328             12.218
 Vibration     1          0.596              1.975              4.568
 Vibration     2          0.624              1.883              2.471
 Vibration     3          0.662              1.763              1.733
 Vibration     4          0.762              1.480              0.979
 Vibration     5          0.805              1.371              0.810
 Vibration     6          0.855              1.250              0.658

 Normal termination of Gaussian 09 at Sun Jun 19 14:44:26 2016.
