 Gaussian 09, Revision E.01,
 Gaussian 09:  EM64L-G09RevE.01 30-Nov-2015

 ---------------------------------------------
 #p b3lyp/6-311++G(3df,2p) freq symmetry=Loose
 ---------------------------------------------

 ---------
 b3lyp opt
 ---------
 Symbolic Z-matrix:
 Charge =  0 Multiplicity = 4

                         Standard orientation:
 ---------------------------------------------------------------------
 Center     Atomic      Atomic             Coordinates (Angstroms)
 Number     Number       Type             X           Y           Z
 ---------------------------------------------------------------------
      1          6           0        0.000000    0.266474    0.000000
      2          6           0       -0.634093   -0.941808    0.000000
      3          1           0       -1.723171   -0.907914    0.000000
      4          6           0        1.051186    1.204081    0.000000
      5          6           0       -0.044124   -2.174677    0.000000
      6          6           0       -0.109697    1.793051    0.000000
      7          1           0        0.953213   -2.580857    0.000000
      8          1           0       -0.809675    2.606046    0.000000
 ---------------------------------------------------------------------

 SCF Done:  E(UB3LYP) =  -192.070137250     A.U. after   16 cycles

 The electronic state is 4-A".
 Alpha  occ. eigenvalues --  -10.24539 -10.24446 -10.24124 -10.19706 -10.19195
 Alpha  occ. eigenvalues --   -0.93703  -0.79564  -0.65050  -0.61246  -0.53084
 Alpha  occ. eigenvalues --   -0.47676  -0.44906  -0.41834  -0.40291  -0.30801
 Alpha  occ. eigenvalues --   -0.27743  -0.25017  -0.17198
 Alpha virt. eigenvalues --   -0.04262  -0.00547   0.00723   0.01691   0.03850
 Alpha virt. eigenvalues --    0.04034   0.05639   0.05941   0.07512   0.08622
 Alpha virt. eigenvalues --    0.08879   0.09056   0.10184   0.10763   0.10783

  Beta  occ. eigenvalues --  -10.23605 -10.23454 -10.23198 -10.19504 -10.17298
  Beta  occ. eigenvalues --   -0.91700  -0.77574  -0.60593  -0.59309  -0.51176
  Beta  occ. eigenvalues --   -0.44346  -0.42401  -0.38938  -0.37357  -0.27800
  Beta virt. eigenvalues --   -0.14616  -0.07909  -0.05838  -0.02184  -0.00457
  Beta virt. eigenvalues --    0.00959   0.01933   0.04363   0.05226   0.06360
  Beta virt. eigenvalues --    0.06673   0.08046   0.09168   0.09612   0.09717

 Mulliken charges and spin densities:
               1          2
     1  C    0.296219   0.515869
     2  C   -0.254979  -0.255665
     3  H    0.147735   0.052659
     4  C   -0.073870   0.693659
     5  C   -0.556586   1.665254
     6  C   -0.003517   0.318023
     7  H    0.188896   0.013697
     8  H    0.256102  -0.003496
 Sum of Mulliken charges =  -0.00000   3.00000

 Dipole moment (field-independent basis, Debye):
    X=             -1.0438    Y=              1.8782    Z=              0.0000  Tot=              2.1488
 Quadrupole moment (field-independent basis, Debye-Ang):
   XX=            -28.3092   YY=            -27.9977   ZZ=            -31.9767
   XY=             -4.2712   XZ=              0.0000   YZ=              0.0000

  Exact polarizability:  54.974   3.553  99.589  -0.000   0.000  39.076
 Approx polarizability:  89.322  -0.190 143.204  -0.000  -0.000  55.243

                      1                      2                      3
                     A"                     A'                     A"
 Frequencies --    176.8092               202.6233               292.9583
 Red. masses --      3.3253                 3.8006                 3.4971
 Frc consts  --      0.0612                 0.0919                 0.1768
 IR Inten    --      9.2703                 4.3095                 0.3414

                      4                      5                      6
                     A'                     A"                     A"
 Frequencies --    463.0348               475.4511               583.6361
 Red. masses --      3.0105                 1.5083                 1.3158
 Frc consts  --      0.3803                 0.2009                 0.2641
 IR Inten    --     11.9998                27.2650                41.7847

                      7                      8                      9
                     A'                     A"                     A'
 Frequencies --    667.2794               782.1148               787.1914
 Red. masses --      4.2360                 1.3459                 3.4215
 Frc consts  --      1.1113                 0.4851                 1.2492
 IR Inten    --     82.0164                28.8084                18.3875

                     10                     11                     12
                     A'                     A'                     A'
 Frequencies --    889.4821               917.8005              1206.2741
 Red. masses --      1.2696                 2.1636                 1.6782
 Frc consts  --      0.5918                 1.0738                 1.4388
 IR Inten    --     69.3206                31.4439                16.6220

                     13                     14                     15
                     A'                     A'                     A'
 Frequencies --   1349.4228              1464.3281              1713.8891
 Red. masses --      2.4714                 9.5978                 7.9338
 Frc consts  --      2.6515                12.1254                13.7308
 IR Inten    --     18.3538                48.3664                34.0849

                     16                     17                     18
                     A'                     A'                     A'
 Frequencies --   3076.9706              3244.9655              3300.7867
 Red. masses --      1.0817                 1.0936                 1.1122
 Frc consts  --      6.0339                 6.7849                 7.1393
 IR Inten    --      1.7821                 1.2766                47.6193

 - Thermochemistry -
 -------------------
 Temperature   298.150 Kelvin.  Pressure   1.00000 Atm.
 Atom     1 has atomic number  6 and mass  12.00000

 Molecular mass:    63.02348 amu.
 Principal axes and moments of inertia in atomic units:
                           1         2         3
     Eigenvalues --    71.49730 504.81399 576.31129
           X            0.15085   0.98856   0.00000
           Y            0.98856  -0.15085   0.00000
           Z            0.00000  -0.00000   1.00000
 This molecule is an asymmetric top.
 Rotational symmetry number  1.
 Rotational temperatures (Kelvin)      1.21143     0.17158     0.15029
 Rotational constants (GHZ):          25.24209     3.57506     3.13154
 Zero-point vibrational energy     129166.9 (Joules/Mol)
                                   30.87163 (Kcal/Mol)
 Warning -- explicit consideration of   6 degrees of freedom as
           vibrations may cause significant error
 Vibrational temperatures:    254.39   291.53   421.50   666.20   684.07
          (Kelvin)            839.72   960.07  1125.29  1132.59  1279.76
                             1320.51  1735.56  1941.52  2106.84  2465.90
                             4427.07  4668.78  4749.09

 Zero-point correction=                           0.049197 (Hartree/Particle)
 Thermal correction to Energy=                    0.054711
 Thermal correction to Enthalpy=                  0.055655
 Thermal correction to Gibbs Free Energy=         0.020175
 Sum of electronic and zero-point Energies=           -192.020940
 Sum of electronic and thermal Energies=              -192.015427
 Sum of electronic and thermal Enthalpies=            -192.014482
 Sum of electronic and thermal Free Energies=         -192.049962

                     E (Thermal)             CV                S
                      KCal/Mol        Cal/Mol-Kelvin    Cal/Mol-Kelvin
 Total                   34.331             18.742             74.673
 Electronic               0.000              0.000              2.755
 Translational            0.889              2.981             38.342
 Rotational               0.889              2.981             24.546
 Vibrational             32.554             12.780              9.031
 Vibration     1          0.628              1.871              2.362
 Vibration     2          0.639              1.836              2.109
 Vibration     3          0.688              1.687              1.457
 Vibration     4          0.821              1.332              0.757
 Vibration     5          0.832              1.305              0.722
 Vibration     6          0.941              1.067              0.479

 Optimization completed.
    -- Stationary point found.
 Normal termination of Gaussian 09 at Sun Jun 19 09:25:24 2016.
