 Gaussian 09, Revision E.01,
 Gaussian 09:  EM64L-G09RevE.01 30-Nov-2015

 ---------------------------------------------
 #p b3lyp/6-311++G(3df,2p) freq symmetry=Loose
 ---------------------------------------------

 ---------
 b3lyp opt
 ---------
 Symbolic Z-matrix:
 Charge =  2 Multiplicity = 4

                         Standard orientation:
 ---------------------------------------------------------------------
 Center     Atomic      Atomic             Coordinates (Angstroms)
 Number     Number       Type             X           Y           Z
 ---------------------------------------------------------------------
      1          6           0       -0.862298    0.736100    0.000090
      2          1           0       -1.261472    1.200957   -0.921822
      3          1           0       -1.261345    1.200881    0.922095
      4          6           0       -1.106123   -0.763445    0.000045
      5          6           0        0.157303   -1.126161   -0.000057
      6          6           0        0.732769    0.863628   -0.000015
      7          1           0        1.235300    1.841553   -0.000010
      8          6           0        1.292935   -0.417354   -0.000106
 ---------------------------------------------------------------------

 SCF Done:  E(UB3LYP) =  -191.160213973     A.U. after   16 cycles

 The electronic state is 4-A.
 Alpha  occ. eigenvalues --  -10.81868 -10.80314 -10.78756 -10.77912 -10.72026
 Alpha  occ. eigenvalues --   -1.45903  -1.28976  -1.22713  -1.10055  -1.00669
 Alpha  occ. eigenvalues --   -0.98215  -0.96648  -0.91174  -0.86227  -0.84090
 Alpha  occ. eigenvalues --   -0.81769  -0.78846
 Alpha virt. eigenvalues --   -0.63347  -0.57989  -0.45273  -0.34649  -0.33363
 Alpha virt. eigenvalues --   -0.30684  -0.29567  -0.29450  -0.27139  -0.25424
 Alpha virt. eigenvalues --   -0.24747  -0.24020  -0.23821  -0.21566  -0.19539

  Beta  occ. eigenvalues --  -10.81624 -10.77799 -10.77001 -10.76707 -10.71866
  Beta  occ. eigenvalues --   -1.42539  -1.24691  -1.20748  -1.07938  -0.99031
  Beta  occ. eigenvalues --   -0.94127  -0.92418  -0.89319  -0.84302
  Beta virt. eigenvalues --   -0.69132  -0.66627  -0.62452  -0.58613  -0.51783
  Beta virt. eigenvalues --   -0.39985  -0.34362  -0.31281  -0.29275  -0.29000
  Beta virt. eigenvalues --   -0.28237  -0.26383  -0.24610  -0.24106  -0.23506

 Mulliken charges and spin densities:
               1          2
     1  C   -0.416866   0.009931
     2  H    0.279929   0.013963
     3  H    0.279929   0.013963
     4  C    0.402591   1.407273
     5  C    0.749461  -0.169668
     6  C    0.061804   0.521273
     7  H    0.319389   0.025935
     8  C    0.323761   1.177330
 Sum of Mulliken charges =   2.00000   3.00000

 Dipole moment (field-independent basis, Debye):
    X=             -0.0659    Y=              0.7546    Z=              0.0000  Tot=              0.7574
 Quadrupole moment (field-independent basis, Debye-Ang):
   XX=            -11.3487   YY=             -9.0177   ZZ=            -22.3625
   XY=              0.3187   XZ=             -0.0007   YZ=              0.0005

  Exact polarizability:  48.858   0.317  45.996  -0.002   0.001  26.168
 Approx polarizability:  99.274   1.511  91.437  -0.004   0.002  38.854

                      1                      2                      3
                      A                      A                      A
 Frequencies --    329.7170               409.7465               514.3870
 Red. masses --      2.0555                 7.7537                 6.9842
 Frc consts  --      0.1317                 0.7670                 1.0888
 IR Inten    --      0.2166                 0.0117                 7.7347

                      4                      5                      6
                      A                      A                      A
 Frequencies --    542.1150               687.8068               705.7397
 Red. masses --     10.6933                 1.2206                 5.4782
 Frc consts  --      1.8516                 0.3402                 1.6076
 IR Inten    --     12.1857                38.7481                 0.4779

                      7                      8                      9
                      A                      A                      A
 Frequencies --    870.6528               884.6781              1068.1855
 Red. masses --      1.7463                 5.7373                 1.1378
 Frc consts  --      0.7799                 2.6456                 0.7649
 IR Inten    --      0.1107                 1.5162                23.5221

                     10                     11                     12
                      A                      A                      A
 Frequencies --   1085.4251              1143.8850              1235.3283
 Red. masses --      1.0961                 1.6907                 2.1460
 Frc consts  --      0.7609                 1.3034                 1.9295
 IR Inten    --      1.8820                16.7455                20.5824

                     13                     14                     15
                      A                      A                      A
 Frequencies --   1300.8393              1308.7637              1541.4733
 Red. masses --      4.8609                 1.6058                 7.9153
 Frc consts  --      4.8463                 1.6205                11.0812
 IR Inten    --     53.8251                25.5409                 0.4128

                     16                     17                     18
                      A                      A                      A
 Frequencies --   2896.1324              2962.5324              3028.7807
 Red. masses --      1.0508                 1.1079                 1.0924
 Frc consts  --      5.1927                 5.7288                 5.9040
 IR Inten    --    247.4383               170.1378               267.6722

 - Thermochemistry -
 -------------------
 Temperature   298.150 Kelvin.  Pressure   1.00000 Atm.
 Atom     1 has atomic number  6 and mass  12.00000

 Molecular mass:    63.02348 amu.
 Principal axes and moments of inertia in atomic units:
                           1         2         3
     Eigenvalues --   169.40581 203.23606 360.40513
           X            0.99608  -0.08841   0.00007
           Y            0.08841   0.99608  -0.00004
           Z           -0.00007   0.00005   1.00000
 This molecule is an asymmetric top.
 Rotational symmetry number  1.
 Rotational temperatures (Kelvin)      0.51128     0.42617     0.24032
 Rotational constants (GHZ):          10.65336     8.88002     5.00753
 Zero-point vibrational energy     134676.7 (Joules/Mol)
                                   32.18851 (Kcal/Mol)
 Warning -- explicit consideration of   4 degrees of freedom as
           vibrations may cause significant error
 Vibrational temperatures:    474.39   589.53   740.09   779.98   989.60
          (Kelvin)           1015.40  1252.67  1272.85  1536.88  1561.68
                             1645.79  1777.36  1871.62  1883.02  2217.83
                             4166.88  4262.42  4357.73

 Zero-point correction=                           0.051296 (Hartree/Particle)
 Thermal correction to Energy=                    0.055683
 Thermal correction to Enthalpy=                  0.056627
 Thermal correction to Gibbs Free Energy=         0.023503
 Sum of electronic and zero-point Energies=           -191.108918
 Sum of electronic and thermal Energies=              -191.104531
 Sum of electronic and thermal Enthalpies=            -191.103587
 Sum of electronic and thermal Free Energies=         -191.136711

                     E (Thermal)             CV                S
                      KCal/Mol        Cal/Mol-Kelvin    Cal/Mol-Kelvin
 Total                   34.941             15.521             69.716
 Electronic               0.000              0.000              2.755
 Translational            0.889              2.981             38.342
 Rotational               0.889              2.981             24.032
 Vibrational             33.164              9.559              4.587
 Vibration     1          0.713              1.616              1.261
 Vibration     2          0.774              1.449              0.928
 Vibration     3          0.869              1.218              0.623
 Vibration     4          0.897              1.157              0.561

 Optimization completed.
    -- Stationary point found.
 Normal termination of Gaussian 09 at Tue Jul 19 16:02:03 2016.
