 Gaussian 09, Revision E.01,
 Gaussian 09:  EM64L-G09RevE.01 30-Nov-2015

 ------------------------------------------------------
 #p b3lyp/6-311++G(3df,2p) freq IOp(2/17=3) IOp(2/18=3)
 ------------------------------------------------------

 ---------
 b3lyp opt
 ---------
 Symbolic Z-matrix:
 Charge =  2 Multiplicity = 2

                         Standard orientation:
 ---------------------------------------------------------------------
 Center     Atomic      Atomic             Coordinates (Angstroms)
 Number     Number       Type             X           Y           Z
 ---------------------------------------------------------------------
      1          6           0        0.000000    0.422151    0.000000
      2          6           0        0.288725   -0.886844    0.000000
      3          6           0        0.273170    1.770157    0.000000
      4          6           0        0.561994   -2.139247    0.000000
      5          6           0       -1.006976    1.471651    0.000000
      6          1           0        1.610780   -2.499605    0.000000
      7          1           0       -0.220345   -2.922940    0.000000
      8          1           0       -2.091920    1.595331    0.000000
 ---------------------------------------------------------------------

 SCF Done:  E(UB3LYP) =  -191.316243345     A.U. after   16 cycles

 The electronic state is 2-A'.
 Alpha  occ. eigenvalues --  -10.76562 -10.76318 -10.75123 -10.74483 -10.69282
 Alpha  occ. eigenvalues --   -1.44597  -1.29649  -1.18484  -1.05478  -0.97563
 Alpha  occ. eigenvalues --   -0.95195  -0.91962  -0.89778  -0.89462  -0.78625
 Alpha  occ. eigenvalues --   -0.77782
 Alpha virt. eigenvalues --   -0.58451  -0.56466  -0.48606  -0.37562  -0.33255
 Alpha virt. eigenvalues --   -0.31384  -0.29760  -0.28637  -0.26265  -0.25567
 Alpha virt. eigenvalues --   -0.25453  -0.22667  -0.21556  -0.20194  -0.19862

  Beta  occ. eigenvalues --  -10.76421 -10.74929 -10.74573 -10.74408 -10.69320
  Beta  occ. eigenvalues --   -1.43854  -1.29110  -1.17910  -1.04862  -0.97036
  Beta  occ. eigenvalues --   -0.92700  -0.90943  -0.89252  -0.87681  -0.78259
  Beta virt. eigenvalues --   -0.63726  -0.56371  -0.55113  -0.46584  -0.37077
  Beta virt. eigenvalues --   -0.33043  -0.30992  -0.29573  -0.27764  -0.26050
  Beta virt. eigenvalues --   -0.25429  -0.24698  -0.22522  -0.21062  -0.19873

 Mulliken charges and spin densities:
               1          2
     1  C    0.148218   0.010403
     2  C    0.399652   0.124965
     3  C    0.275186   0.817460
     4  C    0.020924  -0.016067
     5  C    0.145250   0.037026
     6  H    0.321639   0.012831
     7  H    0.323018   0.015413
     8  H    0.366112  -0.002032
 Sum of Mulliken charges =   2.00000   1.00000

 Dipole moment (field-independent basis, Debye):
    X=             -0.8193    Y=             -1.9870    Z=              0.0000  Tot=              2.1493
 Quadrupole moment (field-independent basis, Debye-Ang):
   XX=            -11.8653   YY=             12.0396   ZZ=            -24.5238
   XY=            -10.7336   XZ=              0.0000   YZ=              0.0000

  Exact polarizability:  37.542 -13.390  84.384   0.000  -0.000  24.041
 Approx polarizability:  61.878 -23.563 162.574  -0.000  -0.000  34.836

                      1                      2                      3
                     A'                     A"                     A'
 Frequencies --    181.3688               206.9191               416.5559
 Red. masses --      3.0545                 4.9805                 1.9913
 Frc consts  --      0.0592                 0.1256                 0.2036
 IR Inten    --      9.4331                13.2375                 4.7890

                      4                      5                      6
                     A"                     A"                     A'
 Frequencies --    419.3076               547.0517               685.8920
 Red. masses --      1.1427                 7.4153                 5.4976
 Frc consts  --      0.1184                 1.3075                 1.5238
 IR Inten    --      0.3985                 0.3187                 7.4308

                      7                      8                      9
                     A'                     A"                     A'
 Frequencies --    805.0902               875.7357               889.1044
 Red. masses --      2.9733                 1.3297                 2.7601
 Frc consts  --      1.1355                 0.6008                 1.2855
 IR Inten    --      6.1587                31.8424                69.0317

                     10                     11                     12
                     A"                     A'                     A'
 Frequencies --    955.3695               991.6360              1230.7551
 Red. masses --      1.3363                 1.5990                 1.1860
 Frc consts  --      0.7186                 0.9264                 1.0584
 IR Inten    --     44.4974                25.7008               113.8440

                     13                     14                     15
                     A'                     A'                     A'
 Frequencies --   1350.5850              1653.0594              1833.1864
 Red. masses --      5.8189                 8.2220                 8.8831
 Frc consts  --      6.2537                13.2374                17.5884
 IR Inten    --     27.1775                14.0183                 2.7393

                     16                     17                     18
                     A'                     A'                     A'
 Frequencies --   2908.6515              2965.3575              3149.9439
 Red. masses --      1.0582                 1.1075                 1.1303
 Frc consts  --      5.2746                 5.7377                 6.6078
 IR Inten    --    613.0668               261.9956               262.3822

 - Thermochemistry -
 -------------------
 Temperature   298.150 Kelvin.  Pressure   1.00000 Atm.
 Atom     1 has atomic number  6 and mass  12.00000

 Molecular mass:    63.02348 amu.
 Principal axes and moments of inertia in atomic units:
                           1         2         3
     Eigenvalues --    53.45254 561.65448 615.10701
           X           -0.26445   0.96440   0.00000
           Y            0.96440   0.26445   0.00000
           Z           -0.00000   0.00000   1.00000
 This molecule is an asymmetric top.
 Rotational symmetry number  1.
 Rotational temperatures (Kelvin)      1.62039     0.15421     0.14081
 Rotational constants (GHZ):          33.76344     3.21326     2.93403
 Zero-point vibrational energy     131981.4 (Joules/Mol)
                                   31.54432 (Kcal/Mol)
 Warning -- explicit consideration of   5 degrees of freedom as
           vibrations may cause significant error
 Vibrational temperatures:    260.95   297.71   599.33   603.29   787.08
          (Kelvin)            986.84  1158.34  1259.99  1279.22  1374.56
                             1426.74  1770.78  1943.19  2378.38  2637.54
                             4184.90  4266.48  4532.06

 Zero-point correction=                           0.050269 (Hartree/Particle)
 Thermal correction to Energy=                    0.055439
 Thermal correction to Enthalpy=                  0.056383
 Thermal correction to Gibbs Free Energy=         0.022182
 Sum of electronic and zero-point Energies=           -191.265974
 Sum of electronic and thermal Energies=              -191.260805
 Sum of electronic and thermal Enthalpies=            -191.259861
 Sum of electronic and thermal Free Energies=         -191.294062

                     E (Thermal)             CV                S
                      KCal/Mol        Cal/Mol-Kelvin    Cal/Mol-Kelvin
 Total                   34.788             17.406             71.982
 Electronic               0.000              0.000              1.377
 Translational            0.889              2.981             38.342
 Rotational               0.889              2.981             24.427
 Vibrational             33.011             11.444              7.836
 Vibration     1          0.630              1.865              2.314
 Vibration     2          0.641              1.830              2.071
 Vibration     3          0.780              1.434              0.904
 Vibration     4          0.782              1.428              0.894
 Vibration     5          0.902              1.146              0.550

 Optimization completed.
    -- Stationary point found.
 Normal termination of Gaussian 09 at Thu Jan 31 06:00:12 2019.
