 Gaussian 09, Revision E.01,
 Gaussian 09:  EM64L-G09RevE.01 30-Nov-2015

 ---------------------------------------------
 #p b3lyp/6-311++G(3df,2p) freq symmetry=Loose
 ---------------------------------------------

 ---------
 b3lyp opt
 ---------
 Symbolic Z-matrix:
 Charge =  1 Multiplicity = 1

                         Standard orientation:
 ---------------------------------------------------------------------
 Center     Atomic      Atomic             Coordinates (Angstroms)
 Number     Number       Type             X           Y           Z
 ---------------------------------------------------------------------
      1          6           0       -0.425774   -0.747107    0.000000
      2          6           0        0.794212   -1.306346    0.000000
      3          1           0        1.353168   -2.230751    0.000000
      4          6           0        0.856895    0.032588    0.000000
      5          6           0       -1.137640    0.593046    0.000000
      6          1           0       -2.199787    0.785030    0.000000
      7          6           0        0.000000    1.283136    0.000000
      8          1           0        0.320458    2.313821    0.000000
 ---------------------------------------------------------------------

 SCF Done:  E(RB3LYP) =  -191.862720714     A.U. after   12 cycles

 The electronic state is 1-A'.
 Alpha  occ. eigenvalues --  -10.50782 -10.50751 -10.49132 -10.47326 -10.47243
 Alpha  occ. eigenvalues --   -1.23899  -1.06232  -0.87927  -0.82622  -0.75190
 Alpha  occ. eigenvalues --   -0.75159  -0.70986  -0.68034  -0.63799  -0.52699
 Alpha  occ. eigenvalues --   -0.51917
 Alpha virt. eigenvalues --   -0.35896  -0.23353  -0.21452  -0.18716  -0.18696
 Alpha virt. eigenvalues --   -0.13385  -0.12280  -0.10986  -0.10428  -0.10375
 Alpha virt. eigenvalues --   -0.09463  -0.06898  -0.06067  -0.04850  -0.04341

 Mulliken charges:
               1
     1  C   -0.054454
     2  C    0.342949
     3  H    0.309590
     4  C   -0.048604
     5  C   -0.052248
     6  H    0.276899
     7  C   -0.050994
     8  H    0.276862
 Sum of Mulliken charges =   1.00000

 Dipole moment (field-independent basis, Debye):
    X=             -0.0777    Y=              0.1414    Z=              0.0000  Tot=              0.1613
 Quadrupole moment (field-independent basis, Debye-Ang):
   XX=            -19.4463   YY=            -14.8574   ZZ=            -26.7817
   XY=             -4.4170   XZ=              0.0000   YZ=              0.0000

  Exact polarizability:  46.818  -4.612  51.619  -0.000  -0.000  26.533
 Approx polarizability:  89.841   2.935  86.744  -0.000  -0.000  40.883

                      1                      2                      3
                     A"                     A"                     A'
 Frequencies --    351.4436               414.6722               452.7425
 Red. masses --      3.5227                 3.5731                 7.1362
 Frc consts  --      0.2564                 0.3620                 0.8618
 IR Inten    --      0.0006                 6.1994                39.9818

                      4                      5                      6
                     A'                     A"                     A'
 Frequencies --    620.3915               747.0729               830.1045
 Red. masses --      9.4249                 1.2809                 3.4892
 Frc consts  --      2.1373                 0.4212                 1.4166
 IR Inten    --      1.8559                46.5449                 4.8712

                      7                      8                      9
                     A"                     A"                     A'
 Frequencies --    845.0269               948.4362               985.1418
 Red. masses --      1.2517                 1.5334                 4.5998
 Frc consts  --      0.5266                 0.8127                 2.6302
 IR Inten    --     26.2214                 0.0000                 1.5172

                     10                     11                     12
                     A'                     A'                     A'
 Frequencies --   1042.9281              1136.6797              1208.2066
 Red. masses --      1.3939                 1.2041                 3.9792
 Frc consts  --      0.8933                 0.9166                 3.4224
 IR Inten    --      0.2250                 0.3220                96.7979

                     13                     14                     15
                     A'                     A'                     A'
 Frequencies --   1258.8001              1621.0899              1751.6500
 Red. masses --      1.4050                 5.5186                 6.6321
 Frc consts  --      1.3118                 8.5447                11.9894
 IR Inten    --      3.5674                14.7870                14.0521

                     16                     17                     18
                     A'                     A'                     A'
 Frequencies --   3224.8785              3238.3594              3254.5278
 Red. masses --      1.0891                 1.1233                 1.1233
 Frc consts  --      6.6731                 6.9408                 7.0098
 IR Inten    --     27.4310                74.9512                 7.1462

 - Thermochemistry -
 -------------------
 Temperature   298.150 Kelvin.  Pressure   1.00000 Atm.
 Atom     1 has atomic number  6 and mass  12.00000

 Molecular mass:    63.02348 amu.
 Principal axes and moments of inertia in atomic units:
                           1         2         3
     Eigenvalues --   101.84719 266.31234 368.15953
           X           -0.51863   0.85500   0.00000
           Y            0.85500   0.51863   0.00000
           Z           -0.00000   0.00000   1.00000
 This molecule is an asymmetric top.
 Rotational symmetry number  1.
 Rotational temperatures (Kelvin)      0.85043     0.32523     0.23526
 Rotational constants (GHZ):          17.72009     6.77678     4.90206
 Zero-point vibrational energy     143146.1 (Joules/Mol)
                                   34.21273 (Kcal/Mol)
 Warning -- explicit consideration of   4 degrees of freedom as
           vibrations may cause significant error
 Vibrational temperatures:    505.65   596.62   651.39   892.60  1074.87
          (Kelvin)           1194.33  1215.80  1364.59  1417.40  1500.54
                             1635.43  1738.34  1811.13  2332.38  2520.23
                             4639.88  4659.27  4682.53

 Zero-point correction=                           0.054521 (Hartree/Particle)
 Thermal correction to Energy=                    0.058822
 Thermal correction to Enthalpy=                  0.059766
 Thermal correction to Gibbs Free Energy=         0.028182
 Sum of electronic and zero-point Energies=           -191.808199
 Sum of electronic and thermal Energies=              -191.803899
 Sum of electronic and thermal Enthalpies=            -191.802954
 Sum of electronic and thermal Free Energies=         -191.834539

                     E (Thermal)             CV                S
                      KCal/Mol        Cal/Mol-Kelvin    Cal/Mol-Kelvin
 Total                   36.911             15.102             66.475
 Electronic               0.000              0.000              0.000
 Translational            0.889              2.981             38.342
 Rotational               0.889              2.981             23.816
 Vibrational             35.134              9.140              4.316
 Vibration     1          0.728              1.572              1.160
 Vibration     2          0.778              1.438              0.910
 Vibration     3          0.811              1.355              0.788
 Vibration     4          0.980              0.989              0.416

 Normal termination of Gaussian 09 at Tue Jul 19 16:43:17 2016.
