 Gaussian 09, Revision E.01,
 Gaussian 09:  EM64L-G09RevE.01 30-Nov-2015

 ---------------------------------------------
 #p b3lyp/6-311++G(3df,2p) freq symmetry=Loose
 ---------------------------------------------

 ---------
 b3lyp opt
 ---------
 Symbolic Z-matrix:
 Charge =  2 Multiplicity = 4

                         Standard orientation:
 ---------------------------------------------------------------------
 Center     Atomic      Atomic             Coordinates (Angstroms)
 Number     Number       Type             X           Y           Z
 ---------------------------------------------------------------------
      1          6           0        0.264058    1.904702   -0.000000
      2          1           0        0.375103    2.440330   -0.943380
      3          1           0        0.375103    2.440330    0.943380
      4          6           0       -0.000000    0.531431   -0.000000
      5          6           0       -0.256946   -0.586488   -0.887584
      6          6           0        0.075549   -1.626997   -0.000000
      7          1           0        0.295024   -2.697579   -0.000000
      8          6           0       -0.256946   -0.586488    0.887584
 ---------------------------------------------------------------------

 SCF Done:  E(UB3LYP) =  -191.213129487     A.U. after   15 cycles

 The electronic state is 4-A".
 Alpha  occ. eigenvalues --  -10.79933 -10.79930 -10.76691 -10.76104 -10.71517
 Alpha  occ. eigenvalues --   -1.48398  -1.27012  -1.14524  -1.11923  -0.99755
 Alpha  occ. eigenvalues --   -0.95763  -0.94421  -0.93236  -0.87373  -0.86082
 Alpha  occ. eigenvalues --   -0.76864  -0.73980
 Alpha virt. eigenvalues --   -0.56851  -0.56129  -0.44755  -0.32984  -0.32825
 Alpha virt. eigenvalues --   -0.30085  -0.29454  -0.27579  -0.26285  -0.26204
 Alpha virt. eigenvalues --   -0.23612  -0.22610  -0.21103  -0.21096  -0.20168

  Beta  occ. eigenvalues --  -10.77869 -10.77867 -10.76087 -10.75702 -10.70816
  Beta  occ. eigenvalues --   -1.45827  -1.24201  -1.12778  -1.06064  -0.98629
  Beta  occ. eigenvalues --   -0.94098  -0.92263  -0.88275  -0.86110
  Beta virt. eigenvalues --   -0.67777  -0.65991  -0.56791  -0.51871  -0.49312
  Beta virt. eigenvalues --   -0.39346  -0.31798  -0.31531  -0.29458  -0.28288
  Beta virt. eigenvalues --   -0.26370  -0.25652  -0.24630  -0.23024  -0.21848

 Mulliken charges and spin densities:
               1          2
     1  C   -0.207742   0.433531
     2  H    0.298343  -0.009648
     3  H    0.298343  -0.009648
     4  C    0.540108   0.251251
     5  C    0.307824   1.107987
     6  C    0.078614   0.109048
     7  H    0.376685   0.009493
     8  C    0.307824   1.107987
 Sum of Mulliken charges =   2.00000   3.00000

 Dipole moment (field-independent basis, Debye):
    X=              0.8015    Y=              0.0707    Z=             -0.0000  Tot=              0.8046
 Quadrupole moment (field-independent basis, Debye-Ang):
   XX=            -23.3970   YY=              7.2155   ZZ=            -17.9398
   XY=              1.5352   XZ=              0.0000   YZ=             -0.0000

  Exact polarizability:  24.991   3.135  68.919  -0.000  -0.000  35.471
 Approx polarizability:  37.437   2.510 108.679  -0.000   0.000  68.670

                      1                      2                      3
                     A'                     A"                     A"
 Frequencies --    248.5626               277.2015               353.4273
 Red. masses --      3.2683                 1.1341                 2.7988
 Frc consts  --      0.1190                 0.0513                 0.2060
 IR Inten    --     13.7460                 0.0239                 6.1565

                      4                      5                      6
                     A'                     A'                     A"
 Frequencies --    609.6607               687.4159               843.6990
 Red. masses --      5.1369                 5.9263                 2.5890
 Frc consts  --      1.1249                 1.6500                 1.0858
 IR Inten    --      4.3020                19.1679                 0.7287

                      7                      8                      9
                     A'                     A'                     A"
 Frequencies --    900.9307               978.3566               985.8611
 Red. masses --      1.6777                 4.2256                 3.0827
 Frc consts  --      0.8023                 2.3831                 1.7653
 IR Inten    --     15.2782                40.4406                 4.1900

                     10                     11                     12
                     A"                     A'                     A"
 Frequencies --   1040.7294              1048.5540              1190.1398
 Red. masses --      1.3236                 1.3794                 2.9046
 Frc consts  --      0.8447                 0.8936                 2.4240
 IR Inten    --     12.5832                14.8912                34.8048

                     13                     14                     15
                     A'                     A'                     A'
 Frequencies --   1343.1569              1445.6160              1582.1053
 Red. masses --      7.0255                 1.1307                 9.5502
 Frc consts  --      7.4676                 1.3922                14.0842
 IR Inten    --     75.0412                25.5344                 1.0771

                     16                     17                     18
                     A'                     A'                     A"
 Frequencies --   3074.3381              3124.6238              3190.0866
 Red. masses --      1.0536                 1.1104                 1.1261
 Frc consts  --      5.8673                 6.3874                 6.7520
 IR Inten    --    166.2780               285.1546                90.9685

 - Thermochemistry -
 -------------------
 Temperature   298.150 Kelvin.  Pressure   1.00000 Atm.
 Atom     1 has atomic number  6 and mass  12.00000

 Molecular mass:    63.02348 amu.
 Principal axes and moments of inertia in atomic units:
                           1         2         3
     Eigenvalues --    81.18958 389.42950 456.09050
           X            0.08782   0.00000   0.99614
           Y            0.99614   0.00000  -0.08782
           Z           -0.00000   1.00000  -0.00000
 This molecule is an asymmetric top.
 Rotational symmetry number  1.
 Rotational temperatures (Kelvin)      1.06681     0.22241     0.18990
 Rotational constants (GHZ):          22.22873     4.63432     3.95698
 Zero-point vibrational energy     137118.8 (Joules/Mol)
                                   32.77217 (Kcal/Mol)
 Warning -- explicit consideration of   4 degrees of freedom as
           vibrations may cause significant error
 Vibrational temperatures:    357.63   398.83   508.50   877.16   989.04
          (Kelvin)           1213.89  1296.24  1407.64  1418.43  1497.38
                             1508.63  1712.34  1932.50  2079.92  2276.29
                             4423.28  4495.63  4589.82

 Zero-point correction=                           0.052226 (Hartree/Particle)
 Thermal correction to Energy=                    0.056924
 Thermal correction to Enthalpy=                  0.057868
 Thermal correction to Gibbs Free Energy=         0.024022
 Sum of electronic and zero-point Energies=           -191.160904
 Sum of electronic and thermal Energies=              -191.156205
 Sum of electronic and thermal Enthalpies=            -191.155261
 Sum of electronic and thermal Free Energies=         -191.189107

                     E (Thermal)             CV                S
                      KCal/Mol        Cal/Mol-Kelvin    Cal/Mol-Kelvin
 Total                   35.720             15.898             71.236
 Electronic               0.000              0.000              2.755
 Translational            0.889              2.981             38.342
 Rotational               0.889              2.981             24.182
 Vibrational             33.943              9.937              5.957
 Vibration     1          0.662              1.765              1.741
 Vibration     2          0.678              1.716              1.551
 Vibration     3          0.730              1.568              1.151
 Vibration     4          0.969              1.011              0.433

 Optimization completed.
    -- Stationary point found.
 Normal termination of Gaussian 09 at Tue Jul 19 15:34:15 2016.
