 Gaussian 09, Revision E.01,
 Gaussian 09:  EM64L-G09RevE.01 30-Nov-2015

 ---------------------------------------------
 #p b3lyp/6-311++G(3df,2p) freq symmetry=Loose
 ---------------------------------------------

 ---------
 b3lyp opt
 ---------
 Symbolic Z-matrix:
 Charge =  3 Multiplicity = 1

                         Standard orientation:
 ---------------------------------------------------------------------
 Center     Atomic      Atomic             Coordinates (Angstroms)
 Number     Number       Type             X           Y           Z
 ---------------------------------------------------------------------
      1          6           0       -2.633912    0.306191    0.000000
      2          6           0       -1.230516   -0.359377    0.000000
      3          1           0       -1.323307   -1.473246    0.000000
      4          6           0        0.000000    0.358953    0.000000
      5          1           0        0.000551    1.455151    0.000000
      6          6           0        1.230262   -0.359585    0.000000
      7          1           0        1.320662   -1.473763    0.000000
      8          6           0        2.634515    0.302460    0.000000
 ---------------------------------------------------------------------

 SCF Done:  E(RB3LYP) =  -190.290547937     A.U. after   12 cycles

 The electronic state is 1-A'.
 Alpha  occ. eigenvalues --  -11.09521 -11.09501 -10.97624 -10.97611 -10.94753
 Alpha  occ. eigenvalues --   -1.54752  -1.47853  -1.38016  -1.24304  -1.24163
 Alpha  occ. eigenvalues --   -1.17380  -1.09995  -1.04144  -1.01805  -1.00028
 Alpha virt. eigenvalues --   -0.92588  -0.83289  -0.83240  -0.82178  -0.74045
 Alpha virt. eigenvalues --   -0.65001  -0.54839  -0.50551  -0.50313  -0.48076
 Alpha virt. eigenvalues --   -0.45316  -0.43863  -0.41707  -0.40898  -0.40439

 Mulliken charges:
               1
     1  C    0.604972
     2  C    0.312378
     3  H    0.286057
     4  C    0.324507
     5  H    0.266936
     6  C    0.314293
     7  H    0.285745
     8  C    0.605113
 Sum of Mulliken charges =   3.00000

 Dipole moment (field-independent basis, Debye):
    X=             -0.0076    Y=             -1.0863    Z=              0.0000  Tot=              1.0864
 Quadrupole moment (field-independent basis, Debye-Ang):
   XX=             32.6436   YY=            -12.5043   ZZ=            -21.5631
   XY=             -0.0216   XZ=              0.0000   YZ=              0.0000

  Exact polarizability: 100.849  -0.036  34.934   0.000  -0.000  28.064
 Approx polarizability: 244.677  -0.080  55.095  -0.000  -0.000  42.867

                      1                      2                      3
                     A"                     A'                     A"
 Frequencies --    116.1341               189.0096               191.6239
 Red. masses --      5.6949                 8.1159                 2.7907
 Frc consts  --      0.0453                 0.1708                 0.0604
 IR Inten    --      1.1987                 0.9595                 0.0000

                      4                      5                      6
                     A'                     A'                     A"
 Frequencies --    335.8838               411.4645               665.6863
 Red. masses --      6.2170                 5.7749                 1.4251
 Frc consts  --      0.4132                 0.5760                 0.3721
 IR Inten    --     17.0541                 3.5812                 0.0000

                      7                      8                      9
                     A'                     A"                     A'
 Frequencies --    682.2661               726.5171               829.1084
 Red. masses --      6.7764                 1.7103                 3.4229
 Frc consts  --      1.8585                 0.5319                 1.3863
 IR Inten    --   1345.7169                 2.2066                19.8702

                     10                     11                     12
                     A"                     A'                     A'
 Frequencies --    974.9203              1109.9313              1133.3488
 Red. masses --      1.2261                 1.1909                 6.6238
 Frc consts  --      0.6866                 0.8644                 5.0129
 IR Inten    --     51.7076               155.8350                20.7389

                     13                     14                     15
                     A'                     A'                     A'
 Frequencies --   1264.0522              1293.2604              1482.0171
 Red. masses --      1.4421                 1.8124                 1.9074
 Frc consts  --      1.3576                 1.7860                 2.4683
 IR Inten    --      4.2923                 7.9269                 2.2691

                     16                     17                     18
                     A'                     A'                     A'
 Frequencies --   2842.2817              2853.4251              3063.1816
 Red. masses --      1.0903                 1.0841                 1.0976
 Frc consts  --      5.1897                 5.2006                 6.0679
 IR Inten    --      6.3583               402.1347               117.6166

 - Thermochemistry -
 -------------------
 Temperature   298.150 Kelvin.  Pressure   1.00000 Atm.
 Atom     1 has atomic number  6 and mass  12.00000

 Molecular mass:    63.02348 amu.
 Principal axes and moments of inertia in atomic units:
                           1         2         3
     Eigenvalues --    47.65957 737.04357 784.70314
           X            1.00000   0.00059   0.00000
           Y           -0.00059   1.00000   0.00000
           Z           -0.00000   0.00000   1.00000
 This molecule is an asymmetric top.
 Rotational symmetry number  1.
 Rotational temperatures (Kelvin)      1.81734     0.11752     0.11038
 Rotational constants (GHZ):          37.86734     2.44862     2.29990
 Zero-point vibrational energy     120608.2 (Joules/Mol)
                                   28.82605 (Kcal/Mol)
 Warning -- explicit consideration of   5 degrees of freedom as
           vibrations may cause significant error
 Vibrational temperatures:    167.09   271.94   275.70   483.26   592.00
          (Kelvin)            957.77   981.63  1045.29  1192.90  1402.69
                             1596.94  1630.63  1818.69  1860.71  2132.29
                             4089.40  4105.44  4407.23

 Zero-point correction=                           0.045937 (Hartree/Particle)
 Thermal correction to Energy=                    0.051838
 Thermal correction to Enthalpy=                  0.052782
 Thermal correction to Gibbs Free Energy=         0.017450
 Sum of electronic and zero-point Energies=           -190.244611
 Sum of electronic and thermal Energies=              -190.238710
 Sum of electronic and thermal Enthalpies=            -190.237766
 Sum of electronic and thermal Free Energies=         -190.273098

                     E (Thermal)             CV                S
                      KCal/Mol        Cal/Mol-Kelvin    Cal/Mol-Kelvin
 Total                   32.529             19.125             74.362
 Electronic               0.000              0.000              0.000
 Translational            0.889              2.981             38.342
 Rotational               0.889              2.981             24.825
 Vibrational             30.751             13.163             11.195
 Vibration     1          0.608              1.936              3.164
 Vibration     2          0.633              1.855              2.238
 Vibration     3          0.634              1.851              2.212
 Vibration     4          0.717              1.604              1.232
 Vibration     5          0.775              1.445              0.921

 Normal termination of Gaussian 09 at Sun Jun 19 13:39:49 2016.
