 Gaussian 09, Revision E.01,
 Gaussian 09:  EM64L-G09RevE.01 30-Nov-2015

 ---------------------------------------------
 #p b3lyp/6-311++G(3df,2p) freq symmetry=Loose
 ---------------------------------------------

 ---------
 b3lyp opt
 ---------
 Symbolic Z-matrix:
 Charge =  0 Multiplicity = 4

                         Standard orientation:
 ---------------------------------------------------------------------
 Center     Atomic      Atomic             Coordinates (Angstroms)
 Number     Number       Type             X           Y           Z
 ---------------------------------------------------------------------
      1          6           0        1.715700   -0.122932   -0.113099
      2          6           0        0.553725   -0.763072   -0.293018
      3          6           0        0.600939    0.772563    0.121199
      4          1           0        0.470436    1.736094   -0.365071
      5          6           0       -0.603937   -0.154705    0.460355
      6          1           0       -0.629084   -0.423952    1.511286
      7          6           0       -1.875474    0.010737   -0.169891
      8          1           0       -2.187068    0.232315   -1.179498
 ---------------------------------------------------------------------

 SCF Done:  E(UB3LYP) =  -192.018066570     A.U. after   17 cycles

 The electronic state is 4-A.
 Alpha  occ. eigenvalues --  -10.26651 -10.25899 -10.25110 -10.23952 -10.20672
 Alpha  occ. eigenvalues --   -0.97602  -0.79506  -0.65126  -0.63372  -0.55194
 Alpha  occ. eigenvalues --   -0.50054  -0.45357  -0.42254  -0.36284  -0.31373
 Alpha  occ. eigenvalues --   -0.27640  -0.25240  -0.24405
 Alpha virt. eigenvalues --   -0.04185  -0.02319  -0.00094   0.00925   0.01874
 Alpha virt. eigenvalues --    0.04257   0.05832   0.06981   0.07034   0.07454
 Alpha virt. eigenvalues --    0.07827   0.09317   0.10453   0.11218   0.11767

  Beta  occ. eigenvalues --  -10.25948 -10.25777 -10.23853 -10.21238 -10.20372
  Beta  occ. eigenvalues --   -0.96293  -0.76669  -0.61221  -0.60680  -0.53537
  Beta  occ. eigenvalues --   -0.47393  -0.42594  -0.40105  -0.33933  -0.26557
  Beta virt. eigenvalues --   -0.12988  -0.11513  -0.10323  -0.02667  -0.00981
  Beta virt. eigenvalues --    0.00424   0.01582   0.02652   0.05541   0.06079
  Beta virt. eigenvalues --    0.07321   0.07935   0.08322   0.08520   0.09619

 Mulliken charges and spin densities:
               1          2
     1  C   -0.480509   0.068123
     2  C    0.188632   0.732331
     3  C    0.032586   0.515618
     4  H    0.188499   0.036514
     5  C    0.282396  -0.318013
     6  H    0.219692   0.014679
     7  C   -0.645522   1.948369
     8  H    0.214226   0.002378
 Sum of Mulliken charges =  -0.00000   3.00000

 Dipole moment (field-independent basis, Debye):
    X=             -2.7678    Y=              0.9808    Z=              0.3121  Tot=              2.9530
 Quadrupole moment (field-independent basis, Debye-Ang):
   XX=            -37.9430   YY=            -28.9984   ZZ=            -28.3003
   XY=              0.3752   XZ=              1.9153   YZ=             -1.6975

  Exact polarizability:  82.506  -0.256  49.352  -0.283   1.281  43.489
 Approx polarizability: 126.748   0.701  85.165  -0.999   6.282  64.480

                      1                      2                      3
                      A                      A                      A
 Frequencies --    278.6102               296.2699               434.4948
 Red. masses --      3.9645                 1.5804                 2.7831
 Frc consts  --      0.1813                 0.0817                 0.3096
 IR Inten    --      9.0490                 4.5908                 8.7203

                      4                      5                      6
                      A                      A                      A
 Frequencies --    487.0154               591.0126               691.6447
 Red. masses --      3.6470                 7.2700                 3.1315
 Frc consts  --      0.5096                 1.4962                 0.8826
 IR Inten    --     54.2048                13.1533                16.0965

                      7                      8                      9
                      A                      A                      A
 Frequencies --    803.8534               876.4539               977.7059
 Red. masses --      2.6570                 1.6523                 2.3826
 Frc consts  --      1.0116                 0.7478                 1.3419
 IR Inten    --     18.2358                22.9106                 4.2089

                     10                     11                     12
                      A                      A                      A
 Frequencies --   1030.2594              1078.9987              1108.5335
 Red. masses --      1.2452                 4.1363                 1.2349
 Frc consts  --      0.7788                 2.8373                 0.8941
 IR Inten    --      6.2308                 3.9974                 0.0836

                     13                     14                     15
                      A                      A                      A
 Frequencies --   1152.9839              1316.1477              1458.6196
 Red. masses --      3.6382                 1.2997                 9.1879
 Frc consts  --      2.8496                 1.3264                11.5173
 IR Inten    --     11.9891                 5.1578                11.0956

                     16                     17                     18
                      A                      A                      A
 Frequencies --   3102.6623              3121.5701              3220.9042
 Red. masses --      1.0899                 1.0848                 1.0913
 Frc consts  --      6.1819                 6.2282                 6.6704
 IR Inten    --      2.3437                 0.2751                 1.6262

 - Thermochemistry -
 -------------------
 Temperature   298.150 Kelvin.  Pressure   1.00000 Atm.
 Atom     1 has atomic number  6 and mass  12.00000

 Molecular mass:    63.02348 amu.
 Principal axes and moments of inertia in atomic units:
                           1         2         3
     Eigenvalues --    92.54578 368.30959 404.92758
           X            0.99984   0.00941   0.01547
           Y           -0.00697   0.98854  -0.15078
           Z           -0.01671   0.15064   0.98845
 This molecule is an asymmetric top.
 Rotational symmetry number  1.
 Rotational temperatures (Kelvin)      0.93590     0.23517     0.21390
 Rotational constants (GHZ):          19.50106     4.90007     4.45695
 Zero-point vibrational energy     131755.1 (Joules/Mol)
                                   31.49024 (Kcal/Mol)
 Warning -- explicit consideration of   5 degrees of freedom as
           vibrations may cause significant error
 Vibrational temperatures:    400.86   426.27   625.14   700.71   850.33
          (Kelvin)            995.12  1156.56  1261.02  1406.70  1482.31
                             1552.44  1594.93  1658.88  1893.64  2098.63
                             4464.03  4491.24  4634.16

 Zero-point correction=                           0.050183 (Hartree/Particle)
 Thermal correction to Energy=                    0.054977
 Thermal correction to Enthalpy=                  0.055921
 Thermal correction to Gibbs Free Energy=         0.022048
 Sum of electronic and zero-point Energies=           -191.967884
 Sum of electronic and thermal Energies=              -191.963090
 Sum of electronic and thermal Enthalpies=            -191.962145
 Sum of electronic and thermal Free Energies=         -191.996019

                     E (Thermal)             CV                S
                      KCal/Mol        Cal/Mol-Kelvin    Cal/Mol-Kelvin
 Total                   34.499             16.886             71.292
 Electronic               0.000              0.000              2.755
 Translational            0.889              2.981             38.342
 Rotational               0.889              2.981             24.138
 Vibrational             32.721             10.925              6.058
 Vibration     1          0.679              1.713              1.542
 Vibration     2          0.690              1.681              1.438
 Vibration     3          0.795              1.395              0.844
 Vibration     4          0.843              1.279              0.691
 Vibration     5          0.948              1.051              0.465

 Optimization completed.
    -- Stationary point found.
 Normal termination of Gaussian 09 at Sun Jun 19 09:14:42 2016.
