 Gaussian 09, Revision E.01,
 Gaussian 09:  EM64L-G09RevE.01 30-Nov-2015

 ---------------------------------------------
 #p b3lyp/6-311++G(3df,2p) freq symmetry=Loose
 ---------------------------------------------

 ---------
 b3lyp opt
 ---------
 Symbolic Z-matrix:
 Charge =  2 Multiplicity = 4

                         Standard orientation:
 ---------------------------------------------------------------------
 Center     Atomic      Atomic             Coordinates (Angstroms)
 Number     Number       Type             X           Y           Z
 ---------------------------------------------------------------------
      1          6           0       -0.762810    0.922551    0.203688
      2          6           0       -0.754137   -0.923014    0.201620
      3          6           0       -1.690497   -0.003415   -0.319144
      4          6           0        0.360155    0.004239    0.050149
      5          6           0        1.769832    0.010921   -0.110265
      6          1           0        2.136357   -0.871333   -0.658530
      7          1           0        2.171528    0.974450   -0.436128
      8          1           0        2.156862   -0.170816    0.938367
 ---------------------------------------------------------------------

 SCF Done:  E(UB3LYP) =  -191.123788425     A.U. after   17 cycles

 The electronic state is 4-A.
 Alpha  occ. eigenvalues --  -10.83536 -10.83382 -10.83375 -10.80908 -10.63621
 Alpha  occ. eigenvalues --   -1.51468  -1.26516  -1.16084  -1.14268  -0.97774
 Alpha  occ. eigenvalues --   -0.96996  -0.94730  -0.89499  -0.86383  -0.85319
 Alpha  occ. eigenvalues --   -0.82727  -0.78283
 Alpha virt. eigenvalues --   -0.61640  -0.59759  -0.50248  -0.33585  -0.33436
 Alpha virt. eigenvalues --   -0.31080  -0.28106  -0.27778  -0.26321  -0.25886
 Alpha virt. eigenvalues --   -0.24433  -0.24001  -0.23210  -0.20847  -0.20588

  Beta  occ. eigenvalues --  -10.81534 -10.81192 -10.81187 -10.80693 -10.63571
  Beta  occ. eigenvalues --   -1.48602  -1.25507  -1.11766  -1.10270  -0.95438
  Beta  occ. eigenvalues --   -0.94160  -0.91629  -0.84215  -0.84022
  Beta virt. eigenvalues --   -0.71900  -0.64837  -0.60915  -0.59147  -0.52633
  Beta virt. eigenvalues --   -0.45898  -0.32911  -0.31804  -0.28609  -0.27641
  Beta virt. eigenvalues --   -0.26031  -0.25710  -0.25004  -0.23810  -0.23067

 Mulliken charges and spin densities:
               1          2
     1  C    0.311217   1.121126
     2  C    0.310307   1.124433
     3  C    0.370574   0.835879
     4  C    0.329688  -0.123462
     5  C   -0.119967   0.023665
     6  H    0.258665   0.010189
     7  H    0.247885   0.007095
     8  H    0.291632   0.001075
 Sum of Mulliken charges =   2.00000   3.00000

 Dipole moment (field-independent basis, Debye):
    X=             -0.1428    Y=             -0.1247    Z=              0.0120  Tot=              0.1900
 Quadrupole moment (field-independent basis, Debye-Ang):
   XX=             -0.9199   YY=            -17.3910   ZZ=            -21.9233
   XY=             -0.2968   XZ=              0.9881   YZ=             -0.0137

  Exact polarizability:  63.584  -0.585  36.625   2.337  -0.023  28.559
 Approx polarizability: 111.596  -1.681  71.802   9.633  -0.112  45.366

                      1                      2                      3
                      A                      A                      A
 Frequencies --     41.3656               271.5016               348.0030
 Red. masses --      1.1386                 3.8992                 3.5621
 Frc consts  --      0.0011                 0.1693                 0.2542
 IR Inten    --     15.4116                 2.0842                 1.2521

                      4                      5                      6
                      A                      A                      A
 Frequencies --    551.5934               624.3156               666.5809
 Red. masses --      2.8261                 5.6475                11.3612
 Frc consts  --      0.5066                 1.2969                 2.9743
 IR Inten    --      5.3342                 4.4809                 8.2470

                      7                      8                      9
                      A                      A                      A
 Frequencies --    850.9660               895.4376               974.7814
 Red. masses --      2.2975                 5.9739                 1.5644
 Frc consts  --      0.9802                 2.8222                 0.8758
 IR Inten    --     37.9840                28.3331                12.1870

                     10                     11                     12
                      A                      A                      A
 Frequencies --   1149.3565              1196.4191              1270.3668
 Red. masses --      3.1864                 1.3301                 1.1039
 Frc consts  --      2.4800                 1.1218                 1.0496
 IR Inten    --     43.3817               220.7160                49.8469

                     13                     14                     15
                      A                      A                      A
 Frequencies --   1351.3239              1417.9237              1425.8407
 Red. masses --      7.5814                 2.0467                 1.9888
 Frc consts  --      8.1568                 2.4244                 2.3823
 IR Inten    --    122.0583                10.0454                33.1958

                     16                     17                     18
                      A                      A                      A
 Frequencies --   2707.3892              2963.4213              3082.1744
 Red. masses --      1.0666                 1.0577                 1.1023
 Frc consts  --      4.6062                 5.4724                 6.1700
 IR Inten    --    442.7008               200.6721                76.9480

 - Thermochemistry -
 -------------------
 Temperature   298.150 Kelvin.  Pressure   1.00000 Atm.
 Atom     1 has atomic number  6 and mass  12.00000

 Molecular mass:    63.02348 amu.
 Principal axes and moments of inertia in atomic units:
                           1         2         3
     Eigenvalues --    93.16304 373.29259 438.61164
           X            0.99999  -0.00153  -0.00355
           Y            0.00153   1.00000  -0.00059
           Z            0.00355   0.00058   0.99999
 This molecule is an asymmetric top.
 Rotational symmetry number  1.
 Rotational temperatures (Kelvin)      0.92970     0.23203     0.19747
 Rotational constants (GHZ):          19.37186     4.83466     4.11467
 Zero-point vibrational energy     130325.7 (Joules/Mol)
                                   31.14860 (Kcal/Mol)
 Warning -- explicit consideration of   4 degrees of freedom as
           vibrations may cause significant error
 Vibrational temperatures:     59.52   390.63   500.70   793.62   898.25
          (Kelvin)            959.06  1224.35  1288.33  1402.49  1653.67
                             1721.38  1827.77  1944.25  2040.07  2051.46
                             3895.32  4263.70  4434.56

 Zero-point correction=                           0.049638 (Hartree/Particle)
 Thermal correction to Energy=                    0.054840
 Thermal correction to Enthalpy=                  0.055785
 Thermal correction to Gibbs Free Energy=         0.020063
 Sum of electronic and zero-point Energies=           -191.074150
 Sum of electronic and thermal Energies=              -191.068948
 Sum of electronic and thermal Enthalpies=            -191.068004
 Sum of electronic and thermal Free Energies=         -191.103725

                     E (Thermal)             CV                S
                      KCal/Mol        Cal/Mol-Kelvin    Cal/Mol-Kelvin
 Total                   34.413             16.674             75.181
 Electronic               0.000              0.000              2.755
 Translational            0.889              2.981             38.342
 Rotational               0.889              2.981             24.237
 Vibrational             32.635             10.713              9.847
 Vibration     1          0.594              1.981              5.193
 Vibration     2          0.675              1.726              1.587
 Vibration     3          0.726              1.579              1.175
 Vibration     4          0.907              1.136              0.541

 Normal termination of Gaussian 09 at Sun Jun 19 13:06:31 2016.
