 Gaussian 09, Revision E.01,
 Gaussian 09:  EM64L-G09RevE.01 30-Nov-2015

 ---------------------------------------------
 #p b3lyp/6-311++G(3df,2p) freq symmetry=Loose
 ---------------------------------------------

 ---------
 b3lyp opt
 ---------
 Symbolic Z-matrix:
 Charge =  1 Multiplicity = 1

                         Standard orientation:
 ---------------------------------------------------------------------
 Center     Atomic      Atomic             Coordinates (Angstroms)
 Number     Number       Type             X           Y           Z
 ---------------------------------------------------------------------
      1          6           0       -0.244016   -0.015936    0.000028
      2          6           0       -1.016684   -1.140890    0.000113
      3          6           0       -1.503920    0.546934    0.000177
      4          1           0       -2.406226   -0.100577    0.000279
      5          1           0       -1.732263    1.613596    0.000208
      6          6           0        1.099473    0.461495   -0.000126
      7          6           0        2.131781   -0.358372   -0.000249
      8          1           0        1.338682    1.527597   -0.000149
 ---------------------------------------------------------------------

 SCF Done:  E(RB3LYP) =  -191.745666348     A.U. after   12 cycles

 The electronic state is 1-A.
 Alpha  occ. eigenvalues --  -10.54810 -10.52598 -10.50632 -10.48016 -10.42108
 Alpha  occ. eigenvalues --   -1.18743  -1.03903  -0.90784  -0.86401  -0.75119
 Alpha  occ. eigenvalues --   -0.73896  -0.68480  -0.65708  -0.56276  -0.52220
 Alpha  occ. eigenvalues --   -0.51374
 Alpha virt. eigenvalues --   -0.36011  -0.32946  -0.30858  -0.28936  -0.16599
 Alpha virt. eigenvalues --   -0.16111  -0.13756  -0.12178  -0.11395  -0.09967
 Alpha virt. eigenvalues --   -0.08692  -0.07022  -0.06045  -0.05844  -0.04757

 Mulliken charges:
               1
     1  C    1.035856
     2  C   -0.101964
     3  C   -0.314179
     4  H    0.242078
     5  H    0.264141
     6  C    0.121196
     7  C   -0.467679
     8  H    0.220550
 Sum of Mulliken charges =   1.00000

 Dipole moment (field-independent basis, Debye):
    X=             -3.4928    Y=              3.1723    Z=              0.0004  Tot=              4.7184
 Quadrupole moment (field-independent basis, Debye-Ang):
   XX=            -16.5581   YY=            -22.2946   ZZ=            -28.0886
   XY=             -0.5164   XZ=             -0.0013   YZ=              0.0001

  Exact polarizability:  71.404  -4.930  48.588  -0.005  -0.001  31.452
 Approx polarizability: 120.410 -20.614  92.841  -0.008   0.003  48.268

                      1                      2                      3
                      A                      A                      A
 Frequencies --    137.8688               149.9163               210.0598
 Red. masses --      3.9470                 2.6932                 2.5042
 Frc consts  --      0.0442                 0.0357                 0.0651
 IR Inten    --      0.5712                 1.8635                21.7561

                      4                      5                      6
                      A                      A                      A
 Frequencies --    351.0264               427.9749               554.1946
 Red. masses --      2.7709                 6.3030                 1.0911
 Frc consts  --      0.2012                 0.6802                 0.1974
 IR Inten    --      5.7845                15.7151                 7.4781

                      7                      8                      9
                      A                      A                      A
 Frequencies --    677.1122               735.2653               889.9439
 Red. masses --      3.0797                 1.7304                 6.3960
 Frc consts  --      0.8319                 0.5512                 2.9846
 IR Inten    --     39.4828                19.2566                13.3079

                     10                     11                     12
                      A                      A                      A
 Frequencies --    945.8917              1014.6839              1276.7142
 Red. masses --      1.3563                 1.2151                 1.8753
 Frc consts  --      0.7150                 0.7371                 1.8010
 IR Inten    --     40.0235                 5.9505                52.5136

                     13                     14                     15
                      A                      A                      A
 Frequencies --   1389.9994              1634.8511              1705.9039
 Red. masses --      1.7015                 7.4602                10.9891
 Frc consts  --      1.9369                11.7478                18.8418
 IR Inten    --     40.6150                10.8191               394.1610

                     16                     17                     18
                      A                      A                      A
 Frequencies --   2923.1953              3086.5814              3119.8230
 Red. masses --      1.0661                 1.0855                 1.0972
 Frc consts  --      5.3674                 6.0931                 6.2919
 IR Inten    --    211.1690                67.7294               118.4144

 - Thermochemistry -
 -------------------
 Temperature   298.150 Kelvin.  Pressure   1.00000 Atm.
 Atom     1 has atomic number  6 and mass  12.00000

 Molecular mass:    63.02348 amu.
 Principal axes and moments of inertia in atomic units:
                           1         2         3
     Eigenvalues --   100.51256 427.98171 528.49426
           X            0.99998  -0.00695   0.00012
           Y            0.00695   0.99998  -0.00000
           Z           -0.00012   0.00001   1.00000
 This molecule is an asymmetric top.
 Rotational symmetry number  1.
 Rotational temperatures (Kelvin)      0.86172     0.20238     0.16389
 Rotational constants (GHZ):          17.95538     4.21687     3.41487
 Zero-point vibrational energy     126989.6 (Joules/Mol)
                                   30.35125 (Kcal/Mol)
 Warning -- explicit consideration of   6 degrees of freedom as
           vibrations may cause significant error
 Vibrational temperatures:    198.36   215.70   302.23   505.05   615.76
          (Kelvin)            797.36   974.21  1057.88  1280.43  1360.93
                             1459.90  1836.90  1999.90  2352.18  2454.41
                             4205.82  4440.90  4488.72

 Zero-point correction=                           0.048368 (Hartree/Particle)
 Thermal correction to Energy=                    0.054267
 Thermal correction to Enthalpy=                  0.055211
 Thermal correction to Gibbs Free Energy=         0.020004
 Sum of electronic and zero-point Energies=           -191.697299
 Sum of electronic and thermal Energies=              -191.691400
 Sum of electronic and thermal Enthalpies=            -191.690456
 Sum of electronic and thermal Free Energies=         -191.725663

                     E (Thermal)             CV                S
                      KCal/Mol        Cal/Mol-Kelvin    Cal/Mol-Kelvin
 Total                   34.053             19.023             74.099
 Electronic               0.000              0.000              0.000
 Translational            0.889              2.981             38.342
 Rotational               0.889              2.981             24.634
 Vibrational             32.275             13.061             11.124
 Vibration     1          0.614              1.915              2.833
 Vibration     2          0.618              1.903              2.673
 Vibration     3          0.642              1.825              2.043
 Vibration     4          0.728              1.573              1.162
 Vibration     5          0.789              1.409              0.865
 Vibration     6          0.910              1.131              0.536

 Optimization completed.
    -- Stationary point found.
 Normal termination of Gaussian 09 at Tue Jul 19 15:11:18 2016.
