 Gaussian 09, Revision E.01,
 Gaussian 09:  EM64L-G09RevE.01 30-Nov-2015

 ---------------------------------------------
 #p b3lyp/6-311++G(3df,2p) freq symmetry=Loose
 ---------------------------------------------

 ---------
 b3lyp opt
 ---------
 Symbolic Z-matrix:
 Charge =  2 Multiplicity = 4

                         Standard orientation:
 ---------------------------------------------------------------------
 Center     Atomic      Atomic             Coordinates (Angstroms)
 Number     Number       Type             X           Y           Z
 ---------------------------------------------------------------------
      1          6           0        2.262041   -0.811523    0.000000
      2          1           0        3.198075   -1.358355    0.000000
      3          6           0        1.179781   -0.185775    0.000000
      4          6           0        0.000000    0.616842    0.000000
      5          1           0        0.102377    1.699652    0.000000
      6          6           0       -1.247365    0.015112    0.000000
      7          1           0       -1.434965   -1.095720    0.000000
      8          6           0       -2.505371    0.491081    0.000000
 ---------------------------------------------------------------------

 SCF Done:  E(UB3LYP) =  -191.172525843     A.U. after   22 cycles

 The electronic state is 4-A'.
 Alpha  occ. eigenvalues --  -10.84233 -10.71415 -10.70749 -10.69361 -10.69057
 Alpha  occ. eigenvalues --   -1.33153  -1.27081  -1.19290  -1.02758  -0.99486
 Alpha  occ. eigenvalues --   -0.95455  -0.91099  -0.86851  -0.85811  -0.80846
 Alpha  occ. eigenvalues --   -0.75396  -0.69238
 Alpha virt. eigenvalues --   -0.61942  -0.48185  -0.43066  -0.38246  -0.33136
 Alpha virt. eigenvalues --   -0.30038  -0.28103  -0.26510  -0.24811  -0.24634
 Alpha virt. eigenvalues --   -0.21889  -0.21392  -0.20695  -0.20261  -0.20246

  Beta  occ. eigenvalues --  -10.81144 -10.71316 -10.70076 -10.68397 -10.68276
  Beta  occ. eigenvalues --   -1.30519  -1.23040  -1.15615  -1.00060  -0.98355
  Beta  occ. eigenvalues --   -0.94458  -0.88087  -0.79799  -0.74160
  Beta virt. eigenvalues --   -0.67094  -0.67024  -0.57405  -0.55098  -0.42008
  Beta virt. eigenvalues --   -0.41871  -0.32683  -0.32589  -0.29593  -0.26695
  Beta virt. eigenvalues --   -0.25887  -0.24370  -0.24206  -0.21125  -0.20602

 Mulliken charges and spin densities:
               1          2
     1  C    0.611060   0.556166
     2  H    0.436773  -0.016626
     3  C   -0.002310   0.468451
     4  C   -0.082410   0.493461
     5  H    0.243792  -0.016621
     6  C    0.345483   0.061365
     7  H    0.256235   0.000190
     8  C    0.191377   1.453614
 Sum of Mulliken charges =   2.00000   3.00000

 Dipole moment (field-independent basis, Debye):
    X=             -1.5596    Y=             -0.7811    Z=              0.0000  Tot=              1.7443
 Quadrupole moment (field-independent basis, Debye-Ang):
   XX=             22.3597   YY=            -14.8963   ZZ=            -25.0484
   XY=            -10.8345   XZ=              0.0000   YZ=              0.0000

  Exact polarizability: 106.542 -17.473  38.677   0.000  -0.000  25.659
 Approx polarizability: 210.367 -37.613  62.169  -0.000  -0.000  35.823

                      1                      2                      3
                     A'                     A"                     A'
 Frequencies --    171.3144               193.7207               297.7244
 Red. masses --      4.8543                 3.4153                 6.0837
 Frc consts  --      0.0839                 0.0755                 0.3177
 IR Inten    --      9.2185                 6.8407                 2.8390

                      4                      5                      6
                     A"                     A'                     A"
 Frequencies --    414.7505               488.0278               508.0738
 Red. masses --      4.0291                 5.4878                 1.0944
 Frc consts  --      0.4083                 0.7701                 0.1665
 IR Inten    --      1.5833                 7.8563                44.6776

                      7                      8                      9
                     A"                     A"                     A'
 Frequencies --    654.7541               724.5579               733.3097
 Red. masses --      1.4147                 2.1392                 1.2448
 Frc consts  --      0.3573                 0.6617                 0.3944
 IR Inten    --     24.7093                 0.6538                38.7829

                     10                     11                     12
                     A'                     A'                     A'
 Frequencies --    873.7780               972.5631              1144.7005
 Red. masses --      2.3506                 3.7822                 2.2863
 Frc consts  --      1.0574                 2.1078                 1.7651
 IR Inten    --     14.5809               119.0763                27.4396

                     13                     14                     15
                     A'                     A'                     A'
 Frequencies --   1241.9809              1387.5944              1984.3453
 Red. masses --      1.9848                 1.9672                 6.3025
 Frc consts  --      1.8038                 2.2317                14.6217
 IR Inten    --      8.7291                 2.2114                39.1925

                     16                     17                     18
                     A'                     A'                     A'
 Frequencies --   2779.4332              3137.1419              3247.4622
 Red. masses --      1.0765                 1.0901                 1.1525
 Frc consts  --      4.8998                 6.3209                 7.1611
 IR Inten    --    204.1570                95.0831               394.6722

 - Thermochemistry -
 -------------------
 Temperature   298.150 Kelvin.  Pressure   1.00000 Atm.
 Atom     1 has atomic number  6 and mass  12.00000

 Molecular mass:    63.02348 amu.
 Principal axes and moments of inertia in atomic units:
                           1         2         3
     Eigenvalues --    40.83862 695.47566 736.31428
           X            0.97146   0.23722   0.00000
           Y           -0.23722   0.97146   0.00000
           Z           -0.00000   0.00000   1.00000
 This molecule is an asymmetric top.
 Rotational symmetry number  1.
 Rotational temperatures (Kelvin)      2.12088     0.12454     0.11763
 Rotational constants (GHZ):          44.19202     2.59497     2.45105
 Zero-point vibrational energy     125340.1 (Joules/Mol)
                                   29.95701 (Kcal/Mol)
 Warning -- explicit consideration of   6 degrees of freedom as
           vibrations may cause significant error
 Vibrational temperatures:    246.48   278.72   428.36   596.73   702.16
          (Kelvin)            731.00   942.04  1042.48  1055.07  1257.17
                             1399.30  1646.97  1786.93  1996.44  2855.03
                             3998.98  4513.64  4672.37

 Zero-point correction=                           0.047740 (Hartree/Particle)
 Thermal correction to Energy=                    0.053399
 Thermal correction to Enthalpy=                  0.054343
 Thermal correction to Gibbs Free Energy=         0.018610
 Sum of electronic and zero-point Energies=           -191.124786
 Sum of electronic and thermal Energies=              -191.119127
 Sum of electronic and thermal Enthalpies=            -191.118183
 Sum of electronic and thermal Free Energies=         -191.153915

                     E (Thermal)             CV                S
                      KCal/Mol        Cal/Mol-Kelvin    Cal/Mol-Kelvin
 Total                   33.508             19.273             75.206
 Electronic               0.000              0.000              2.755
 Translational            0.889              2.981             38.342
 Rotational               0.889              2.981             24.551
 Vibrational             31.731             13.311              9.558
 Vibration     1          0.626              1.878              2.421
 Vibration     2          0.635              1.849              2.192
 Vibration     3          0.691              1.678              1.430
 Vibration     4          0.778              1.438              0.910
 Vibration     5          0.844              1.277              0.689
 Vibration     6          0.863              1.232              0.638

 Optimization completed.
    -- Stationary point found.
 Normal termination of Gaussian 09 at Sun Jun 19 13:31:50 2016.
