 Gaussian 09, Revision E.01,
 Gaussian 09:  EM64L-G09RevE.01 30-Nov-2015

 ---------------------------------------------
 #p b3lyp/6-311++G(3df,2p) freq symmetry=Loose
 ---------------------------------------------

 ---------
 b3lyp opt
 ---------
 Symbolic Z-matrix:
 Charge =  3 Multiplicity = 3

                         Standard orientation:
 ---------------------------------------------------------------------
 Center     Atomic      Atomic             Coordinates (Angstroms)
 Number     Number       Type             X           Y           Z
 ---------------------------------------------------------------------
      1          6           0       -0.694676   -0.979226    0.141360
      2          6           0       -1.250088    0.240757   -0.240844
      3          1           0       -2.247340    0.633735   -0.574209
      4          6           0       -0.000018    0.967619    0.223360
      5          1           0       -0.000082    1.788439    0.999791
      6          6           0        0.694653   -0.979226    0.141474
      7          6           0        1.250128    0.240757   -0.240640
      8          1           0        2.247434    0.633735   -0.573841
 ---------------------------------------------------------------------

 SCF Done:  E(UB3LYP) =  -190.377012511     A.U. after   15 cycles

 The electronic state is 3-A.
 Alpha  occ. eigenvalues --  -11.09181 -11.09126 -11.07762 -11.05484 -11.05481
 Alpha  occ. eigenvalues --   -1.73368  -1.53940  -1.48606  -1.34260  -1.27674
 Alpha  occ. eigenvalues --   -1.25805  -1.21987  -1.19570  -1.15228  -1.07876
 Alpha  occ. eigenvalues --   -1.04640
 Alpha virt. eigenvalues --   -0.92197  -0.89149  -0.80853  -0.73462  -0.59190
 Alpha virt. eigenvalues --   -0.53658  -0.53450  -0.51635  -0.50365  -0.50200
 Alpha virt. eigenvalues --   -0.43940  -0.43369  -0.42187  -0.41799  -0.40446

  Beta  occ. eigenvalues --  -11.07655 -11.07606 -11.07546 -11.05089 -11.05087
  Beta  occ. eigenvalues --   -1.71014  -1.51794  -1.46350  -1.32848  -1.25660
  Beta  occ. eigenvalues --   -1.23842  -1.19914  -1.18682  -1.12541
  Beta virt. eigenvalues --   -0.93086  -0.92698  -0.87106  -0.84084  -0.77637
  Beta virt. eigenvalues --   -0.69381  -0.58172  -0.52395  -0.52157  -0.51049
  Beta virt. eigenvalues --   -0.49749  -0.49243  -0.43530  -0.43093  -0.41766

 Mulliken charges and spin densities:
               1          2
     1  C    0.606237   0.747529
     2  C    0.278287   0.198590
     3  H    0.407254   0.016528
     4  C    0.083667   0.058066
     5  H    0.332779   0.016638
     6  C    0.606236   0.747530
     7  C    0.278286   0.198590
     8  H    0.407254   0.016528
 Sum of Mulliken charges =   3.00000   2.00000

 Dipole moment (field-independent basis, Debye):
    X=              0.0000    Y=              1.5851    Z=             -0.2361  Tot=              1.6026
 Quadrupole moment (field-independent basis, Debye-Ang):
   XX=              3.8983   YY=             -5.6155   ZZ=            -18.5823
   XY=             -0.0001   XZ=              0.0018   YZ=              0.9246

  Exact polarizability:  49.147   0.000  42.407   0.002  -1.151  23.828
 Approx polarizability:  96.054   0.001 100.415   0.005  -7.426  37.771

                      1                      2                      3
                      A                      A                      A
 Frequencies --    277.1335               322.0780               377.1108
 Red. masses --      3.0180                 5.8871                 2.9758
 Frc consts  --      0.1366                 0.3598                 0.2493
 IR Inten    --     35.3638                47.9513                 1.0698

                      4                      5                      6
                      A                      A                      A
 Frequencies --    489.5159               753.2183               783.6900
 Red. masses --      8.1290                 2.2987                 9.6665
 Frc consts  --      1.1477                 0.7684                 3.4979
 IR Inten    --      2.0825                 4.6151                31.2158

                      7                      8                      9
                      A                      A                      A
 Frequencies --    863.2789               865.7052               959.5023
 Red. masses --      1.3056                 1.4057                 1.6721
 Frc consts  --      0.5733                 0.6207                 0.9070
 IR Inten    --      1.6468                63.6747                 3.9829

                     10                     11                     12
                      A                      A                      A
 Frequencies --   1001.3927              1059.1858              1086.4371
 Red. masses --      1.1698                 4.0601                 1.4391
 Frc consts  --      0.6911                 2.6837                 1.0008
 IR Inten    --      0.0056                42.7466                 0.1446

                     13                     14                     15
                      A                      A                      A
 Frequencies --   1119.5691              1224.9054              1495.5215
 Red. masses --      1.7322                 2.9280                 8.9152
 Frc consts  --      1.2792                 2.5884                11.7481
 IR Inten    --     75.6712               179.0304                43.9973

                     16                     17                     18
                      A                      A                      A
 Frequencies --   2738.4114              2814.6194              2835.4898
 Red. masses --      1.0916                 1.1095                 1.1089
 Frc consts  --      4.8227                 5.1788                 5.2527
 IR Inten    --    445.9841               932.8317               234.1179

 - Thermochemistry -
 -------------------
 Temperature   298.150 Kelvin.  Pressure   1.00000 Atm.
 Atom     1 has atomic number  6 and mass  12.00000

 Molecular mass:    63.02348 amu.
 Principal axes and moments of inertia in atomic units:
                           1         2         3
     Eigenvalues --   155.94063 226.32848 352.91499
           X            1.00000   0.00000  -0.00008
           Y            0.00000   0.99956   0.02950
           Z            0.00008  -0.02950   0.99956
 This molecule is an asymmetric top.
 Rotational symmetry number  1.
 Rotational temperatures (Kelvin)      0.55543     0.38269     0.24542
 Rotational constants (GHZ):          11.57326     7.97399     5.11381
 Zero-point vibrational energy     126007.2 (Joules/Mol)
                                   30.11645 (Kcal/Mol)
 Warning -- explicit consideration of   4 degrees of freedom as
           vibrations may cause significant error
 Vibrational temperatures:    398.73   463.40   542.58   704.30  1083.71
          (Kelvin)           1127.55  1242.06  1245.56  1380.51  1440.78
                             1523.93  1563.14  1610.81  1762.36  2151.72
                             3939.96  4049.60  4079.63

 Zero-point correction=                           0.047994 (Hartree/Particle)
 Thermal correction to Energy=                    0.052712
 Thermal correction to Enthalpy=                  0.053656
 Thermal correction to Gibbs Free Energy=         0.020212
 Sum of electronic and zero-point Energies=           -190.329019
 Sum of electronic and thermal Energies=              -190.324301
 Sum of electronic and thermal Enthalpies=            -190.323357
 Sum of electronic and thermal Free Energies=         -190.356801

                     E (Thermal)             CV                S
                      KCal/Mol        Cal/Mol-Kelvin    Cal/Mol-Kelvin
 Total                   33.077             16.549             70.389
 Electronic               0.000              0.000              2.183
 Translational            0.889              2.981             38.342
 Rotational               0.889              2.981             24.036
 Vibrational             31.300             10.587              5.827
 Vibration     1          0.678              1.716              1.551
 Vibration     2          0.707              1.631              1.300
 Vibration     3          0.748              1.519              1.051
 Vibration     4          0.845              1.273              0.685

 Optimization completed.
    -- Stationary point found.
 Normal termination of Gaussian 09 at Tue Jul 19 19:37:57 2016.
