 Gaussian 09, Revision E.01,
 Gaussian 09:  EM64L-G09RevE.01 30-Nov-2015

 ---------------------------------------------
 #p b3lyp/6-311++G(3df,2p) freq symmetry=Loose
 ---------------------------------------------

 ---------
 b3lyp opt
 ---------
 Symbolic Z-matrix:
 Charge =  3 Multiplicity = 1

                         Standard orientation:
 ---------------------------------------------------------------------
 Center     Atomic      Atomic             Coordinates (Angstroms)
 Number     Number       Type             X           Y           Z
 ---------------------------------------------------------------------
      1          6           0       -0.186450   -0.981171   -0.049297
      2          6           0       -1.302414   -0.138632   -0.207376
      3          1           0       -2.416204   -0.244953   -0.275235
      4          6           0       -0.389253    0.926765    0.206490
      5          1           0       -0.610346    1.629742    1.066561
      6          6           0        1.052956    0.521502   -0.259990
      7          1           0        1.682260    0.967288   -1.085661
      8          6           0        1.049209   -0.720477    0.359229
 ---------------------------------------------------------------------

 SCF Done:  E(RB3LYP) =  -190.393075181     A.U. after   14 cycles

 The electronic state is 1-A.
 Alpha  occ. eigenvalues --  -11.11038 -11.08138 -11.07900 -11.07759 -11.06830
 Alpha  occ. eigenvalues --   -1.76059  -1.56450  -1.46950  -1.34320  -1.28461
 Alpha  occ. eigenvalues --   -1.24881  -1.22792  -1.19566  -1.15388  -1.07415
 Alpha virt. eigenvalues --   -0.91891  -0.88967  -0.88091  -0.79781  -0.73794
 Alpha virt. eigenvalues --   -0.60113  -0.55983  -0.52975  -0.51193  -0.50288
 Alpha virt. eigenvalues --   -0.49320  -0.44886  -0.43515  -0.42320  -0.42169

 Mulliken charges:
               1
     1  C    0.630112
     2  C    0.256114
     3  H    0.425895
     4  C    0.148080
     5  H    0.338863
     6  C    0.249917
     7  H    0.364439
     8  C    0.586581
 Sum of Mulliken charges =   3.00000

 Dipole moment (field-independent basis, Debye):
    X=             -1.0988    Y=              1.4026    Z=             -0.4890  Tot=              1.8477
 Quadrupole moment (field-independent basis, Debye-Ang):
   XX=              2.5404   YY=             -7.3021   ZZ=            -17.1764
   XY=              1.4631   XZ=             -2.0653   YZ=              0.8653

  Exact polarizability:  47.299  -2.410  38.560   0.523  -0.263  24.299
 Approx polarizability: 103.974 -14.897  93.263   9.143  -4.400  40.864

                      1                      2                      3
                      A                      A                      A
 Frequencies --    359.4267               415.0996               495.7858
 Red. masses --      2.6298                 5.3013                 4.0734
 Frc consts  --      0.2002                 0.5382                 0.5899
 IR Inten    --     12.6602                 4.3789                10.7723

                      4                      5                      6
                      A                      A                      A
 Frequencies --    520.6785               741.1650               840.3196
 Red. masses --      6.4317                 4.2435                 1.5094
 Frc consts  --      1.0273                 1.3734                 0.6280
 IR Inten    --      2.3855                 7.3027                13.4687

                      7                      8                      9
                      A                      A                      A
 Frequencies --    896.5817               927.0731               945.6828
 Red. masses --      1.3800                 1.7712                 1.7776
 Frc consts  --      0.6536                 0.8969                 0.9366
 IR Inten    --     21.9301                34.7086                 4.0333

                     10                     11                     12
                      A                      A                      A
 Frequencies --   1040.1623              1080.4984              1128.0085
 Red. masses --      1.1480                 1.5197                 1.6612
 Frc consts  --      0.7318                 1.0454                 1.2454
 IR Inten    --      7.6138                72.6570                71.2763

                     13                     14                     15
                      A                      A                      A
 Frequencies --   1174.5093              1269.4121              1552.4750
 Red. masses --      3.9680                 5.4242                 8.8882
 Frc consts  --      3.2251                 5.1498                12.6216
 IR Inten    --     71.8042                85.4730               118.7681

                     16                     17                     18
                      A                      A                      A
 Frequencies --   2710.2812              2752.3086              2857.3631
 Red. masses --      1.0917                 1.1066                 1.1155
 Frc consts  --      4.7250                 4.9390                 5.3662
 IR Inten    --    548.7988               617.5903               430.9787

 - Thermochemistry -
 -------------------
 Temperature   298.150 Kelvin.  Pressure   1.00000 Atm.
 Atom     1 has atomic number  6 and mass  12.00000

 Molecular mass:    63.02348 amu.
 Principal axes and moments of inertia in atomic units:
                           1         2         3
     Eigenvalues --   145.98370 228.75899 333.68943
           X            0.99807   0.05217  -0.03361
           Y           -0.05139   0.99840   0.02375
           Z            0.03480  -0.02198   0.99915
 This molecule is an asymmetric top.
 Rotational symmetry number  1.
 Rotational temperatures (Kelvin)      0.59331     0.37862     0.25956
 Rotational constants (GHZ):          12.36262     7.88927     5.40845
 Zero-point vibrational energy     129835.7 (Joules/Mol)
                                   31.03147 (Kcal/Mol)
 Warning -- explicit consideration of   4 degrees of freedom as
           vibrations may cause significant error
 Vibrational temperatures:    517.13   597.24   713.32   749.14  1066.37
          (Kelvin)           1209.03  1289.98  1333.85  1360.62  1496.56
                             1554.59  1622.95  1689.85  1826.40  2233.66
                             3899.49  3959.95  4111.10

 Zero-point correction=                           0.049452 (Hartree/Particle)
 Thermal correction to Energy=                    0.053796
 Thermal correction to Enthalpy=                  0.054741
 Thermal correction to Gibbs Free Energy=         0.023055
 Sum of electronic and zero-point Energies=           -190.343623
 Sum of electronic and thermal Energies=              -190.339279
 Sum of electronic and thermal Enthalpies=            -190.338335
 Sum of electronic and thermal Free Energies=         -190.370020

                     E (Thermal)             CV                S
                      KCal/Mol        Cal/Mol-Kelvin    Cal/Mol-Kelvin
 Total                   33.758             15.506             66.688
 Electronic               0.000              0.000              0.000
 Translational            0.889              2.981             38.342
 Rotational               0.889              2.981             23.925
 Vibrational             31.980              9.544              4.421
 Vibration     1          0.734              1.556              1.125
 Vibration     2          0.779              1.437              0.909
 Vibration     3          0.851              1.259              0.669
 Vibration     4          0.876              1.204              0.608

 Optimization completed.
    -- Stationary point found.
 Normal termination of Gaussian 09 at Sun Jun 19 14:00:04 2016.
