 Gaussian 09, Revision E.01,
 Gaussian 09:  EM64L-G09RevE.01 30-Nov-2015

 ---------------------------------------------
 #p b3lyp/6-311++G(3df,2p) freq symmetry=Loose
 ---------------------------------------------

 ---------
 b3lyp opt
 ---------
 Symbolic Z-matrix:
 Charge =  3 Multiplicity = 3

                         Standard orientation:
 ---------------------------------------------------------------------
 Center     Atomic      Atomic             Coordinates (Angstroms)
 Number     Number       Type             X           Y           Z
 ---------------------------------------------------------------------
      1          6           0        0.635735   -1.081674    0.018946
      2          1           0        0.694882   -1.929566   -0.787014
      3          1           0        0.893528   -1.780013    0.935579
      4          6           0        1.167150    0.205352   -0.135798
      5          6           0       -0.521885   -0.048389    0.127272
      6          6           0       -1.983760   -0.150617   -0.075886
      7          6           0        0.396534    1.293306    0.027240
      8          1           0        0.248948    2.401709    0.080787
 ---------------------------------------------------------------------

 SCF Done:  E(UB3LYP) =  -190.293576915     A.U. after   41 cycles

 The electronic state is 3-A.
 Alpha  occ. eigenvalues --  -11.09756 -11.08708 -11.05593 -11.05444 -11.00708
 Alpha  occ. eigenvalues --   -1.72877  -1.49877  -1.48692  -1.29586  -1.26583
 Alpha  occ. eigenvalues --   -1.21955  -1.21476  -1.16571  -1.08172  -1.05628
 Alpha  occ. eigenvalues --   -1.02246
 Alpha virt. eigenvalues --   -0.85831  -0.85221  -0.78922  -0.77745  -0.64339
 Alpha virt. eigenvalues --   -0.57418  -0.55430  -0.53512  -0.51071  -0.48395
 Alpha virt. eigenvalues --   -0.45074  -0.42907  -0.42163  -0.41382  -0.39565

  Beta  occ. eigenvalues --  -11.08990 -11.08169 -11.04820 -11.04748 -11.00441
  Beta  occ. eigenvalues --   -1.71014  -1.47175  -1.46258  -1.27594  -1.24684
  Beta  occ. eigenvalues --   -1.20843  -1.16208  -1.15635  -1.03611
  Beta virt. eigenvalues --   -0.96596  -0.89291  -0.84949  -0.83730  -0.73628
  Beta virt. eigenvalues --   -0.71532  -0.62416  -0.55986  -0.54395  -0.52639
  Beta virt. eigenvalues --   -0.48735  -0.47675  -0.44175  -0.41880  -0.41581

 Mulliken charges and spin densities:
               1          2
     1  C   -0.353276   0.134046
     2  H    0.384806   0.132655
     3  H    0.390763   0.142393
     4  C    0.952594   0.310760
     5  C    0.561206   0.516010
     6  C    0.492330   0.374648
     7  C    0.107468   0.399822
     8  H    0.464110  -0.010334
 Sum of Mulliken charges =   3.00000   2.00000

 Dipole moment (field-independent basis, Debye):
    X=              0.7379    Y=             -0.7169    Z=              0.1869  Tot=              1.0456
 Quadrupole moment (field-independent basis, Debye-Ang):
   XX=             -1.8776   YY=              5.1714   ZZ=            -19.5331
   XY=             -2.0273   XZ=             -0.1078   YZ=             -0.0299

  Exact polarizability:  63.598  -2.908  50.186   1.055  -0.112  25.914
 Approx polarizability: 147.501  -0.668  91.636   5.006  -0.262  41.307

                      1                      2                      3
                      A                      A                      A
 Frequencies --    142.1132               259.3908               299.7050
 Red. masses --      6.8226                 3.6546                 3.0920
 Frc consts  --      0.0812                 0.1449                 0.1636
 IR Inten    --     11.7565                10.0848                28.5251

                      4                      5                      6
                      A                      A                      A
 Frequencies --    410.1609               499.7242               571.4587
 Red. masses --      5.2696                 3.6239                 4.6671
 Frc consts  --      0.5223                 0.5332                 0.8980
 IR Inten    --     16.2274                68.9453                 3.4493

                      7                      8                      9
                      A                      A                      A
 Frequencies --    655.8034               689.3155               773.0153
 Red. masses --      1.6105                 1.3231                 1.5268
 Frc consts  --      0.4081                 0.3704                 0.5375
 IR Inten    --     24.5702                35.7439                36.0740

                     10                     11                     12
                      A                      A                      A
 Frequencies --    867.7114               963.4062               980.0224
 Red. masses --      1.3407                 1.4352                 1.2468
 Frc consts  --      0.5948                 0.7848                 0.7055
 IR Inten    --    598.7224               156.6464                42.4361

                     13                     14                     15
                      A                      A                      A
 Frequencies --   1074.8629              1165.3046              1549.3439
 Red. masses --      3.1289                 4.3136                 6.4080
 Frc consts  --      2.1299                 3.4512                 9.0629
 IR Inten    --     70.9414                30.4261                80.8030

                     16                     17                     18
                      A                      A                      A
 Frequencies --   2124.4023              2368.0359              2881.7075
 Red. masses --      1.0715                 1.0903                 1.1301
 Frc consts  --      2.8491                 3.6024                 5.5293
 IR Inten    --    680.5470              1340.5274               502.0585

 - Thermochemistry -
 -------------------
 Temperature   298.150 Kelvin.  Pressure   1.00000 Atm.
 Atom     1 has atomic number  6 and mass  12.00000

 Molecular mass:    63.02348 amu.
 Principal axes and moments of inertia in atomic units:
                           1         2         3
     Eigenvalues --   176.61578 275.28838 437.55728
           X            0.99633  -0.08547   0.00428
           Y            0.08546   0.99634   0.00070
           Z           -0.00432  -0.00034   0.99999
 This molecule is an asymmetric top.
 Rotational symmetry number  1.
 Rotational temperatures (Kelvin)      0.49041     0.31463     0.19795
 Rotational constants (GHZ):          10.21846     6.55582     4.12458
 Zero-point vibrational energy     109311.7 (Joules/Mol)
                                   26.12612 (Kcal/Mol)
 Warning -- explicit consideration of   6 degrees of freedom as
           vibrations may cause significant error
 Vibrational temperatures:    204.47   373.21   431.21   590.13   718.99
          (Kelvin)            822.20   943.55   991.77  1112.20  1248.44
                             1386.12  1410.03  1546.49  1676.61  2229.16
                             3056.54  3407.07  4146.13

 Zero-point correction=                           0.041635 (Hartree/Particle)
 Thermal correction to Energy=                    0.047248
 Thermal correction to Enthalpy=                  0.048192
 Thermal correction to Gibbs Free Energy=         0.012820
 Sum of electronic and zero-point Energies=           -190.251942
 Sum of electronic and thermal Energies=              -190.246329
 Sum of electronic and thermal Enthalpies=            -190.245384
 Sum of electronic and thermal Free Energies=         -190.280757

                     E (Thermal)             CV                S
                      KCal/Mol        Cal/Mol-Kelvin    Cal/Mol-Kelvin
 Total                   29.649             19.516             74.447
 Electronic               0.000              0.000              2.183
 Translational            0.889              2.981             38.342
 Rotational               0.889              2.981             24.568
 Vibrational             27.871             13.555              9.354
 Vibration     1          0.616              1.911              2.775
 Vibration     2          0.668              1.747              1.666
 Vibration     3          0.692              1.674              1.419
 Vibration     4          0.774              1.448              0.926
 Vibration     5          0.855              1.251              0.659
 Vibration     6          0.928              1.093              0.501

 Normal termination of Gaussian 09 at Sun Jun 19 14:46:05 2016.
