 Gaussian 09, Revision E.01,
 Gaussian 09:  EM64L-G09RevE.01 30-Nov-2015

 ---------------------------------------------
 #p b3lyp/6-311++G(3df,2p) freq symmetry=Loose
 ---------------------------------------------

 ---------
 b3lyp opt
 ---------
 Symbolic Z-matrix:
 Charge =  2 Multiplicity = 4

                         Standard orientation:
 ---------------------------------------------------------------------
 Center     Atomic      Atomic             Coordinates (Angstroms)
 Number     Number       Type             X           Y           Z
 ---------------------------------------------------------------------
      1          6           0       -0.000000    2.047188    0.000000
      2          6           0        0.073568    0.671373    0.000000
      3          6           0        0.116514   -0.414278    0.976986
      4          1           0        0.546622   -0.519148    1.977362
      5          6           0       -0.356347   -1.329062   -0.000000
      6          1           0       -0.794760   -2.327442   -0.000000
      7          6           0        0.116514   -0.414278   -0.976986
      8          1           0        0.546622   -0.519148   -1.977362
 ---------------------------------------------------------------------

 SCF Done:  E(UB3LYP) =  -191.219500779     A.U. after   16 cycles

 The electronic state is 4-A".
 Alpha  occ. eigenvalues --  -10.77449 -10.76614 -10.75566 -10.75565 -10.73667
 Alpha  occ. eigenvalues --   -1.44769  -1.26531  -1.15489  -1.10403  -1.01719
 Alpha  occ. eigenvalues --   -0.94076  -0.93886  -0.89699  -0.88647  -0.86065
 Alpha  occ. eigenvalues --   -0.76707  -0.72160
 Alpha virt. eigenvalues --   -0.58660  -0.55439  -0.44567  -0.32453  -0.31566
 Alpha virt. eigenvalues --   -0.30482  -0.30431  -0.28385  -0.25685  -0.25667
 Alpha virt. eigenvalues --   -0.23802  -0.23222  -0.22028  -0.20466  -0.19106

  Beta  occ. eigenvalues --  -10.76037 -10.75393 -10.75392 -10.73292 -10.73000
  Beta  occ. eigenvalues --   -1.43686  -1.20485  -1.14916  -1.07175  -1.01380
  Beta  occ. eigenvalues --   -0.92393  -0.91619  -0.87991  -0.86981
  Beta virt. eigenvalues --   -0.64138  -0.61660  -0.58199  -0.51793  -0.49380
  Beta virt. eigenvalues --   -0.39633  -0.31954  -0.31060  -0.29927  -0.29497
  Beta virt. eigenvalues --   -0.27611  -0.25291  -0.25205  -0.23552  -0.22021

 Mulliken charges and spin densities:
               1          2
     1  C    0.140319   2.288478
     2  C    0.360858   0.256532
     3  C    0.224208   0.101813
     4  H    0.345780   0.000162
     5  C    0.008396   0.248259
     6  H    0.350451   0.002782
     7  C    0.224208   0.101813
     8  H    0.345780   0.000162
 Sum of Mulliken charges =   2.00000   3.00000

 Dipole moment (field-independent basis, Debye):
    X=              0.2141    Y=             -0.7579    Z=             -0.0000  Tot=              0.7876
 Quadrupole moment (field-independent basis, Debye-Ang):
   XX=            -21.9078   YY=             -3.0824   ZZ=            -12.0340
   XY=              2.0230   XZ=              0.0000   YZ=              0.0000

  Exact polarizability:  24.904   3.528  59.536  -0.000  -0.000  39.518
 Approx polarizability:  37.972   7.942 100.959   0.000   0.000  67.435

                      1                      2                      3
                     A'                     A'                     A"
 Frequencies --    212.5518               392.6064               409.9638
 Red. masses --      2.8385                 2.4857                 5.0757
 Frc consts  --      0.0756                 0.2257                 0.5026
 IR Inten    --      2.4168                17.8708                 0.4399

                      4                      5                      6
                     A'                     A'                     A'
 Frequencies --    699.5432               883.8744               955.4757
 Red. masses --      3.6576                 2.2134                 1.8142
 Frc consts  --      1.0546                 1.0188                 0.9758
 IR Inten    --      9.6673                14.9702                14.6090

                      7                      8                      9
                     A"                     A"                     A'
 Frequencies --    974.0585              1002.8416              1019.7767
 Red. masses --      1.5286                 3.2580                 1.7539
 Frc consts  --      0.8545                 1.9305                 1.0746
 IR Inten    --      2.8447                 2.7041                 5.1863

                     10                     11                     12
                     A"                     A'                     A"
 Frequencies --   1059.9476              1145.6667              1180.2303
 Red. masses --      1.3252                 2.0063                 1.4650
 Frc consts  --      0.8772                 1.5515                 1.2023
 IR Inten    --      1.6334                19.9376                 0.0706

                     13                     14                     15
                     A"                     A'                     A'
 Frequencies --   1315.1378              1366.3977              1522.2541
 Red. masses --      3.1328                 3.4392                 9.9218
 Frc consts  --      3.1925                 3.7832                13.5461
 IR Inten    --    120.5487               113.2034                 6.9966

                     16                     17                     18
                     A'                     A"                     A'
 Frequencies --   3111.5717              3113.9294              3152.7325
 Red. masses --      1.0997                 1.1033                 1.1153
 Frc consts  --      6.2732                 6.3031                 6.5318
 IR Inten    --     50.5579               238.1105               172.9406

 - Thermochemistry -
 -------------------
 Temperature   298.150 Kelvin.  Pressure   1.00000 Atm.
 Atom     1 has atomic number  6 and mass  12.00000

 Molecular mass:    63.02348 amu.
 Principal axes and moments of inertia in atomic units:
                           1         2         3
     Eigenvalues --   119.45467 321.37527 421.82068
           X            0.07611   0.00000   0.99710
           Y            0.99710   0.00000  -0.07611
           Z            0.00000   1.00000   0.00000
 This molecule is an asymmetric top.
 Rotational symmetry number  1.
 Rotational temperatures (Kelvin)      0.72508     0.26951     0.20533
 Rotational constants (GHZ):          15.10817     5.61568     4.27846
 Zero-point vibrational energy     140672.2 (Joules/Mol)
                                   33.62147 (Kcal/Mol)
 Warning -- explicit consideration of   3 degrees of freedom as
           vibrations may cause significant error
 Vibrational temperatures:    305.81   564.87   589.85  1006.49  1271.70
          (Kelvin)           1374.71  1401.45  1442.86  1467.23  1525.03
                             1648.36  1698.09  1892.19  1965.94  2190.18
                             4476.85  4480.24  4536.07

 Zero-point correction=                           0.053579 (Hartree/Particle)
 Thermal correction to Energy=                    0.057986
 Thermal correction to Enthalpy=                  0.058931
 Thermal correction to Gibbs Free Energy=         0.025477
 Sum of electronic and zero-point Energies=           -191.165922
 Sum of electronic and thermal Energies=              -191.161514
 Sum of electronic and thermal Enthalpies=            -191.160570
 Sum of electronic and thermal Free Energies=         -191.194024

                     E (Thermal)             CV                S
                      KCal/Mol        Cal/Mol-Kelvin    Cal/Mol-Kelvin
 Total                   36.387             14.742             70.409
 Electronic               0.000              0.000              2.755
 Translational            0.889              2.981             38.342
 Rotational               0.889              2.981             24.297
 Vibrational             34.610              8.781              5.016
 Vibration     1          0.644              1.822              2.022
 Vibration     2          0.760              1.486              0.990
 Vibration     3          0.774              1.449              0.927

 Optimization completed.
    -- Stationary point found.
 Normal termination of Gaussian 09 at Sun Jun 19 12:48:38 2016.
