 Gaussian 09, Revision E.01,
 Gaussian 09:  EM64L-G09RevE.01 30-Nov-2015

 ---------------------------------------------
 #p b3lyp/6-311++G(3df,2p) freq symmetry=Loose
 ---------------------------------------------

 ---------
 b3lyp opt
 ---------
 Symbolic Z-matrix:
 Charge =  2 Multiplicity = 2

                         Standard orientation:
 ---------------------------------------------------------------------
 Center     Atomic      Atomic             Coordinates (Angstroms)
 Number     Number       Type             X           Y           Z
 ---------------------------------------------------------------------
      1          6           0        0.000000   -2.472096   -0.284660
      2          1           0        0.000000   -3.516862   -0.584524
      3          6           0        0.000000   -1.265115    0.005461
      4          6           0        0.000000    0.000000    0.484021
      5          1           0        0.000000    0.000000    1.615325
      6          6           0        0.000000    1.265115    0.005461
      7          6           0        0.000000    2.472096   -0.284660
      8          1           0        0.000000    3.516862   -0.584524
 ---------------------------------------------------------------------

 SCF Done:  E(UB3LYP) =  -191.323082650     A.U. after   15 cycles

 The electronic state is 2-A1.
 Alpha  occ. eigenvalues --  -10.74683 -10.72382 -10.72381 -10.69281 -10.69278
 Alpha  occ. eigenvalues --   -1.32040  -1.26334  -1.20540  -1.07838  -0.98497
 Alpha  occ. eigenvalues --   -0.97171  -0.95985  -0.84106  -0.78452  -0.76864
 Alpha  occ. eigenvalues --   -0.76600
 Alpha virt. eigenvalues --   -0.61331  -0.45718  -0.44639  -0.43218  -0.32492
 Alpha virt. eigenvalues --   -0.32273  -0.28454  -0.28001  -0.27669  -0.26576
 Alpha virt. eigenvalues --   -0.24045  -0.23006  -0.21106  -0.20463  -0.20191

  Beta  occ. eigenvalues --  -10.74685 -10.71865 -10.71863 -10.69038 -10.69035
  Beta  occ. eigenvalues --   -1.31229  -1.24529  -1.18964  -1.07110  -0.97733
  Beta  occ. eigenvalues --   -0.96674  -0.94517  -0.83957  -0.75960  -0.73396
  Beta virt. eigenvalues --   -0.68229  -0.60908  -0.42772  -0.42753  -0.42112
  Beta virt. eigenvalues --   -0.32020  -0.31981  -0.27937  -0.27490  -0.27199
  Beta virt. eigenvalues --   -0.26381  -0.24031  -0.22629  -0.20883  -0.20122

 Mulliken charges and spin densities:
               1          2
     1  C    0.337988   0.244238
     2  H    0.434308  -0.008635
     3  C    0.068315   0.201993
     4  C    0.028715   0.040544
     5  H    0.290062   0.084264
     6  C    0.068315   0.201993
     7  C    0.337988   0.244238
     8  H    0.434308  -0.008635
 Sum of Mulliken charges =   2.00000   1.00000

 Dipole moment (field-independent basis, Debye):
    X=              0.0000    Y=             -0.0000    Z=              0.0738  Tot=              0.0738
 Quadrupole moment (field-independent basis, Debye-Ang):
   XX=            -24.7554   YY=             33.6599   ZZ=            -19.1937
   XY=              0.0000   XZ=             -0.0000   YZ=              0.0000

  Exact polarizability:  24.677  -0.000 258.790   0.000   0.000  31.266
 Approx polarizability:  34.427   0.000 645.765  -0.000  -0.000  48.694

                      1                      2                      3
                     A1                     B1                     A2
 Frequencies --    145.7350               227.1418               281.2810
 Red. masses --      3.8399                 2.2973                 4.5927
 Frc consts  --      0.0481                 0.0698                 0.2141
 IR Inten    --     13.0434                58.9405                 0.0000

                      4                      5                      6
                     B2                     A1                     B2
 Frequencies --    308.3774               574.2288               720.1318
 Red. masses --      3.9203                 6.6343                 1.2679
 Frc consts  --      0.2197                 1.2889                 0.3874
 IR Inten    --    183.4752                10.3131                39.3369

                      7                      8                      9
                     A1                     B1                     B2
 Frequencies --    727.0862               787.4110               830.5769
 Red. masses --      1.3126                 2.0324                 2.6473
 Frc consts  --      0.4088                 0.7424                 1.0760
 IR Inten    --     49.4578                 0.0198              6348.6084

                     10                     11                     12
                     A1                     A2                     B1
 Frequencies --    831.4133               833.3923               838.6648
 Red. masses --      7.3222                 1.3334                 1.3841
 Frc consts  --      2.9821                 0.5457                 0.5736
 IR Inten    --      0.0088                 0.0000                34.1002

                     13                     14                     15
                     B2                     B2                     A1
 Frequencies --   1087.1677              2037.5408              2061.0627
 Red. masses --      1.5733                 6.6951                 6.1255
 Frc consts  --      1.0956                16.3764                15.3312
 IR Inten    --    372.7771              2037.5146                22.7443

                     16                     17                     18
                     A1                     B2                     A1
 Frequencies --   2694.2218              3227.9882              3230.3533
 Red. masses --      1.0711                 1.1643                 1.1629
 Frc consts  --      4.5808                 7.1481                 7.1495
 IR Inten    --    286.5948               478.7428                30.7199

 - Thermochemistry -
 -------------------
 Temperature   298.150 Kelvin.  Pressure   1.00000 Atm.
 Atom     1 has atomic number  6 and mass  12.00000

 Molecular mass:    63.02348 amu.
 Principal axes and moments of inertia in atomic units:
                           1         2         3
     Eigenvalues --    28.82582 749.96939 778.79521
           X            0.00000   0.00000   1.00000
           Y            1.00000   0.00000  -0.00000
           Z           -0.00000   1.00000   0.00000
 This molecule is an asymmetric top.
 Rotational symmetry number  2.
 Rotational temperatures (Kelvin)      3.00473     0.11549     0.11122
 Rotational constants (GHZ):          62.60850     2.40642     2.31735
 Zero-point vibrational energy     128262.3 (Joules/Mol)
                                   30.65541 (Kcal/Mol)
 Warning -- explicit consideration of   5 degrees of freedom as
           vibrations may cause significant error
 Vibrational temperatures:    209.68   326.81   404.70   443.69   826.19
          (Kelvin)           1036.11  1046.11  1132.91  1195.01  1196.22
                             1199.06  1206.65  1564.19  2931.56  2965.41
                             3876.38  4644.35  4647.75

 Zero-point correction=                           0.048853 (Hartree/Particle)
 Thermal correction to Energy=                    0.054477
 Thermal correction to Enthalpy=                  0.055421
 Thermal correction to Gibbs Free Energy=         0.021083
 Sum of electronic and zero-point Energies=           -191.274230
 Sum of electronic and thermal Energies=              -191.268605
 Sum of electronic and thermal Enthalpies=            -191.267661
 Sum of electronic and thermal Free Energies=         -191.301999

                     E (Thermal)             CV                S
                      KCal/Mol        Cal/Mol-Kelvin    Cal/Mol-Kelvin
 Total                   34.185             19.063             72.270
 Electronic               0.000              0.000              1.377
 Translational            0.889              2.981             38.342
 Rotational               0.889              2.981             22.958
 Vibrational             32.408             13.101              9.593
 Vibration     1          0.617              1.907              2.727
 Vibration     2          0.651              1.800              1.901
 Vibration     3          0.681              1.708              1.526
 Vibration     4          0.698              1.658              1.371
 Vibration     5          0.931              1.087              0.496

 Optimization completed.
    -- Stationary point found.
 Normal termination of Gaussian 09 at Tue Jul 19 12:18:27 2016.
