 Gaussian 09, Revision E.01,
 Gaussian 09:  EM64L-G09RevE.01 30-Nov-2015

 ---------------------------------------------
 #p b3lyp/6-311++G(3df,2p) freq symmetry=Loose
 ---------------------------------------------

 ---------
 b3lyp opt
 ---------
 Symbolic Z-matrix:
 Charge =  0 Multiplicity = 2

                         Standard orientation:
 ---------------------------------------------------------------------
 Center     Atomic      Atomic             Coordinates (Angstroms)
 Number     Number       Type             X           Y           Z
 ---------------------------------------------------------------------
      1          6           0       -1.860177   -0.742669    0.000000
      2          6           0       -0.653934   -0.255250    0.000000
      3          6           0        0.747950   -0.796816    0.000000
      4          1           0        1.127175   -1.803600    0.000000
      5          6           0        1.268113    0.502255    0.000000
      6          1           0        2.271386    0.898353    0.000000
      7          6           0        0.000000    1.095070    0.000000
      8          1           0       -0.410272    2.089709    0.000000
 ---------------------------------------------------------------------

 SCF Done:  E(UB3LYP) =  -192.137114807     A.U. after   19 cycles

 The electronic state is 2-A".
 Alpha  occ. eigenvalues --  -10.23134 -10.23113 -10.22938 -10.21467 -10.19659
 Alpha  occ. eigenvalues --   -0.92032  -0.75167  -0.68552  -0.60386  -0.55454
 Alpha  occ. eigenvalues --   -0.44251  -0.42927  -0.41788  -0.39955  -0.29662
 Alpha  occ. eigenvalues --   -0.26545  -0.22562
 Alpha virt. eigenvalues --   -0.11782  -0.04397  -0.00787   0.01148   0.01467
 Alpha virt. eigenvalues --    0.03950   0.04899   0.05760   0.06854   0.07096
 Alpha virt. eigenvalues --    0.08028   0.08745   0.10504   0.10575   0.11222

  Beta  occ. eigenvalues --  -10.22884 -10.22175 -10.22154 -10.21786 -10.19775
  Beta  occ. eigenvalues --   -0.90982  -0.75205  -0.65964  -0.60491  -0.54294
  Beta  occ. eigenvalues --   -0.43770  -0.42693  -0.39472  -0.38828  -0.29550
  Beta  occ. eigenvalues --   -0.26308
  Beta virt. eigenvalues --   -0.11405  -0.10236  -0.03632  -0.00761   0.01208
  Beta virt. eigenvalues --    0.01489   0.04155   0.05047   0.05772   0.06932
  Beta virt. eigenvalues --    0.07622   0.08043   0.09723   0.10499   0.10585

 Mulliken charges and spin densities:
               1          2
     1  C   -0.905360  -0.008934
     2  C    0.570187  -0.120362
     3  C   -0.101613   0.735428
     4  H    0.250903  -0.024091
     5  C   -0.215072  -0.299153
     6  H    0.236709   0.005068
     7  C   -0.086570   0.736129
     8  H    0.250816  -0.024085
 Sum of Mulliken charges =  -0.00000   1.00000

 Dipole moment (field-independent basis, Debye):
    X=              3.2121    Y=              1.2885    Z=              0.0000  Tot=              3.4609
 Quadrupole moment (field-independent basis, Debye-Ang):
   XX=            -33.6705   YY=            -25.9490   ZZ=            -32.2609
   XY=             -3.7015   XZ=              0.0000   YZ=              0.0000

  Exact polarizability:  74.220   6.856  59.821   0.000  -0.000  38.403
 Approx polarizability: 125.953  14.008  96.352  -0.000  -0.000  55.514

                      1                      2                      3
                     A'                     A"                     A"
 Frequencies --    158.1838               198.0197               488.1982
 Red. masses --      6.3109                 4.8021                 1.1684
 Frc consts  --      0.0930                 0.1109                 0.1641
 IR Inten    --     13.4578                 0.1531                51.8372

                      4                      5                      6
                     A"                     A"                     A'
 Frequencies --    556.7729               655.7876               727.9826
 Red. masses --      1.3267                 4.5663                 6.9043
 Frc consts  --      0.2423                 1.1570                 2.1558
 IR Inten    --      0.0029                18.8560                 7.9123

                      7                      8                      9
                     A'                     A"                     A'
 Frequencies --    851.6549               889.6831               922.5761
 Red. masses --      7.1154                 1.3252                 2.3834
 Frc consts  --      3.0407                 0.6180                 1.1952
 IR Inten    --      0.6909                 8.8288                 2.6228

                     10                     11                     12
                     A'                     A'                     A'
 Frequencies --    940.1961              1141.3801              1183.8158
 Red. masses --      1.6867                 1.9330                 1.3999
 Frc consts  --      0.8785                 1.4837                 1.1559
 IR Inten    --      5.9707                 2.7318                 3.9683

                     13                     14                     15
                     A'                     A'                     A'
 Frequencies --   1303.6190              1400.4378              1735.7867
 Red. masses --      1.8392                 3.6006                11.2717
 Frc consts  --      1.8416                 4.1606                20.0094
 IR Inten    --      4.5058                 8.2791               106.0210

                     16                     17                     18
                     A'                     A'                     A'
 Frequencies --   3221.2480              3254.1255              3264.4290
 Red. masses --      1.0908                 1.0917                 1.1092
 Frc consts  --      6.6687                 6.8114                 6.9640
 IR Inten    --      0.2250                 0.4931                 1.5312

 - Thermochemistry -
 -------------------
 Temperature   298.150 Kelvin.  Pressure   1.00000 Atm.
 Atom     1 has atomic number  6 and mass  12.00000

 Molecular mass:    63.02348 amu.
 Principal axes and moments of inertia in atomic units:
                           1         2         3
     Eigenvalues --   120.20738 308.61692 428.82429
           X            0.92879  -0.37060   0.00000
           Y            0.37060   0.92879   0.00000
           Z            0.00000   0.00000   1.00000
 This molecule is an asymmetric top.
 Rotational symmetry number  1.
 Rotational temperatures (Kelvin)      0.72054     0.28065     0.20198
 Rotational constants (GHZ):          15.01356     5.84784     4.20858
 Zero-point vibrational energy     136935.9 (Joules/Mol)
                                   32.72847 (Kcal/Mol)
 Warning -- explicit consideration of   4 degrees of freedom as
           vibrations may cause significant error
 Vibrational temperatures:    227.59   284.91   702.41   801.07   943.53
          (Kelvin)           1047.40  1225.34  1280.05  1327.38  1352.73
                             1642.19  1703.24  1875.61  2014.92  2497.41
                             4634.65  4681.95  4696.78

 Zero-point correction=                           0.052156 (Hartree/Particle)
 Thermal correction to Energy=                    0.057110
 Thermal correction to Enthalpy=                  0.058054
 Thermal correction to Gibbs Free Energy=         0.024184
 Sum of electronic and zero-point Energies=           -192.084959
 Sum of electronic and thermal Energies=              -192.080005
 Sum of electronic and thermal Enthalpies=            -192.079061
 Sum of electronic and thermal Free Energies=         -192.112930

                     E (Thermal)             CV                S
                      KCal/Mol        Cal/Mol-Kelvin    Cal/Mol-Kelvin
 Total                   35.837             16.539             71.285
 Electronic               0.000              0.000              1.377
 Translational            0.889              2.981             38.342
 Rotational               0.889              2.981             24.279
 Vibrational             34.060             10.577              7.286
 Vibration     1          0.621              1.893              2.571
 Vibration     2          0.637              1.843              2.151
 Vibration     3          0.844              1.276              0.688
 Vibration     4          0.912              1.125              0.530

 Normal termination of Gaussian 09 at Sun Jun 19 07:29:50 2016.
