 Gaussian 09, Revision E.01,
 Gaussian 09:  EM64L-G09RevE.01 30-Nov-2015

 ---------------------------------------------
 #p b3lyp/6-311++G(3df,2p) freq symmetry=Loose
 ---------------------------------------------

 ---------
 b3lyp opt
 ---------
 Symbolic Z-matrix:
 Charge =  0 Multiplicity = 2

                         Standard orientation:
 ---------------------------------------------------------------------
 Center     Atomic      Atomic             Coordinates (Angstroms)
 Number     Number       Type             X           Y           Z
 ---------------------------------------------------------------------
      1          6           0        0.000000    1.870680    0.000000
      2          1           0       -0.038943    2.421870    0.928292
      3          1           0       -0.038943    2.421870   -0.928292
      4          6           0        0.066542    0.553328    0.000000
      5          6           0        0.134441   -0.603428    0.900251
      6          6           0       -0.252771   -1.583701    0.000000
      7          1           0       -0.418016   -2.644439    0.000000
      8          6           0        0.134441   -0.603428   -0.900251
 ---------------------------------------------------------------------

 SCF Done:  E(UB3LYP) =  -192.160177778     A.U. after   16 cycles

 The electronic state is 2-A".
 Alpha  occ. eigenvalues --  -10.23842 -10.23838 -10.23159 -10.23050 -10.19439
 Alpha  occ. eigenvalues --   -0.95554  -0.77832  -0.65046  -0.59554  -0.53039
 Alpha  occ. eigenvalues --   -0.47517  -0.45033  -0.42781  -0.38865  -0.31686
 Alpha  occ. eigenvalues --   -0.27711  -0.21167
 Alpha virt. eigenvalues --   -0.07044  -0.06028   0.00149   0.00583   0.03198
 Alpha virt. eigenvalues --    0.03844   0.04672   0.05598   0.05696   0.07518
 Alpha virt. eigenvalues --    0.09040   0.09844   0.10885   0.11288   0.11504

  Beta  occ. eigenvalues --  -10.23222 -10.23009 -10.23002 -10.22944 -10.19421
  Beta  occ. eigenvalues --   -0.94505  -0.77638  -0.64896  -0.57255  -0.52928
  Beta  occ. eigenvalues --   -0.47059  -0.44762  -0.40475  -0.38104  -0.28497
  Beta  occ. eigenvalues --   -0.27496
  Beta virt. eigenvalues --   -0.09435  -0.06735  -0.05028   0.00181   0.00588
  Beta virt. eigenvalues --    0.03287   0.04155   0.04877   0.05728   0.06119
  Beta virt. eigenvalues --    0.07545   0.09076   0.10331   0.11253   0.11488

 Mulliken charges and spin densities:
               1          2
     1  C   -0.584470   0.000323
     2  H    0.182498   0.003992
     3  H    0.182498   0.003992
     4  C    0.572948   0.009250
     5  C   -0.289832   0.531035
     6  C   -0.018395  -0.083183
     7  H    0.244585   0.003556
     8  C   -0.289832   0.531035
 Sum of Mulliken charges =  -0.00000   1.00000

 Dipole moment (field-independent basis, Debye):
    X=             -0.8899    Y=              0.0645    Z=              0.0000  Tot=              0.8922
 Quadrupole moment (field-independent basis, Debye-Ang):
   XX=            -31.3853   YY=            -22.1058   ZZ=            -32.7850
   XY=              1.2172   XZ=              0.0000   YZ=              0.0000

  Exact polarizability:  37.497   2.592  84.053   0.000  -0.000  61.812
 Approx polarizability:  55.558   8.986 140.895   0.000   0.000 126.666

                      1                      2                      3
                     A'                     A"                     A"
 Frequencies --    270.1399               351.5757               628.7145
 Red. masses --      3.4911                 2.6493                 1.7676
 Frc consts  --      0.1501                 0.1929                 0.4117
 IR Inten    --      8.5842                 2.1653                17.1063

                      4                      5                      6
                     A'                     A'                     A"
 Frequencies --    673.1560               721.2326               773.9419
 Red. masses --      9.3822                 5.6646                 1.7982
 Frc consts  --      2.5049                 1.7361                 0.6346
 IR Inten    --      2.1867                 9.3685                24.1381

                      7                      8                      9
                     A'                     A'                     A'
 Frequencies --    843.5974               918.3671               944.9494
 Red. masses --      1.3264                 1.3406                 6.3321
 Frc consts  --      0.5561                 0.6662                 3.3313
 IR Inten    --     29.7069                42.9920                 4.0865

                     10                     11                     12
                     A"                     A"                     A"
 Frequencies --    949.8156              1069.0044              1163.5626
 Red. masses --      3.3988                 1.4523                 1.7535
 Frc consts  --      1.8065                 0.9778                 1.3987
 IR Inten    --     15.0486                 4.1838                 0.6441

                     13                     14                     15
                     A'                     A'                     A'
 Frequencies --   1432.0490              1442.5629              1774.9181
 Red. masses --      5.9644                 1.1896                 8.1666
 Frc consts  --      7.2067                 1.4585                15.1583
 IR Inten    --      1.0444                 3.2230                22.5193

                     16                     17                     18
                     A'                     A"                     A'
 Frequencies --   3153.6325              3242.0520              3292.4487
 Red. masses --      1.0586                 1.1174                 1.1056
 Frc consts  --      6.2032                 6.9197                 7.0614
 IR Inten    --      0.0909                 0.4914                 7.4425

 - Thermochemistry -
 -------------------
 Temperature   298.150 Kelvin.  Pressure   1.00000 Atm.
 Atom     1 has atomic number  6 and mass  12.00000

 Molecular mass:    63.02348 amu.
 Principal axes and moments of inertia in atomic units:
                           1         2         3
     Eigenvalues --    80.13683 373.98883 445.17786
           X            0.04151   0.00000   0.99914
           Y            0.99914   0.00000  -0.04151
           Z            0.00000   1.00000  -0.00000
 This molecule is an asymmetric top.
 Rotational symmetry number  1.
 Rotational temperatures (Kelvin)      1.08082     0.23159     0.19456
 Rotational constants (GHZ):          22.52075     4.82566     4.05398
 Zero-point vibrational energy     141432.8 (Joules/Mol)
                                   33.80325 (Kcal/Mol)
 Warning -- explicit consideration of   2 degrees of freedom as
           vibrations may cause significant error
 Vibrational temperatures:    388.67   505.84   904.58   968.52  1037.69
          (Kelvin)           1113.53  1213.75  1321.32  1359.57  1366.57
                             1538.06  1674.11  2060.40  2075.52  2553.71
                             4537.37  4664.58  4737.09

 Zero-point correction=                           0.053869 (Hartree/Particle)
 Thermal correction to Energy=                    0.058248
 Thermal correction to Enthalpy=                  0.059193
 Thermal correction to Gibbs Free Energy=         0.026636
 Sum of electronic and zero-point Energies=           -192.106309
 Sum of electronic and thermal Energies=              -192.101929
 Sum of electronic and thermal Enthalpies=            -192.100985
 Sum of electronic and thermal Free Energies=         -192.133542

                     E (Thermal)             CV                S
                      KCal/Mol        Cal/Mol-Kelvin    Cal/Mol-Kelvin
 Total                   36.551             15.284             68.521
 Electronic               0.000              0.000              1.377
 Translational            0.889              2.981             38.342
 Rotational               0.889              2.981             24.104
 Vibrational             34.774              9.323              4.697
 Vibration     1          0.674              1.728              1.595
 Vibration     2          0.728              1.572              1.159

 Optimization completed.
    -- Stationary point found.
 Normal termination of Gaussian 09 at Sun Jun 19 07:43:45 2016.
