 Gaussian 09, Revision E.01,
 Gaussian 09:  EM64L-G09RevE.01 30-Nov-2015

 ---------------------------------------------
 #p b3lyp/6-311++G(3df,2p) freq symmetry=Loose
 ---------------------------------------------

 ---------
 b3lyp opt
 ---------
 Symbolic Z-matrix:
 Charge =  3 Multiplicity = 3

                         Standard orientation:
 ---------------------------------------------------------------------
 Center     Atomic      Atomic             Coordinates (Angstroms)
 Number     Number       Type             X           Y           Z
 ---------------------------------------------------------------------
      1          6           0        0.183960   -1.680716   -0.000000
      2          6           0        0.183960   -0.566398    0.795446
      3          6           0        0.183960   -0.566398   -0.795446
      4          1           0        0.225511   -2.800937   -0.000000
      5          6           0        0.173209    0.770626    0.000000
      6          1           0        1.169685    1.354756    0.000000
      7          6           0       -0.736318    1.820335    0.000000
      8          1           0       -1.327826    2.781484    0.000000
 ---------------------------------------------------------------------

 SCF Done:  E(UB3LYP) =  -190.370050916     A.U. after   16 cycles

 The electronic state is 3-A".
 Alpha  occ. eigenvalues --  -11.09224 -11.09208 -11.06875 -11.03163 -10.99759
 Alpha  occ. eigenvalues --   -1.74941  -1.55872  -1.40665  -1.32870  -1.26432
 Alpha  occ. eigenvalues --   -1.22453  -1.19939  -1.18320  -1.10287  -1.09452
 Alpha  occ. eigenvalues --   -1.00725
 Alpha virt. eigenvalues --   -0.86132  -0.83798  -0.78217  -0.73984  -0.60645
 Alpha virt. eigenvalues --   -0.54828  -0.53194  -0.52041  -0.47521  -0.46805
 Alpha virt. eigenvalues --   -0.45666  -0.43957  -0.42158  -0.41283  -0.38422

  Beta  occ. eigenvalues --  -11.07733 -11.07725 -11.05406 -11.03334 -10.99782
  Beta  occ. eigenvalues --   -1.73791  -1.54134  -1.38543  -1.27703  -1.25278
  Beta  occ. eigenvalues --   -1.21819  -1.18944  -1.16307  -1.09453
  Beta virt. eigenvalues --   -0.92882  -0.84909  -0.84206  -0.80625  -0.73343
  Beta virt. eigenvalues --   -0.70351  -0.59589  -0.52744  -0.52604  -0.51102
  Beta virt. eigenvalues --   -0.46831  -0.45986  -0.44520  -0.43261  -0.41669

 Mulliken charges and spin densities:
               1          2
     1  C    0.034815  -0.085559
     2  C    0.703134   0.712264
     3  C    0.703134   0.712264
     4  H    0.435636   0.025287
     5  C    0.069633  -0.150472
     6  H    0.352300  -0.003885
     7  C    0.206133   0.808724
     8  H    0.495215  -0.018623
 Sum of Mulliken charges =   3.00000   2.00000

 Dipole moment (field-independent basis, Debye):
    X=             -0.9267    Y=              2.4164    Z=              0.0000  Tot=              2.5880
 Quadrupole moment (field-independent basis, Debye-Ang):
   XX=            -14.0434   YY=             24.1572   ZZ=            -17.6796
   XY=             -9.7353   XZ=             -0.0000   YZ=              0.0000

  Exact polarizability:  28.118  -7.519  54.889   0.000  -0.000  29.143
 Approx polarizability:  46.625 -12.686  85.836   0.000  -0.000  65.809

                      1                      2                      3
                     A"                     A'                     A"
 Frequencies --    200.9333               229.1131               287.1300
 Red. masses --      2.7419                 3.3125                 1.4129
 Frc consts  --      0.0652                 0.1024                 0.0686
 IR Inten    --      8.5204                20.7120                56.6397

                      4                      5                      6
                     A"                     A'                     A'
 Frequencies --    423.5466               467.0861               712.3164
 Red. masses --      9.2974                 3.2088                 5.2695
 Frc consts  --      0.9827                 0.4125                 1.5753
 IR Inten    --      0.0990                 4.8241                17.2895

                      7                      8                      9
                     A'                     A'                     A"
 Frequencies --    812.0883               885.9934               895.8854
 Red. masses --      1.2508                 3.6937                 1.3157
 Frc consts  --      0.4860                 1.7083                 0.6222
 IR Inten    --     42.6216                38.7780                12.8810

                     10                     11                     12
                     A"                     A'                     A'
 Frequencies --    957.7402               976.1150              1018.1818
 Red. masses --      1.2758                 2.2170                 1.5828
 Frc consts  --      0.6895                 1.2446                 0.9668
 IR Inten    --     99.5976                31.6961                12.1058

                     13                     14                     15
                     A"                     A'                     A'
 Frequencies --   1071.3973              1373.3128              1515.0738
 Red. masses --      4.7348                 2.5932                 6.6259
 Frc consts  --      3.2023                 2.8816                 8.9612
 IR Inten    --      8.4505                22.2707                89.8024

                     16                     17                     18
                     A'                     A'                     A'
 Frequencies --   2509.1725              2797.8683              2844.7027
 Red. masses --      1.0773                 1.1146                 1.1279
 Frc consts  --      3.9964                 5.1409                 5.3777
 IR Inten    --    431.7946               906.5025               513.6131

 - Thermochemistry -
 -------------------
 Temperature   298.150 Kelvin.  Pressure   1.00000 Atm.
 Atom     1 has atomic number  6 and mass  12.00000

 Molecular mass:    63.02348 amu.
 Principal axes and moments of inertia in atomic units:
                           1         2         3
     Eigenvalues --    74.94391 418.89941 452.41316
           X           -0.22791   0.00000   0.97368
           Y            0.97368   0.00000   0.22791
           Z            0.00000   1.00000   0.00000
 This molecule is an asymmetric top.
 Rotational symmetry number  1.
 Rotational temperatures (Kelvin)      1.15572     0.20677     0.19145
 Rotational constants (GHZ):          24.08123     4.30829     3.98914
 Zero-point vibrational energy     119492.9 (Joules/Mol)
                                   28.55949 (Kcal/Mol)
 Warning -- explicit consideration of   5 degrees of freedom as
           vibrations may cause significant error
 Vibrational temperatures:    289.10   329.64   413.12   609.39   672.03
          (Kelvin)           1024.86  1168.41  1274.75  1288.98  1377.97
                             1404.41  1464.93  1541.50  1975.89  2179.85
                             3610.14  4025.50  4092.89

 Zero-point correction=                           0.045512 (Hartree/Particle)
 Thermal correction to Energy=                    0.050848
 Thermal correction to Enthalpy=                  0.051792
 Thermal correction to Gibbs Free Energy=         0.017107
 Sum of electronic and zero-point Energies=           -190.324538
 Sum of electronic and thermal Energies=              -190.319203
 Sum of electronic and thermal Enthalpies=            -190.318259
 Sum of electronic and thermal Free Energies=         -190.352944

                     E (Thermal)             CV                S
                      KCal/Mol        Cal/Mol-Kelvin    Cal/Mol-Kelvin
 Total                   31.907             18.181             73.000
 Electronic               0.000              0.000              2.183
 Translational            0.889              2.981             38.342
 Rotational               0.889              2.981             24.167
 Vibrational             30.130             12.219              8.308
 Vibration     1          0.638              1.839              2.125
 Vibration     2          0.652              1.797              1.886
 Vibration     3          0.684              1.698              1.491
 Vibration     4          0.786              1.419              0.880
 Vibration     5          0.824              1.323              0.746

 Optimization completed.
    -- Stationary point found.
 Normal termination of Gaussian 09 at Tue Jul 19 19:22:52 2016.
