 Gaussian 09, Revision E.01,
 Gaussian 09:  EM64L-G09RevE.01 30-Nov-2015

 ---------------------------------------------
 #p b3lyp/6-311++G(3df,2p) freq symmetry=Loose
 ---------------------------------------------

 ---------
 b3lyp opt
 ---------
 Symbolic Z-matrix:
 Charge =  2 Multiplicity = 4

                         Standard orientation:
 ---------------------------------------------------------------------
 Center     Atomic      Atomic             Coordinates (Angstroms)
 Number     Number       Type             X           Y           Z
 ---------------------------------------------------------------------
      1          6           0       -0.542381   -0.976671   -0.227405
      2          6           0       -1.628529   -0.174435    0.042186
      3          6           0        0.541437   -0.046481    0.271009
      4          1           0        0.802973   -0.173397    1.375454
      5          6           0        1.856598    0.127244   -0.159833
      6          1           0        2.825266   -0.362546   -0.341249
      7          6           0       -0.708876    0.851406   -0.019218
      8          1           0       -0.737732    1.849559   -0.474644
 ---------------------------------------------------------------------

 SCF Done:  E(UB3LYP) =  -191.133061491     A.U. after   18 cycles

 The electronic state is 4-A.
 Alpha  occ. eigenvalues --  -10.80665 -10.77835 -10.74675 -10.74401 -10.74049
 Alpha  occ. eigenvalues --   -1.44372  -1.29459  -1.12066  -1.10717  -1.01366
 Alpha  occ. eigenvalues --   -0.98166  -0.94056  -0.92782  -0.82671  -0.79567
 Alpha  occ. eigenvalues --   -0.77729  -0.74099
 Alpha virt. eigenvalues --   -0.62165  -0.55062  -0.48799  -0.36525  -0.33730
 Alpha virt. eigenvalues --   -0.31018  -0.30177  -0.27916  -0.26391  -0.25261
 Alpha virt. eigenvalues --   -0.24095  -0.22681  -0.21148  -0.20166  -0.19653

  Beta  occ. eigenvalues --  -10.78957 -10.75927 -10.74483 -10.73967 -10.72121
  Beta  occ. eigenvalues --   -1.42047  -1.26587  -1.09312  -1.07291  -0.99223
  Beta  occ. eigenvalues --   -0.96231  -0.91217  -0.89606  -0.79976
  Beta virt. eigenvalues --   -0.62166  -0.60625  -0.59461  -0.57007  -0.51689
  Beta virt. eigenvalues --   -0.45147  -0.34910  -0.32697  -0.29918  -0.29417
  Beta virt. eigenvalues --   -0.26640  -0.25182  -0.24595  -0.23585  -0.21919

 Mulliken charges and spin densities:
               1          2
     1  C    0.227384   0.975270
     2  C    0.426447   0.917842
     3  C    0.462030  -0.106629
     4  H    0.307855  -0.008126
     5  C   -0.165804   1.009433
     6  H    0.367281   0.006515
     7  C    0.055993   0.167758
     8  H    0.318814   0.037937
 Sum of Mulliken charges =   2.00000   3.00000

 Dipole moment (field-independent basis, Debye):
    X=              3.6522    Y=              0.6101    Z=              0.0314  Tot=              3.7029
 Quadrupole moment (field-independent basis, Debye-Ang):
   XX=              1.0082   YY=            -17.3612   ZZ=            -20.6510
   XY=             -2.2322   XZ=              0.0179   YZ=             -1.0010

  Exact polarizability:  56.888   0.438  39.086  -1.993  -0.084  28.496
 Approx polarizability:  95.974   2.873  75.974  -7.047   1.776  46.055

                      1                      2                      3
                      A                      A                      A
 Frequencies --    193.4147               335.5319               391.4837
 Red. masses --      3.7775                 2.6264                 3.4134
 Frc consts  --      0.0833                 0.1742                 0.3082
 IR Inten    --      9.5584                 9.6427                15.8326

                      4                      5                      6
                      A                      A                      A
 Frequencies --    578.1882               637.2213               714.1023
 Red. masses --      1.6509                 2.8875                 1.9861
 Frc consts  --      0.3252                 0.6908                 0.5967
 IR Inten    --     54.6457                 9.3878                13.8603

                      7                      8                      9
                      A                      A                      A
 Frequencies --    751.0317               792.1994               831.9211
 Red. masses --      2.2413                 3.8320                 1.2437
 Frc consts  --      0.7448                 1.4169                 0.5071
 IR Inten    --      2.5856                 1.5630                44.1958

                     10                     11                     12
                      A                      A                      A
 Frequencies --    939.6744              1026.3495              1092.0854
 Red. masses --      1.5330                 1.4264                 1.3519
 Frc consts  --      0.7975                 0.8853                 0.9500
 IR Inten    --     10.5413                 2.3830                22.8885

                     13                     14                     15
                      A                      A                      A
 Frequencies --   1256.6474              1328.7350              1455.3323
 Red. masses --      8.3579                 6.0907                 8.7821
 Frc consts  --      7.7764                 6.3357                10.9590
 IR Inten    --     22.7382                52.2286                19.5948

                     16                     17                     18
                      A                      A                      A
 Frequencies --   2641.7127              3058.1020              3062.6285
 Red. masses --      1.0720                 1.0986                 1.1012
 Frc consts  --      4.4079                 6.0532                 6.0857
 IR Inten    --    222.9278               240.9308               195.1822

 - Thermochemistry -
 -------------------
 Temperature   298.150 Kelvin.  Pressure   1.00000 Atm.
 Atom     1 has atomic number  6 and mass  12.00000

 Molecular mass:    63.02348 amu.
 Principal axes and moments of inertia in atomic units:
                           1         2         3
     Eigenvalues --   101.08900 355.30444 427.61502
           X            0.99940  -0.03403   0.00690
           Y            0.03433   0.99822  -0.04876
           Z           -0.00523   0.04897   0.99879
 This molecule is an asymmetric top.
 Rotational symmetry number  1.
 Rotational temperatures (Kelvin)      0.85681     0.24377     0.20255
 Rotational constants (GHZ):          17.85299     5.07942     4.22048
 Zero-point vibrational energy     126124.5 (Joules/Mol)
                                   30.14447 (Kcal/Mol)
 Warning -- explicit consideration of   4 degrees of freedom as
           vibrations may cause significant error
 Vibrational temperatures:    278.28   482.75   563.26   831.88   916.82
          (Kelvin)           1027.43  1080.57  1139.80  1196.95  1351.98
                             1476.69  1571.27  1808.03  1911.75  2093.90
                             3800.83  4399.92  4406.43

 Zero-point correction=                           0.048038 (Hartree/Particle)
 Thermal correction to Energy=                    0.052936
 Thermal correction to Enthalpy=                  0.053880
 Thermal correction to Gibbs Free Energy=         0.019709
 Sum of electronic and zero-point Energies=           -191.085023
 Sum of electronic and thermal Energies=              -191.080125
 Sum of electronic and thermal Enthalpies=            -191.079181
 Sum of electronic and thermal Free Energies=         -191.113352

                     E (Thermal)             CV                S
                      KCal/Mol        Cal/Mol-Kelvin    Cal/Mol-Kelvin
 Total                   33.218             17.215             71.919
 Electronic               0.000              0.000              2.755
 Translational            0.889              2.981             38.342
 Rotational               0.889              2.981             24.244
 Vibrational             31.440             11.253              6.578
 Vibration     1          0.635              1.849              2.195
 Vibration     2          0.717              1.605              1.233
 Vibration     3          0.759              1.488              0.994
 Vibration     4          0.935              1.078              0.489

 Optimization completed.
    -- Stationary point found.
 Normal termination of Gaussian 09 at Sun Jun 19 13:06:46 2016.
