 Gaussian 09, Revision E.01,
 Gaussian 09:  EM64L-G09RevE.01 30-Nov-2015

 ---------------------------------------------
 #p b3lyp/6-311++G(3df,2p) freq symmetry=Loose
 ---------------------------------------------

 ---------
 b3lyp opt
 ---------
 Symbolic Z-matrix:
 Charge =  2 Multiplicity = 2

                         Standard orientation:
 ---------------------------------------------------------------------
 Center     Atomic      Atomic             Coordinates (Angstroms)
 Number     Number       Type             X           Y           Z
 ---------------------------------------------------------------------
      1          6           0        0.404908   -0.119420    0.000014
      2          6           0       -0.932296   -0.026058   -0.000073
      3          6           0        1.620578   -0.762761    0.000014
      4          6           0       -2.210847    0.066119   -0.000156
      5          6           0        1.696398    0.549538    0.000204
      6          1           0       -2.853170   -0.837888   -0.000332
      7          1           0       -2.741218    1.038197   -0.000059
      8          1           0        2.121939    1.555180    0.000378
 ---------------------------------------------------------------------

 SCF Done:  E(UB3LYP) =  -191.316240080     A.U. after   16 cycles

 The electronic state is 2-A.
 Alpha  occ. eigenvalues --  -10.76562 -10.76318 -10.75123 -10.74483 -10.69282
 Alpha  occ. eigenvalues --   -1.44597  -1.29649  -1.18484  -1.05478  -0.97563
 Alpha  occ. eigenvalues --   -0.95195  -0.91962  -0.89778  -0.89462  -0.78625
 Alpha  occ. eigenvalues --   -0.77782
 Alpha virt. eigenvalues --   -0.58451  -0.56466  -0.48605  -0.37562  -0.33253
 Alpha virt. eigenvalues --   -0.31384  -0.29759  -0.28637  -0.26263  -0.25567
 Alpha virt. eigenvalues --   -0.25453  -0.22667  -0.21557  -0.20195  -0.19864

  Beta  occ. eigenvalues --  -10.76420 -10.74929 -10.74573 -10.74408 -10.69320
  Beta  occ. eigenvalues --   -1.43854  -1.29110  -1.17910  -1.04862  -0.97036
  Beta  occ. eigenvalues --   -0.92700  -0.90943  -0.89251  -0.87680  -0.78259
  Beta virt. eigenvalues --   -0.63725  -0.56371  -0.55113  -0.46584  -0.37077
  Beta virt. eigenvalues --   -0.33042  -0.30993  -0.29573  -0.27764  -0.26048
  Beta virt. eigenvalues --   -0.25433  -0.24698  -0.22523  -0.21063  -0.19876

 Mulliken charges and spin densities:
               1          2
     1  C    0.148631   0.010510
     2  C    0.399257   0.125077
     3  C    0.275264   0.817269
     4  C    0.020865  -0.016105
     5  C    0.145216   0.037038
     6  H    0.321613   0.012830
     7  H    0.323036   0.015415
     8  H    0.366117  -0.002034
 Sum of Mulliken charges =   2.00000   1.00000

 Dipole moment (field-independent basis, Debye):
    X=             -1.6741    Y=              1.3480    Z=              0.0001  Tot=              2.1494
 Quadrupole moment (field-independent basis, Debye-Ang):
   XX=             15.9512   YY=            -15.7769   ZZ=            -24.5237
   XY=              2.5296   XZ=              0.0034   YZ=              0.0014

  Exact polarizability:  87.902  -1.462  34.024   0.005   0.001  24.041
 Approx polarizability: 167.303  -7.529  57.149   0.009   0.003  34.836

                      1                      2                      3
                      A                      A                      A
 Frequencies --    180.5598               206.6537               416.1371
 Red. masses --      3.0487                 4.9767                 1.9920
 Frc consts  --      0.0586                 0.1252                 0.2032
 IR Inten    --      9.4494                13.2405                 4.7671

                      4                      5                      6
                      A                      A                      A
 Frequencies --    418.7608               546.9903               685.8291
 Red. masses --      1.1426                 7.4192                 5.5016
 Frc consts  --      0.1181                 1.3079                 1.5247
 IR Inten    --      0.3973                 0.3201                 7.4592

                      7                      8                      9
                      A                      A                      A
 Frequencies --    805.0137               875.8153               888.8304
 Red. masses --      2.9751                 1.3297                 2.7496
 Frc consts  --      1.1359                 0.6010                 1.2798
 IR Inten    --      6.1626                31.8369                68.8914

                     10                     11                     12
                      A                      A                      A
 Frequencies --    955.1457               991.3505              1230.5168
 Red. masses --      1.3365                 1.6027                 1.1857
 Frc consts  --      0.7184                 0.9280                 1.0578
 IR Inten    --     44.4758                25.7986               113.9522

                     13                     14                     15
                      A                      A                      A
 Frequencies --   1350.5530              1653.0725              1833.1902
 Red. masses --      5.8278                 8.2224                 8.8824
 Frc consts  --      6.2629                13.2383                17.5872
 IR Inten    --     27.1442                14.0218                 2.7386

                     16                     17                     18
                      A                      A                      A
 Frequencies --   2909.0059              2965.6890              3149.8068
 Red. masses --      1.0581                 1.1075                 1.1303
 Frc consts  --      5.2756                 5.7393                 6.6073
 IR Inten    --    613.2229               261.8278               262.3320

 - Thermochemistry -
 -------------------
 Temperature   298.150 Kelvin.  Pressure   1.00000 Atm.
 Atom     1 has atomic number  6 and mass  12.00000

 Molecular mass:    63.02348 amu.
 Principal axes and moments of inertia in atomic units:
                           1         2         3
     Eigenvalues --    53.45254 561.65448 615.10702
           X            0.99982   0.01917  -0.00007
           Y           -0.01917   0.99982  -0.00014
           Z            0.00007   0.00014   1.00000
 This molecule is an asymmetric top.
 Rotational symmetry number  1.
 Rotational temperatures (Kelvin)      1.62039     0.15421     0.14081
 Rotational constants (GHZ):          33.76343     3.21326     2.93403
 Zero-point vibrational energy     131965.6 (Joules/Mol)
                                   31.54053 (Kcal/Mol)
 Warning -- explicit consideration of   5 degrees of freedom as
           vibrations may cause significant error
 Vibrational temperatures:    259.78   297.33   598.73   602.50   787.00
          (Kelvin)            986.75  1158.23  1260.10  1278.83  1374.24
                             1426.33  1770.44  1943.14  2378.40  2637.55
                             4185.41  4266.96  4531.86

 Zero-point correction=                           0.050263 (Hartree/Particle)
 Thermal correction to Energy=                    0.055435
 Thermal correction to Enthalpy=                  0.056380
 Thermal correction to Gibbs Free Energy=         0.022172
 Sum of electronic and zero-point Energies=           -191.265977
 Sum of electronic and thermal Energies=              -191.260805
 Sum of electronic and thermal Enthalpies=            -191.259860
 Sum of electronic and thermal Free Energies=         -191.294068

                     E (Thermal)             CV                S
                      KCal/Mol        Cal/Mol-Kelvin    Cal/Mol-Kelvin
 Total                   34.786             17.411             71.997
 Electronic               0.000              0.000              1.377
 Translational            0.889              2.981             38.342
 Rotational               0.889              2.981             24.427
 Vibrational             33.009             11.449              7.850
 Vibration     1          0.630              1.866              2.323
 Vibration     2          0.641              1.830              2.073
 Vibration     3          0.779              1.435              0.905
 Vibration     4          0.782              1.429              0.896
 Vibration     5          0.902              1.146              0.550

 Optimization completed.
    -- Stationary point found.
 Normal termination of Gaussian 09 at Tue Jul 19 11:40:49 2016.
