 Gaussian 09, Revision E.01,
 Gaussian 09:  EM64L-G09RevE.01 30-Nov-2015

 ---------------------------------------------
 #p b3lyp/6-311++G(3df,2p) freq symmetry=Loose
 ---------------------------------------------

 ---------
 b3lyp opt
 ---------
 Symbolic Z-matrix:
 Charge =  3 Multiplicity = 1

                         Standard orientation:
 ---------------------------------------------------------------------
 Center     Atomic      Atomic             Coordinates (Angstroms)
 Number     Number       Type             X           Y           Z
 ---------------------------------------------------------------------
      1          6           0        0.000000    2.160962   -0.000000
      2          6           0        0.086338    0.575673   -0.000000
      3          6           0        0.182950   -0.453774    1.002623
      4          1           0        0.628022   -0.577302    2.015204
      5          6           0       -0.451736   -1.292437    0.000000
      6          1           0       -1.259072   -2.065392    0.000000
      7          6           0        0.182950   -0.453774   -1.002623
      8          1           0        0.628022   -0.577302   -2.015204
 ---------------------------------------------------------------------

 SCF Done:  E(RB3LYP) =  -190.413960376     A.U. after   13 cycles

 The electronic state is 1-A'.
 Alpha  occ. eigenvalues --  -11.16675 -11.02515 -11.02010 -11.02009 -11.01611
 Alpha  occ. eigenvalues --   -1.70579  -1.47831  -1.40126  -1.33476  -1.24681
 Alpha  occ. eigenvalues --   -1.17890  -1.17122  -1.13651  -1.11597  -1.06402
 Alpha virt. eigenvalues --   -0.91777  -0.88597  -0.81995  -0.78979  -0.71919
 Alpha virt. eigenvalues --   -0.58893  -0.54281  -0.52060  -0.51847  -0.48389
 Alpha virt. eigenvalues --   -0.48135  -0.45607  -0.43915  -0.42829  -0.40806

 Mulliken charges:
               1
     1  C    0.655746
     2  C    0.440794
     3  C    0.273366
     4  H    0.411849
     5  C    0.165835
     6  H    0.367196
     7  C    0.273366
     8  H    0.411849
 Sum of Mulliken charges =   3.00000

 Dipole moment (field-independent basis, Debye):
    X=             -0.1066    Y=              0.6172    Z=              0.0000  Tot=              0.6264
 Quadrupole moment (field-independent basis, Debye-Ang):
   XX=            -17.1612   YY=              7.3321   ZZ=             -5.2989
   XY=              3.5910   XZ=              0.0000   YZ=              0.0000

  Exact polarizability:  25.468   3.421  54.685  -0.000   0.000  37.697
 Approx polarizability:  39.898   6.753 105.129  -0.000   0.000  65.041

                      1                      2                      3
                     A'                     A"                     A'
 Frequencies --    231.6522               288.8412               425.6725
 Red. masses --      3.8001                 5.5997                 2.6175
 Frc consts  --      0.1201                 0.2753                 0.2794
 IR Inten    --      0.9633                 0.0717                 6.4215

                      4                      5                      6
                     A'                     A'                     A"
 Frequencies --    495.7867               715.6393               888.3663
 Red. masses --      4.9007                 3.1921                 1.9559
 Frc consts  --      0.7097                 0.9632                 0.9094
 IR Inten    --    110.7617               213.2070                 0.9772

                      7                      8                      9
                     A'                     A"                     A'
 Frequencies --    938.6108               944.6742              1004.0807
 Red. masses --      1.4656                 2.1237                 1.7030
 Frc consts  --      0.7608                 1.1166                 1.0116
 IR Inten    --     27.0424                 3.3319                26.4311

                     10                     11                     12
                     A'                     A"                     A"
 Frequencies --   1057.8572              1059.5825              1118.7503
 Red. masses --      1.6194                 1.3670                 1.2940
 Frc consts  --      1.0677                 0.9042                 0.9542
 IR Inten    --    125.1099                 3.5191                 0.2722

                     13                     14                     15
                     A"                     A'                     A'
 Frequencies --   1242.2943              1257.0312              1295.1888
 Red. masses --      3.8503                 3.5553                 5.8510
 Frc consts  --      3.5010                 3.3099                 5.7829
 IR Inten    --    150.4652               225.2073               106.8327

                     16                     17                     18
                     A'                     A"                     A'
 Frequencies --   2873.2660              2930.4076              2945.7918
 Red. masses --      1.1028                 1.1128                 1.1208
 Frc consts  --      5.3642                 5.6300                 5.7302
 IR Inten    --    481.1520               603.1638                91.8525

 - Thermochemistry -
 -------------------
 Temperature   298.150 Kelvin.  Pressure   1.00000 Atm.
 Atom     1 has atomic number  6 and mass  12.00000

 Molecular mass:    63.02348 amu.
 Principal axes and moments of inertia in atomic units:
                           1         2         3
     Eigenvalues --   133.49395 341.19279 438.47332
           X            0.08816   0.00000   0.99611
           Y            0.99611   0.00000  -0.08816
           Z            0.00000   1.00000   0.00000
 This molecule is an asymmetric top.
 Rotational symmetry number  1.
 Rotational temperatures (Kelvin)      0.64882     0.25386     0.19753
 Rotational constants (GHZ):          13.51927     5.28951     4.11597
 Zero-point vibrational energy     129875.5 (Joules/Mol)
                                   31.04100 (Kcal/Mol)
 Warning -- explicit consideration of   4 degrees of freedom as
           vibrations may cause significant error
 Vibrational temperatures:    333.30   415.58   612.45   713.33  1029.64
          (Kelvin)           1278.16  1350.45  1359.17  1444.65  1522.02
                             1524.50  1609.63  1787.38  1808.59  1863.49
                             4133.98  4216.20  4238.33

 Zero-point correction=                           0.049467 (Hartree/Particle)
 Thermal correction to Energy=                    0.054171
 Thermal correction to Enthalpy=                  0.055115
 Thermal correction to Gibbs Free Energy=         0.022427
 Sum of electronic and zero-point Energies=           -190.364493
 Sum of electronic and thermal Energies=              -190.359789
 Sum of electronic and thermal Enthalpies=            -190.358845
 Sum of electronic and thermal Free Energies=         -190.391534

                     E (Thermal)             CV                S
                      KCal/Mol        Cal/Mol-Kelvin    Cal/Mol-Kelvin
 Total                   33.993             16.102             68.799
 Electronic               0.000              0.000              0.000
 Translational            0.889              2.981             38.342
 Rotational               0.889              2.981             24.505
 Vibrational             32.215             10.140              5.952
 Vibration     1          0.653              1.793              1.866
 Vibration     2          0.685              1.694              1.481
 Vibration     3          0.788              1.414              0.873
 Vibration     4          0.851              1.259              0.669

 Optimization completed.
    -- Stationary point found.
 Normal termination of Gaussian 09 at Sun Jun 19 13:48:24 2016.
