 Gaussian 09, Revision E.01,
 Gaussian 09:  EM64L-G09RevE.01 30-Nov-2015

 ---------------------------------------------
 #p b3lyp/6-311++G(3df,2p) freq symmetry=Loose
 ---------------------------------------------

 ---------
 b3lyp opt
 ---------
 Symbolic Z-matrix:
 Charge =  0 Multiplicity = 4

                         Standard orientation:
 ---------------------------------------------------------------------
 Center     Atomic      Atomic             Coordinates (Angstroms)
 Number     Number       Type             X           Y           Z
 ---------------------------------------------------------------------
      1          6           0       -2.146851   -0.897535   -0.000000
      2          1           0       -2.896602   -0.106064   -0.000000
      3          1           0       -2.516909   -1.914902   -0.000000
      4          6           0       -0.846723   -0.618541   -0.000000
      5          6           0        0.000000    0.481936    0.000000
      6          1           0       -0.441514    1.481595   -0.000000
      7          6           0        1.375655    0.407835    0.000000
      8          6           0        2.593757    0.716200    0.000000
 ---------------------------------------------------------------------

 SCF Done:  E(UB3LYP) =  -192.081688902     A.U. after   19 cycles

 The electronic state is 4-A".
 Alpha  occ. eigenvalues --  -10.24333 -10.23492 -10.23060 -10.22444 -10.20270
 Alpha  occ. eigenvalues --   -0.85726  -0.79992  -0.73467  -0.59681  -0.53051
 Alpha  occ. eigenvalues --   -0.49170  -0.45661  -0.39452  -0.37812  -0.32299
 Alpha  occ. eigenvalues --   -0.32104  -0.25242  -0.22549
 Alpha virt. eigenvalues --   -0.02801  -0.01702  -0.00243   0.01666   0.02492
 Alpha virt. eigenvalues --    0.04190   0.04651   0.05524   0.06395   0.07327
 Alpha virt. eigenvalues --    0.08135   0.08197   0.09710   0.10538   0.11552

  Beta  occ. eigenvalues --  -10.22804 -10.22694 -10.22379 -10.21169 -10.19709
  Beta  occ. eigenvalues --   -0.82927  -0.76854  -0.70204  -0.57288  -0.50466
  Beta  occ. eigenvalues --   -0.47430  -0.43968  -0.36258  -0.30151  -0.28857
  Beta virt. eigenvalues --   -0.20204  -0.12501  -0.10193  -0.00771   0.00521
  Beta virt. eigenvalues --    0.01133   0.02153   0.03250   0.04643   0.05388
  Beta virt. eigenvalues --    0.05784   0.07474   0.07483   0.08470   0.09421

 Mulliken charges and spin densities:
               1          2
     1  C   -0.529821   0.225015
     2  H    0.137973   0.067551
     3  H    0.178837   0.014219
     4  C    0.280761   0.952638
     5  C   -0.182538   0.278252
     6  H    0.140436   0.052455
     7  C    0.639609   0.206740
     8  C   -0.665257   1.203130
 Sum of Mulliken charges =   0.00000   3.00000

 Dipole moment (field-independent basis, Debye):
    X=             -2.2962    Y=             -0.1723    Z=             -0.0000  Tot=              2.3026
 Quadrupole moment (field-independent basis, Debye-Ang):
   XX=            -29.9644   YY=            -28.9004   ZZ=            -32.2050
   XY=             -2.2368   XZ=             -0.0000   YZ=             -0.0000

  Exact polarizability: 151.878  35.457  57.697  -0.000  -0.000  41.633
 Approx polarizability: 210.738  50.910  83.219   0.000   0.000  55.759

                      1                      2                      3
                     A'                     A"                     A'
 Frequencies --    159.4413               173.1333               326.9338
 Red. masses --      4.6261                 4.1648                 3.4551
 Frc consts  --      0.0693                 0.0736                 0.2176
 IR Inten    --      1.5200                 2.0569                14.8463

                      4                      5                      6
                     A"                     A'                     A"
 Frequencies --    396.7542               523.7780               596.4293
 Red. masses --      8.6602                 7.6973                 1.4028
 Frc consts  --      0.8032                 1.2442                 0.2940
 IR Inten    --      2.3255                 0.7986                 0.0786

                      7                      8                      9
                     A"                     A"                     A'
 Frequencies --    734.9959               833.7257               845.8095
 Red. masses --      1.3190                 1.3533                 3.2947
 Frc consts  --      0.4198                 0.5542                 1.3887
 IR Inten    --      8.2699                42.3264               588.3929

                     10                     11                     12
                     A'                     A'                     A'
 Frequencies --    983.4968              1129.3751              1192.7649
 Red. masses --      1.8601                 4.0992                 1.5358
 Frc consts  --      1.0601                 3.0805                 1.2873
 IR Inten    --    528.0776               356.7408               549.2959

                     13                     14                     15
                     A'                     A'                     A'
 Frequencies --   1391.4255              1421.2287              1542.9081
 Red. masses --      2.6106                 1.5836                 5.1611
 Frc consts  --      2.9778                 1.8847                 7.2389
 IR Inten    --    453.7315                 4.1336               131.0527

                     16                     17                     18
                     A'                     A'                     A'
 Frequencies --   3035.8337              3056.1067              3175.8727
 Red. masses --      1.0799                 1.0619                 1.1018
 Frc consts  --      5.8638                 5.8437                 6.5475
 IR Inten    --      6.6149                 5.2809                 0.8324

 - Thermochemistry -
 -------------------
 Temperature   298.150 Kelvin.  Pressure   1.00000 Atm.
 Atom     1 has atomic number  6 and mass  12.00000

 Molecular mass:    63.02348 amu.
 Principal axes and moments of inertia in atomic units:
                           1         2         3
     Eigenvalues --    29.70814 730.79754 760.50569
           X            0.94016  -0.34072   0.00000
           Y            0.34072   0.94016   0.00000
           Z           -0.00000   0.00000   1.00000
 This molecule is an asymmetric top.
 Rotational symmetry number  1.
 Rotational temperatures (Kelvin)      2.91549     0.11852     0.11389
 Rotational constants (GHZ):          60.74904     2.46955     2.37308
 Zero-point vibrational energy     128718.3 (Joules/Mol)
                                   30.76440 (Kcal/Mol)
 Warning -- explicit consideration of   6 degrees of freedom as
           vibrations may cause significant error
 Vibrational temperatures:    229.40   249.10   470.38   570.84   753.60
          (Kelvin)            858.13  1057.49  1199.54  1216.93  1415.03
                             1624.92  1716.12  2001.95  2044.83  2219.90
                             4367.88  4397.05  4569.37

 Zero-point correction=                           0.049026 (Hartree/Particle)
 Thermal correction to Energy=                    0.054491
 Thermal correction to Enthalpy=                  0.055435
 Thermal correction to Gibbs Free Energy=         0.020018
 Sum of electronic and zero-point Energies=           -192.032663
 Sum of electronic and thermal Energies=              -192.027198
 Sum of electronic and thermal Enthalpies=            -192.026254
 Sum of electronic and thermal Free Energies=         -192.061671

                     E (Thermal)             CV                S
                      KCal/Mol        Cal/Mol-Kelvin    Cal/Mol-Kelvin
 Total                   34.194             18.137             74.542
 Electronic               0.000              0.000              2.755
 Translational            0.889              2.981             38.342
 Rotational               0.889              2.981             24.316
 Vibrational             32.416             12.175              9.129
 Vibration     1          0.621              1.892              2.556
 Vibration     2          0.627              1.876              2.401
 Vibration     3          0.711              1.622              1.275
 Vibration     4          0.763              1.477              0.975
 Vibration     5          0.879              1.197              0.601
 Vibration     6          0.954              1.039              0.456

 Optimization completed.
    -- Stationary point found.
 Normal termination of Gaussian 09 at Sun Jun 19 08:26:36 2016.
