 Gaussian 09, Revision E.01,
 Gaussian 09:  EM64L-G09RevE.01 30-Nov-2015

 ------------------------------------------------------
 #p b3lyp/6-311++G(3df,2p) freq IOp(2/17=3) IOp(2/18=3)
 ------------------------------------------------------

 ---------
 b3lyp opt
 ---------
 Symbolic Z-matrix:
 Charge =  3 Multiplicity = 1

                         Standard orientation:
 ---------------------------------------------------------------------
 Center     Atomic      Atomic             Coordinates (Angstroms)
 Number     Number       Type             X           Y           Z
 ---------------------------------------------------------------------
      1          6           0        0.259492   -0.801267    0.000000
      2          6           0        0.105253    0.395309    0.870639
      3          6           0       -0.000000    1.529073   -0.000000
      4          6           0        0.105253    0.395309   -0.870639
      5          1           0        1.318167   -1.276125    0.000000
      6          1           0        0.776846    2.408435    0.000000
      7          1           0       -0.902080    2.273452   -0.000000
      8          6           0       -0.668938   -2.086039    0.000000
 ---------------------------------------------------------------------

 SCF Done:  E(RB3LYP) =  -190.276776747     A.U. after   15 cycles

 The electronic state is 1-A'.
 Alpha  occ. eigenvalues --  -11.18072 -11.06381 -11.06374 -11.01135 -10.96857
 Alpha  occ. eigenvalues --   -1.71693  -1.51830  -1.38904  -1.31312  -1.25691
 Alpha  occ. eigenvalues --   -1.20050  -1.16973  -1.14083  -1.07278  -1.02671
 Alpha virt. eigenvalues --   -0.90292  -0.88861  -0.87079  -0.82596  -0.78045
 Alpha virt. eigenvalues --   -0.57344  -0.56303  -0.54747  -0.50221  -0.48928
 Alpha virt. eigenvalues --   -0.47934  -0.46992  -0.46862  -0.41659  -0.40283

 Mulliken charges:
               1
     1  C    0.239504
     2  C    0.678703
     3  C   -0.375719
     4  C    0.678703
     5  H    0.367998
     6  H    0.375685
     7  H    0.380907
     8  C    0.654221
 Sum of Mulliken charges =   3.00000

 Dipole moment (field-independent basis, Debye):
    X=              0.0184    Y=             -0.2523    Z=              0.0000  Tot=              0.2530
 Quadrupole moment (field-independent basis, Debye-Ang):
   XX=            -14.2162   YY=             20.0144   ZZ=            -19.5877
   XY=              1.7759   XZ=              0.0000   YZ=              0.0000

  Exact polarizability:  31.354   3.111  66.937  -0.000  -0.000  36.889
 Approx polarizability:  55.494   7.616 129.136   0.000  -0.000 100.977

                      1                      2                      3
                     A'                     A"                     A'
 Frequencies --    240.6293               245.3459               422.7705
 Red. masses --      3.2506                 6.1361                 1.7618
 Frc consts  --      0.1109                 0.2176                 0.1855
 IR Inten    --     16.8160                 3.1816               106.4922

                      4                      5                      6
                     A"                     A'                     A'
 Frequencies --    511.2168               597.9451               712.4226
 Red. masses --      5.3909                 6.0184                 2.9881
 Frc consts  --      0.8301                 1.2678                 0.8935
 IR Inten    --     49.3660               148.4203                24.7626

                      7                      8                      9
                     A"                     A'                     A'
 Frequencies --    715.4146               739.2340               809.9869
 Red. masses --      1.1124                 2.0583                 1.9060
 Frc consts  --      0.3355                 0.6627                 0.7368
 IR Inten    --      1.0662               541.2203               307.3982

                     10                     11                     12
                     A"                     A"                     A"
 Frequencies --    857.6075               945.8526               981.8862
 Red. masses --      9.0039                 1.2848                 1.2202
 Frc consts  --      3.9017                 0.6772                 0.6931
 IR Inten    --      2.9953                80.3889                17.3784

                     13                     14                     15
                     A'                     A'                     A'
 Frequencies --   1000.4002              1141.2444              1291.4945
 Red. masses --      1.6474                 3.9151                 4.7931
 Frc consts  --      0.9714                 3.0043                 4.7103
 IR Inten    --      0.4678               364.3419                14.8735

                     16                     17                     18
                     A'                     A'                     A'
 Frequencies --   2268.5406              2402.2461              2470.7045
 Red. masses --      1.0767                 1.0731                 1.0895
 Frc consts  --      3.2648                 3.6486                 3.9185
 IR Inten    --    553.7754              1696.2428               530.3547

 - Thermochemistry -
 -------------------
 Temperature   298.150 Kelvin.  Pressure   1.00000 Atm.
 Atom     1 has atomic number  6 and mass  12.00000

 Molecular mass:    63.02348 amu.
 Principal axes and moments of inertia in atomic units:
                           1         2         3
     Eigenvalues --    92.69543 406.55209 443.78845
           X            0.13665   0.00000   0.99062
           Y            0.99062   0.00000  -0.13665
           Z           -0.00000   1.00000  -0.00000
 This molecule is an asymmetric top.
 Rotational symmetry number  1.
 Rotational temperatures (Kelvin)      0.93439     0.21304     0.19517
 Rotational constants (GHZ):          19.46958     4.43914     4.06667
 Zero-point vibrational energy     109786.9 (Joules/Mol)
                                   26.23971 (Kcal/Mol)
 Warning -- explicit consideration of   5 degrees of freedom as
           vibrations may cause significant error
 Vibrational temperatures:    346.21   353.00   608.27   735.53   860.31
          (Kelvin)           1025.02  1029.32  1063.59  1165.39  1233.90
                             1360.87  1412.71  1439.35  1641.99  1858.17
                             3263.92  3456.29  3554.79

 Zero-point correction=                           0.041816 (Hartree/Particle)
 Thermal correction to Energy=                    0.046912
 Thermal correction to Enthalpy=                  0.047856
 Thermal correction to Gibbs Free Energy=         0.014692
 Sum of electronic and zero-point Energies=           -190.234961
 Sum of electronic and thermal Energies=              -190.229865
 Sum of electronic and thermal Enthalpies=            -190.228921
 Sum of electronic and thermal Free Energies=         -190.262084

                     E (Thermal)             CV                S
                      KCal/Mol        Cal/Mol-Kelvin    Cal/Mol-Kelvin
 Total                   29.438             18.371             69.799
 Electronic               0.000              0.000              0.000
 Translational            0.889              2.981             38.342
 Rotational               0.889              2.981             24.329
 Vibrational             27.660             12.409              7.128
 Vibration     1          0.658              1.778              1.798
 Vibration     2          0.660              1.770              1.764
 Vibration     3          0.785              1.421              0.883
 Vibration     4          0.866              1.225              0.631
 Vibration     5          0.956              1.036              0.453

 Optimization completed.
    -- Stationary point found.
 Normal termination of Gaussian 09 at Thu Jan 31 05:59:00 2019.
