 Gaussian 09, Revision E.01,
 Gaussian 09:  EM64L-G09RevE.01 30-Nov-2015

 ------------------------------------------------------
 #p b3lyp/6-311++G(3df,2p) freq IOp(2/17=3) IOp(2/18=3)
 ------------------------------------------------------

 ---------
 b3lyp opt
 ---------
 Symbolic Z-matrix:
 Charge =  1 Multiplicity = 1

                         Standard orientation:
 ---------------------------------------------------------------------
 Center     Atomic      Atomic             Coordinates (Angstroms)
 Number     Number       Type             X           Y           Z
 ---------------------------------------------------------------------
      1          6           0        0.000000    0.244536    0.000000
      2          6           0       -1.072209    1.088873    0.000000
      3          6           0        0.643780    1.465080    0.000000
      4          1           0        0.056447    2.407665    0.000000
      5          1           0        1.723055    1.623425    0.000000
      6          6           0        0.388863   -1.127211    0.000000
      7          6           0       -0.496536   -2.103895    0.000000
      8          1           0        1.437110   -1.435388    0.000000
 ---------------------------------------------------------------------

 SCF Done:  E(RB3LYP) =  -191.745665490     A.U. after   12 cycles

 The electronic state is 1-A'.
 Alpha  occ. eigenvalues --  -10.54810 -10.52598 -10.50632 -10.48016 -10.42108
 Alpha  occ. eigenvalues --   -1.18743  -1.03903  -0.90784  -0.86401  -0.75119
 Alpha  occ. eigenvalues --   -0.73896  -0.68480  -0.65708  -0.56276  -0.52220
 Alpha  occ. eigenvalues --   -0.51374
 Alpha virt. eigenvalues --   -0.36011  -0.32946  -0.30858  -0.28936  -0.16599
 Alpha virt. eigenvalues --   -0.16112  -0.13756  -0.12178  -0.11395  -0.09969
 Alpha virt. eigenvalues --   -0.08692  -0.07022  -0.06045  -0.05844  -0.04757

 Mulliken charges:
               1
     1  C    1.035471
     2  C   -0.101789
     3  C   -0.314176
     4  H    0.242101
     5  H    0.264119
     6  C    0.121203
     7  C   -0.467521
     8  H    0.220593
 Sum of Mulliken charges =   1.00000

 Dipole moment (field-independent basis, Debye):
    X=              3.3931    Y=              3.2786    Z=              0.0000  Tot=              4.7183
 Quadrupole moment (field-independent basis, Debye-Ang):
   XX=            -22.2031   YY=            -16.6495   ZZ=            -28.0886
   XY=              0.8850   XZ=              0.0000   YZ=              0.0000

  Exact polarizability:  49.318   6.371  70.666   0.002  -0.001  31.452
 Approx polarizability:  95.640  22.231 117.612  -0.000  -0.000  48.268

                      1                      2                      3
                     A"                     A'                     A'
 Frequencies --    138.2074               149.9290               209.9939
 Red. masses --      3.9515                 2.6807                 2.5143
 Frc consts  --      0.0445                 0.0355                 0.0653
 IR Inten    --      0.5720                 1.8406                21.7516

                      4                      5                      6
                     A"                     A'                     A"
 Frequencies --    351.5302               427.9215               554.5763
 Red. masses --      2.7760                 6.3053                 1.0905
 Frc consts  --      0.2021                 0.6803                 0.1976
 IR Inten    --      5.7577                15.7527                 7.4887

                      7                      8                      9
                     A'                     A"                     A'
 Frequencies --    676.8822               735.3953               889.8990
 Red. masses --      3.0819                 1.7289                 6.4033
 Frc consts  --      0.8320                 0.5509                 2.9877
 IR Inten    --     39.4711                19.2537                13.3201

                     10                     11                     12
                     A"                     A'                     A'
 Frequencies --    946.1989              1015.0847              1276.7745
 Red. masses --      1.3563                 1.2148                 1.8752
 Frc consts  --      0.7155                 0.7375                 1.8011
 IR Inten    --     40.0420                 5.9507                52.4597

                     13                     14                     15
                     A'                     A'                     A'
 Frequencies --   1389.8799              1634.8647              1705.8979
 Red. masses --      1.7014                 7.4591                10.9841
 Frc consts  --      1.9365                11.7462                18.8330
 IR Inten    --     40.6186                10.6005               394.2154

                     16                     17                     18
                     A'                     A'                     A'
 Frequencies --   2922.8057              3086.3488              3120.0507
 Red. masses --      1.0661                 1.0855                 1.0971
 Frc consts  --      5.3662                 6.0921                 6.2925
 IR Inten    --    211.0585                67.7583               118.4751

 - Thermochemistry -
 -------------------
 Temperature   298.150 Kelvin.  Pressure   1.00000 Atm.
 Atom     1 has atomic number  6 and mass  12.00000

 Molecular mass:    63.02348 amu.
 Principal axes and moments of inertia in atomic units:
                           1         2         3
     Eigenvalues --   100.51256 427.98170 528.49426
           X            0.05823   0.99830   0.00000
           Y            0.99830  -0.05823   0.00000
           Z            0.00000  -0.00000   1.00000
 This molecule is an asymmetric top.
 Rotational symmetry number  1.
 Rotational temperatures (Kelvin)      0.86172     0.20238     0.16389
 Rotational constants (GHZ):          17.95538     4.21687     3.41487
 Zero-point vibrational energy     126997.0 (Joules/Mol)
                                   30.35301 (Kcal/Mol)
 Warning -- explicit consideration of   6 degrees of freedom as
           vibrations may cause significant error
 Vibrational temperatures:    198.85   215.71   302.13   505.77   615.68
          (Kelvin)            797.91   973.88  1058.07  1280.36  1361.37
                             1460.48  1836.99  1999.72  2352.20  2454.40
                             4205.26  4440.56  4489.05

 Zero-point correction=                           0.048371 (Hartree/Particle)
 Thermal correction to Energy=                    0.054268
 Thermal correction to Enthalpy=                  0.055212
 Thermal correction to Gibbs Free Energy=         0.020009
 Sum of electronic and zero-point Energies=           -191.697295
 Sum of electronic and thermal Energies=              -191.691397
 Sum of electronic and thermal Enthalpies=            -191.690453
 Sum of electronic and thermal Free Energies=         -191.725657

                     E (Thermal)             CV                S
                      KCal/Mol        Cal/Mol-Kelvin    Cal/Mol-Kelvin
 Total                   34.054             19.021             74.092
 Electronic               0.000              0.000              0.000
 Translational            0.889              2.981             38.342
 Rotational               0.889              2.981             24.634
 Vibrational             32.276             13.059             11.116
 Vibration     1          0.614              1.915              2.829
 Vibration     2          0.618              1.903              2.673
 Vibration     3          0.642              1.826              2.044
 Vibration     4          0.728              1.572              1.159
 Vibration     5          0.789              1.409              0.865
 Vibration     6          0.910              1.130              0.535

 Normal termination of Gaussian 09 at Thu Jan 31 05:43:51 2019.
