 Gaussian 09, Revision E.01,
 Gaussian 09:  EM64L-G09RevE.01 30-Nov-2015

 ---------------------------------------------
 #p b3lyp/6-311++G(3df,2p) freq symmetry=Loose
 ---------------------------------------------

 ---------
 b3lyp opt
 ---------
 Symbolic Z-matrix:
 Charge =  0 Multiplicity = 2

                         Standard orientation:
 ---------------------------------------------------------------------
 Center     Atomic      Atomic             Coordinates (Angstroms)
 Number     Number       Type             X           Y           Z
 ---------------------------------------------------------------------
      1          6           0       -0.222093   -0.329597   -0.000247
      2          6           0       -1.413016   -0.801218   -0.000340
      3          1           0       -1.681366    1.221465   -0.916806
      4          6           0       -1.472190    0.677573    0.000228
      5          1           0       -1.680902    1.220949    0.917875
      6          6           0        1.189448   -0.290415    0.000238
      7          1           0        1.764622   -1.241537    0.001835
      8          6           0        2.184125    0.543510   -0.000364
 ---------------------------------------------------------------------

 SCF Done:  E(UB3LYP) =  -192.077122223     A.U. after   19 cycles

 The electronic state is 2-A.
 Alpha  occ. eigenvalues --  -10.25450 -10.24002 -10.23585 -10.22827 -10.21928
 Alpha  occ. eigenvalues --   -0.91439  -0.82819  -0.66379  -0.61540  -0.51807
 Alpha  occ. eigenvalues --   -0.48124  -0.43016  -0.40738  -0.36151  -0.31973
 Alpha  occ. eigenvalues --   -0.26957  -0.26379
 Alpha virt. eigenvalues --   -0.11478  -0.06057  -0.00770   0.00412   0.02251
 Alpha virt. eigenvalues --    0.03587   0.04116   0.04795   0.06261   0.07023
 Alpha virt. eigenvalues --    0.07046   0.08608   0.09193   0.11254   0.11332

  Beta  occ. eigenvalues --  -10.25477 -10.23875 -10.23102 -10.21909 -10.21637
  Beta  occ. eigenvalues --   -0.90350  -0.82621  -0.65741  -0.60449  -0.51322
  Beta  occ. eigenvalues --   -0.47722  -0.40258  -0.37520  -0.36171  -0.31869
  Beta  occ. eigenvalues --   -0.26433
  Beta virt. eigenvalues --   -0.14115  -0.11400  -0.05276  -0.00497   0.00510
  Beta virt. eigenvalues --    0.02269   0.03834   0.04503   0.04980   0.06321
  Beta virt. eigenvalues --    0.07026   0.07228   0.09288   0.09473   0.11327

 Mulliken charges and spin densities:
               1          2
     1  C    0.498220   0.101313
     2  C   -0.095816   0.607742
     3  H    0.163154  -0.010215
     4  C   -0.548732   0.305720
     5  H    0.163035  -0.010217
     6  C    0.291287   0.011468
     7  H    0.177684   0.015442
     8  C   -0.648832  -0.021253
 Sum of Mulliken charges =  -0.00000   1.00000

 Dipole moment (field-independent basis, Debye):
    X=             -0.9577    Y=             -0.2519    Z=              0.0024  Tot=              0.9903
 Quadrupole moment (field-independent basis, Debye-Ang):
   XX=            -35.6774   YY=            -29.0429   ZZ=            -30.6280
   XY=             -7.1218   XZ=              0.0034   YZ=             -0.0047

  Exact polarizability:  84.196   5.327  56.175   0.003   0.003  41.066
 Approx polarizability: 138.978  22.120  93.836   0.003  -0.003  58.449

                      1                      2                      3
                      A                      A                      A
 Frequencies --    106.5732               143.2992               265.8061
 Red. masses --      6.9693                 2.4939                 2.3339
 Frc consts  --      0.0466                 0.0302                 0.0972
 IR Inten    --     31.2288                23.9711                 5.4532

                      4                      5                      6
                      A                      A                      A
 Frequencies --    333.6711               589.6639               613.6701
 Red. masses --      3.5275                 5.7065                 2.2001
 Frc consts  --      0.2314                 1.1690                 0.4882
 IR Inten    --      2.1971                 8.3281                 5.7265

                      7                      8                      9
                      A                      A                      A
 Frequencies --    753.5724               855.6953               989.8928
 Red. masses --      1.2414                 2.7462                 1.8326
 Frc consts  --      0.4154                 1.1848                 1.0580
 IR Inten    --      5.5772                 1.9498                20.0733

                     10                     11                     12
                      A                      A                      A
 Frequencies --   1019.5179              1057.2038              1073.9070
 Red. masses --      1.6955                 3.4680                 1.2719
 Frc consts  --      1.0383                 2.2837                 0.8643
 IR Inten    --     39.2807                 0.4790                 0.1237

                     13                     14                     15
                      A                      A                      A
 Frequencies --   1505.9160              1736.3687              1902.0420
 Red. masses --      1.0971                 9.6917                11.2167
 Frc consts  --      1.4659                17.2161                23.9086
 IR Inten    --      4.4324                33.4708                21.9840

                     16                     17                     18
                      A                      A                      A
 Frequencies --   2919.9058              3059.4614              3140.2700
 Red. masses --      1.0760                 1.0463                 1.1191
 Frc consts  --      5.4048                 5.7704                 6.5024
 IR Inten    --     37.9597                33.8197                13.2235

 - Thermochemistry -
 -------------------
 Temperature   298.150 Kelvin.  Pressure   1.00000 Atm.
 Atom     1 has atomic number  6 and mass  12.00000

 Molecular mass:    63.02348 amu.
 Principal axes and moments of inertia in atomic units:
                           1         2         3
     Eigenvalues --    89.09517 484.34391 561.32457
           X            0.99839  -0.05681   0.00002
           Y            0.05681   0.99839  -0.00007
           Z           -0.00001   0.00007   1.00000
 This molecule is an asymmetric top.
 Rotational symmetry number  1.
 Rotational temperatures (Kelvin)      0.97215     0.17883     0.15430
 Rotational constants (GHZ):          20.25633     3.72616     3.21515
 Zero-point vibrational energy     131986.6 (Joules/Mol)
                                   31.54555 (Kcal/Mol)
 Warning -- explicit consideration of   6 degrees of freedom as
           vibrations may cause significant error
 Vibrational temperatures:    153.33   206.18   382.44   480.08   848.39
          (Kelvin)            882.93  1084.22  1231.15  1424.23  1466.86
                             1521.08  1545.11  2166.67  2498.24  2736.61
                             4201.09  4401.88  4518.14

 Zero-point correction=                           0.050271 (Hartree/Particle)
 Thermal correction to Energy=                    0.055937
 Thermal correction to Enthalpy=                  0.056881
 Thermal correction to Gibbs Free Energy=         0.021234
 Sum of electronic and zero-point Energies=           -192.026851
 Sum of electronic and thermal Energies=              -192.021185
 Sum of electronic and thermal Enthalpies=            -192.020241
 Sum of electronic and thermal Free Energies=         -192.055888

                     E (Thermal)             CV                S
                      KCal/Mol        Cal/Mol-Kelvin    Cal/Mol-Kelvin
 Total                   35.101             18.000             75.027
 Electronic               0.000              0.000              1.377
 Translational            0.889              2.981             38.342
 Rotational               0.889              2.981             24.697
 Vibrational             33.324             12.038             10.610
 Vibration     1          0.605              1.944              3.330
 Vibration     2          0.616              1.910              2.759
 Vibration     3          0.672              1.736              1.623
 Vibration     4          0.715              1.608              1.242
 Vibration     5          0.947              1.054              0.468
 Vibration     6          0.973              1.003              0.427

 Normal termination of Gaussian 09 at Sun Jun 19 07:03:14 2016.
