 Gaussian 09, Revision E.01,
 Gaussian 09:  EM64L-G09RevE.01 30-Nov-2015

 ---------------------------------------------
 #p b3lyp/6-311++G(3df,2p) freq symmetry=Loose
 ---------------------------------------------

 ---------
 b3lyp opt
 ---------
 Symbolic Z-matrix:
 Charge =  3 Multiplicity = 1

                         Standard orientation:
 ---------------------------------------------------------------------
 Center     Atomic      Atomic             Coordinates (Angstroms)
 Number     Number       Type             X           Y           Z
 ---------------------------------------------------------------------
      1          6           0       -0.768324    0.000024    0.345027
      2          6           0        0.404406    0.870639    0.061672
      3          6           0        1.520018   -0.000011   -0.166160
      4          6           0        0.404406   -0.870631    0.061791
      5          1           0       -1.125327    0.000099    1.449034
      6          1           0        2.478590    0.000035    0.510528
      7          1           0        2.161963   -0.000078   -1.143788
      8          6           0       -2.146377   -0.000030   -0.438293
 ---------------------------------------------------------------------

 SCF Done:  E(RB3LYP) =  -190.276777748     A.U. after   13 cycles

 The electronic state is 1-A.
 Alpha  occ. eigenvalues --  -11.18073 -11.06381 -11.06374 -11.01135 -10.96857
 Alpha  occ. eigenvalues --   -1.71693  -1.51830  -1.38905  -1.31312  -1.25692
 Alpha  occ. eigenvalues --   -1.20050  -1.16973  -1.14083  -1.07278  -1.02671
 Alpha virt. eigenvalues --   -0.90292  -0.88861  -0.87079  -0.82595  -0.78045
 Alpha virt. eigenvalues --   -0.57344  -0.56303  -0.54746  -0.50220  -0.48926
 Alpha virt. eigenvalues --   -0.47934  -0.46983  -0.46862  -0.41653  -0.40281

 Mulliken charges:
               1
     1  C    0.239432
     2  C    0.678963
     3  C   -0.376178
     4  C    0.678963
     5  H    0.368004
     6  H    0.375690
     7  H    0.380920
     8  C    0.654205
 Sum of Mulliken charges =   3.00000

 Dipole moment (field-independent basis, Debye):
    X=             -0.2489    Y=              0.0000    Z=              0.0460  Tot=              0.2531
 Quadrupole moment (field-independent basis, Debye-Ang):
   XX=             19.9940   YY=            -19.5877   ZZ=            -14.1956
   XY=             -0.0001   XZ=             -1.9635   YZ=              0.0004

  Exact polarizability:  67.190  -0.000  36.889  -0.807  -0.001  31.103
 Approx polarizability: 129.914  -0.000 100.976  -0.518  -0.003  54.719

                      1                      2                      3
                      A                      A                      A
 Frequencies --    241.4338               245.1180               423.3218
 Red. masses --      3.2682                 6.1322                 1.7568
 Frc consts  --      0.1122                 0.2171                 0.1855
 IR Inten    --     16.6720                 3.1827               106.6314

                      4                      5                      6
                      A                      A                      A
 Frequencies --    511.2847               598.0908               712.4205
 Red. masses --      5.3895                 6.0136                 2.9947
 Frc consts  --      0.8301                 1.2674                 0.8955
 IR Inten    --     49.3972               148.0067                24.8879

                      7                      8                      9
                      A                      A                      A
 Frequencies --    715.0304               739.5824               810.3786
 Red. masses --      1.1126                 2.0728                 1.8930
 Frc consts  --      0.3351                 0.6680                 0.7324
 IR Inten    --      1.0591               537.7597               311.1483

                     10                     11                     12
                      A                      A                      A
 Frequencies --    857.5572               945.5453               981.4731
 Red. masses --      9.0059                 1.2847                 1.2203
 Frc consts  --      3.9021                 0.6767                 0.6926
 IR Inten    --      2.9853                80.5649                17.1868

                     13                     14                     15
                      A                      A                      A
 Frequencies --   1000.4828              1141.4093              1291.4092
 Red. masses --      1.6473                 3.9097                 4.7932
 Frc consts  --      0.9715                 3.0010                 4.7098
 IR Inten    --      0.4923               364.2367                14.9020

                     16                     17                     18
                      A                      A                      A
 Frequencies --   2267.8230              2401.7741              2470.2495
 Red. masses --      1.0767                 1.0731                 1.0895
 Frc consts  --      3.2626                 3.6473                 3.9170
 IR Inten    --    554.0092              1697.8412               528.6370

 - Thermochemistry -
 -------------------
 Temperature   298.150 Kelvin.  Pressure   1.00000 Atm.
 Atom     1 has atomic number  6 and mass  12.00000

 Molecular mass:    63.02348 amu.
 Principal axes and moments of inertia in atomic units:
                           1         2         3
     Eigenvalues --    92.69543 406.55285 443.78795
           X            0.99960   0.00000  -0.02820
           Y            0.00000   1.00000   0.00007
           Z            0.02820  -0.00007   0.99960
 This molecule is an asymmetric top.
 Rotational symmetry number  1.
 Rotational temperatures (Kelvin)      0.93439     0.21304     0.19517
 Rotational constants (GHZ):          19.46958     4.43913     4.06667
 Zero-point vibrational energy     109783.6 (Joules/Mol)
                                   26.23891 (Kcal/Mol)
 Warning -- explicit consideration of   5 degrees of freedom as
           vibrations may cause significant error
 Vibrational temperatures:    347.37   352.67   609.06   735.62   860.52
          (Kelvin)           1025.01  1028.77  1064.09  1165.95  1233.83
                             1360.43  1412.12  1439.47  1642.23  1858.05
                             3262.89  3455.61  3554.13

 Zero-point correction=                           0.041814 (Hartree/Particle)
 Thermal correction to Energy=                    0.046909
 Thermal correction to Enthalpy=                  0.047853
 Thermal correction to Gibbs Free Energy=         0.014693
 Sum of electronic and zero-point Energies=           -190.234963
 Sum of electronic and thermal Energies=              -190.229869
 Sum of electronic and thermal Enthalpies=            -190.228924
 Sum of electronic and thermal Free Energies=         -190.262085

                     E (Thermal)             CV                S
                      KCal/Mol        Cal/Mol-Kelvin    Cal/Mol-Kelvin
 Total                   29.436             18.368             69.792
 Electronic               0.000              0.000              0.000
 Translational            0.889              2.981             38.342
 Rotational               0.889              2.981             24.329
 Vibrational             27.658             12.407              7.122
 Vibration     1          0.658              1.777              1.792
 Vibration     2          0.660              1.771              1.765
 Vibration     3          0.785              1.420              0.881
 Vibration     4          0.866              1.225              0.631
 Vibration     5          0.956              1.036              0.453

 Optimization completed.
    -- Stationary point found.
 Normal termination of Gaussian 09 at Tue Jul 19 16:00:40 2016.
