 Gaussian 09, Revision E.01,
 Gaussian 09:  EM64L-G09RevE.01 30-Nov-2015

 ---------------------------------------------
 #p b3lyp/6-311++G(3df,2p) freq symmetry=Loose
 ---------------------------------------------

 ---------
 b3lyp opt
 ---------
 Symbolic Z-matrix:
 Charge =  1 Multiplicity = 1

                         Standard orientation:
 ---------------------------------------------------------------------
 Center     Atomic      Atomic             Coordinates (Angstroms)
 Number     Number       Type             X           Y           Z
 ---------------------------------------------------------------------
      1          6           0       -2.342159   -0.159068    0.000005
      2          1           0       -3.382991   -0.408444    0.000498
      3          6           0       -1.162888    0.120647   -0.000025
      4          6           0        1.218181   -0.448476   -0.000123
      5          6           0        2.446113    0.074012    0.000177
      6          6           0        0.159660    0.479007   -0.000125
      7          1           0        0.392653    1.542016    0.000082
      8          1           0        1.076905   -1.530311   -0.000031
 ---------------------------------------------------------------------

 SCF Done:  E(RB3LYP) =  -191.850131642     A.U. after   14 cycles

 The electronic state is 1-A.
 Alpha  occ. eigenvalues --  -10.51892 -10.51135 -10.44994 -10.43623 -10.42695
 Alpha  occ. eigenvalues --   -1.10046  -1.02119  -0.94325  -0.79555  -0.78740
 Alpha  occ. eigenvalues --   -0.74362  -0.68686  -0.61367  -0.54480  -0.53293
 Alpha  occ. eigenvalues --   -0.52541
 Alpha virt. eigenvalues --   -0.37833  -0.34960  -0.22038  -0.20550  -0.14674
 Alpha virt. eigenvalues --   -0.14175  -0.13880  -0.11604  -0.09983  -0.09668
 Alpha virt. eigenvalues --   -0.08218  -0.06939  -0.05265  -0.05161  -0.04268

 Mulliken charges:
               1
     1  C    0.174079
     2  H    0.368891
     3  C    0.056779
     4  C    0.082703
     5  C   -0.177550
     6  C    0.043200
     7  H    0.231540
     8  H    0.220359
 Sum of Mulliken charges =   1.00000

 Dipole moment (field-independent basis, Debye):
    X=             -1.7715    Y=             -0.6946    Z=              0.0002  Tot=              1.9028
 Quadrupole moment (field-independent basis, Debye-Ang):
   XX=             -8.1852   YY=            -22.0388   ZZ=            -27.6299
   XY=             -0.5083   XZ=             -0.0021   YZ=             -0.0004

  Exact polarizability: 107.664   2.406  38.571   0.003  -0.001  30.697
 Approx polarizability: 231.105  10.352  59.573   0.007   0.000  44.760

                      1                      2                      3
                      A                      A                      A
 Frequencies --    140.5699               144.1867               225.4164
 Red. masses --      5.1052                 6.1300                 4.9062
 Frc consts  --      0.0594                 0.0751                 0.1469
 IR Inten    --      0.3993                 6.2042                15.0128

                      4                      5                      6
                      A                      A                      A
 Frequencies --    332.8227               536.4207               694.1623
 Red. masses --      3.7599                 5.1801                 1.2441
 Frc consts  --      0.2454                 0.8782                 0.3532
 IR Inten    --     17.5298                10.7852                45.0673

                      7                      8                      9
                      A                      A                      A
 Frequencies --    811.7619               844.7093               960.8544
 Red. masses --      1.3438                 1.3421                 1.5076
 Frc consts  --      0.5217                 0.5642                 0.8201
 IR Inten    --     44.4196                10.2524                 8.0960

                     10                     11                     12
                      A                      A                      A
 Frequencies --    972.2478              1106.2132              1244.2879
 Red. masses --      2.1954                 1.7863                 1.7917
 Frc consts  --      1.2227                 1.2879                 1.6344
 IR Inten    --      2.2704                 1.2142                97.0650

                     13                     14                     15
                      A                      A                      A
 Frequencies --   1424.4278              1611.9255              2165.5502
 Red. masses --      2.5006                 5.9108                 6.1399
 Frc consts  --      2.9893                 9.0487                16.9647
 IR Inten    --      2.3799               669.1797               566.9115

                     16                     17                     18
                      A                      A                      A
 Frequencies --   3102.2313              3130.6344              3389.3002
 Red. masses --      1.0884                 1.0891                 1.1626
 Frc consts  --      6.1716                 6.2891                 7.8690
 IR Inten    --     61.6415                30.6461               100.1539

 - Thermochemistry -
 -------------------
 Temperature   298.150 Kelvin.  Pressure   1.00000 Atm.
 Atom     1 has atomic number  6 and mass  12.00000

 Molecular mass:    63.02348 amu.
 Principal axes and moments of inertia in atomic units:
                           1         2         3
     Eigenvalues --    37.96952 659.83689 697.80640
           X            1.00000   0.00200  -0.00001
           Y           -0.00200   1.00000  -0.00000
           Z            0.00001   0.00000   1.00000
 This molecule is an asymmetric top.
 Rotational symmetry number  1.
 Rotational temperatures (Kelvin)      2.28114     0.13127     0.12412
 Rotational constants (GHZ):          47.53132     2.73513     2.58631
 Zero-point vibrational energy     136599.9 (Joules/Mol)
                                   32.64816 (Kcal/Mol)
 Warning -- explicit consideration of   5 degrees of freedom as
           vibrations may cause significant error
 Vibrational temperatures:    202.25   207.45   324.32   478.86   771.79
          (Kelvin)            998.74  1167.94  1215.35  1382.45  1398.85
                             1591.59  1790.25  2049.43  2319.20  3115.74
                             4463.41  4504.28  4876.44

 Zero-point correction=                           0.052028 (Hartree/Particle)
 Thermal correction to Energy=                    0.057664
 Thermal correction to Enthalpy=                  0.058608
 Thermal correction to Gibbs Free Energy=         0.023918
 Sum of electronic and zero-point Energies=           -191.798103
 Sum of electronic and thermal Energies=              -191.792468
 Sum of electronic and thermal Enthalpies=            -191.791523
 Sum of electronic and thermal Free Energies=         -191.826213

                     E (Thermal)             CV                S
                      KCal/Mol        Cal/Mol-Kelvin    Cal/Mol-Kelvin
 Total                   36.185             17.854             73.011
 Electronic               0.000              0.000              0.000
 Translational            0.889              2.981             38.342
 Rotational               0.889              2.981             24.373
 Vibrational             34.407             11.893             10.297
 Vibration     1          0.615              1.913              2.796
 Vibration     2          0.616              1.909              2.748
 Vibration     3          0.650              1.802              1.915
 Vibration     4          0.715              1.610              1.246
 Vibration     5          0.891              1.169              0.573

 Normal termination of Gaussian 09 at Sun Jun 19 10:05:02 2016.
