 Gaussian 09, Revision E.01,
 Gaussian 09:  EM64L-G09RevE.01 30-Nov-2015

 ---------------------------------------------
 #p b3lyp/6-311++G(3df,2p) freq symmetry=Loose
 ---------------------------------------------

 ---------
 b3lyp opt
 ---------
 Symbolic Z-matrix:
 Charge =  0 Multiplicity = 4

                         Standard orientation:
 ---------------------------------------------------------------------
 Center     Atomic      Atomic             Coordinates (Angstroms)
 Number     Number       Type             X           Y           Z
 ---------------------------------------------------------------------
      1          6           0        0.000000    0.217957    0.000000
      2          6           0       -1.126916   -0.538891    0.000000
      3          1           0       -2.090165   -0.030131    0.000000
      4          6           0        1.426850    0.379227    0.000000
      5          1           0        2.407236   -0.062031    0.000000
      6          6           0       -1.151365   -1.936050    0.000000
      7          6           0        0.690098    1.469039    0.000000
      8          1           0        0.650924    2.544465    0.000000
 ---------------------------------------------------------------------

 SCF Done:  E(UB3LYP) =  -192.044120947     A.U. after   16 cycles

 The electronic state is 4-A".
 Alpha  occ. eigenvalues --  -10.23321 -10.22954 -10.21795 -10.21366 -10.18935
 Alpha  occ. eigenvalues --   -0.93299  -0.77998  -0.62538  -0.60645  -0.56855
 Alpha  occ. eigenvalues --   -0.48922  -0.41399  -0.40887  -0.37633  -0.32633
 Alpha  occ. eigenvalues --   -0.29804  -0.21331  -0.15883
 Alpha virt. eigenvalues --   -0.04678  -0.00686   0.00684   0.01614   0.03421
 Alpha virt. eigenvalues --    0.04904   0.05746   0.06175   0.06393   0.08612
 Alpha virt. eigenvalues --    0.09076   0.10007   0.10853   0.10887   0.11343

  Beta  occ. eigenvalues --  -10.23265 -10.22841 -10.21066 -10.18896 -10.17351
  Beta  occ. eigenvalues --   -0.92664  -0.75250  -0.60536  -0.58784  -0.53998
  Beta  occ. eigenvalues --   -0.46737  -0.39802  -0.39467  -0.33536  -0.26222
  Beta virt. eigenvalues --   -0.14878  -0.04272  -0.03369  -0.02944  -0.00645
  Beta virt. eigenvalues --    0.00698   0.01927   0.04755   0.05387   0.06188
  Beta virt. eigenvalues --    0.06818   0.07252   0.08893   0.09662   0.10315

 Mulliken charges and spin densities:
               1          2
     1  C    0.076544   0.362492
     2  C   -0.262542  -0.252420
     3  H    0.144646   0.064680
     4  C    0.032372   0.093266
     5  H    0.251365  -0.003908
     6  C   -0.408007   2.734436
     7  C   -0.079927   0.003613
     8  H    0.245549  -0.002159
 Sum of Mulliken charges =  -0.00000   3.00000

 Dipole moment (field-independent basis, Debye):
    X=              1.9776    Y=              2.6549    Z=              0.0000  Tot=              3.3105
 Quadrupole moment (field-independent basis, Debye-Ang):
   XX=            -26.5574   YY=            -28.4093   ZZ=            -31.8915
   XY=             -1.7217   XZ=              0.0000   YZ=              0.0000

  Exact polarizability:  69.966  17.874  78.298  -0.000  -0.000  39.785
 Approx polarizability: 100.475  20.631 117.761  -0.000  -0.000  54.475

                      1                      2                      3
                     A'                     A"                     A"
 Frequencies --    219.2793               240.1148               379.3176
 Red. masses --      4.6751                 4.4890                 3.4322
 Frc consts  --      0.1324                 0.1525                 0.2910
 IR Inten    --      1.1645                 7.1173                 6.8634

                      4                      5                      6
                     A'                     A"                     A"
 Frequencies --    535.9086               644.4000               722.4853
 Red. masses --      4.7277                 1.2849                 1.3376
 Frc consts  --      0.8000                 0.3144                 0.4114
 IR Inten    --      6.6651                46.6689                10.9023

                      7                      8                      9
                     A'                     A'                     A"
 Frequencies --    799.0858               878.8814               897.1239
 Red. masses --      2.7369                 3.0137                 1.4232
 Frc consts  --      1.0297                 1.3715                 0.6749
 IR Inten    --      9.4516                 6.5205                 0.3117

                     10                     11                     12
                     A'                     A'                     A'
 Frequencies --    997.5206              1064.4273              1151.6986
 Red. masses --      1.5624                 1.6339                 4.3315
 Frc consts  --      0.9160                 1.0907                 3.3851
 IR Inten    --      1.5583                18.7413                72.1946

                     13                     14                     15
                     A'                     A'                     A'
 Frequencies --   1298.0514              1526.5037              1746.2168
 Red. masses --      1.3458                 7.9656                 6.6705
 Frc consts  --      1.3360                10.9362                11.9840
 IR Inten    --     28.9669                20.1401                47.5964

                     16                     17                     18
                     A'                     A'                     A'
 Frequencies --   3066.9757              3239.8075              3284.6172
 Red. masses --      1.0832                 1.0849                 1.1383
 Frc consts  --      6.0034                 6.7094                 7.2359
 IR Inten    --      7.9375                 6.3239                 5.5801

 - Thermochemistry -
 -------------------
 Temperature   298.150 Kelvin.  Pressure   1.00000 Atm.
 Atom     1 has atomic number  6 and mass  12.00000

 Molecular mass:    63.02348 amu.
 Principal axes and moments of inertia in atomic units:
                           1         2         3
     Eigenvalues --    82.11553 471.54569 553.66122
           X            0.67000   0.74236   0.00000
           Y            0.74236  -0.67000   0.00000
           Z            0.00000  -0.00000   1.00000
 This molecule is an asymmetric top.
 Rotational symmetry number  1.
 Rotational temperatures (Kelvin)      1.05478     0.18368     0.15644
 Rotational constants (GHZ):          21.97807     3.82729     3.25965
 Zero-point vibrational energy     135730.8 (Joules/Mol)
                                   32.44044 (Kcal/Mol)
 Warning -- explicit consideration of   4 degrees of freedom as
           vibrations may cause significant error
 Vibrational temperatures:    315.49   345.47   545.75   771.05   927.15
          (Kelvin)           1039.49  1149.70  1264.51  1290.76  1435.21
                             1531.47  1657.04  1867.60  2196.30  2512.41
                             4412.69  4661.35  4725.83

 Zero-point correction=                           0.051697 (Hartree/Particle)
 Thermal correction to Energy=                    0.056627
 Thermal correction to Enthalpy=                  0.057571
 Thermal correction to Gibbs Free Energy=         0.023135
 Sum of electronic and zero-point Energies=           -191.992424
 Sum of electronic and thermal Energies=              -191.987494
 Sum of electronic and thermal Enthalpies=            -191.986550
 Sum of electronic and thermal Free Energies=         -192.020986

                     E (Thermal)             CV                S
                      KCal/Mol        Cal/Mol-Kelvin    Cal/Mol-Kelvin
 Total                   35.534             16.828             72.476
 Electronic               0.000              0.000              2.755
 Translational            0.889              2.981             38.342
 Rotational               0.889              2.981             24.576
 Vibrational             33.756             10.866              6.803
 Vibration     1          0.647              1.812              1.965
 Vibration     2          0.657              1.779              1.802
 Vibration     3          0.749              1.514              1.042
 Vibration     4          0.891              1.171              0.574

 Normal termination of Gaussian 09 at Sun Jun 19 09:25:44 2016.
