 Gaussian 09, Revision E.01,
 Gaussian 09:  EM64L-G09RevE.01 30-Nov-2015

 ------------------------------------------------------
 #p b3lyp/6-311++G(3df,2p) freq IOp(2/17=3) IOp(2/18=3)
 ------------------------------------------------------

 ---------
 b3lyp opt
 ---------
 Symbolic Z-matrix:
 Charge =  2 Multiplicity = 4

                         Standard orientation:
 ---------------------------------------------------------------------
 Center     Atomic      Atomic             Coordinates (Angstroms)
 Number     Number       Type             X           Y           Z
 ---------------------------------------------------------------------
      1          6           0       -0.000000    0.000000   -2.551179
      2          1           0       -0.946005   -0.000339   -3.111496
      3          1           0        0.946005    0.000339   -3.111496
      4          6           0       -0.000000    0.000000   -1.185367
      5          6           0        0.000000    0.000000    0.099593
      6          6           0        0.000000    0.000000    1.381005
      7          6           0        0.000000    0.000000    2.667130
      8          1           0        0.000000    0.000000    3.755891
 ---------------------------------------------------------------------

 SCF Done:  E(UB3LYP) =  -191.299001748     A.U. after   16 cycles

 The electronic state is 4-B.
 Alpha  occ. eigenvalues --  -10.76329 -10.74233 -10.72870 -10.70323 -10.68198
 Alpha  occ. eigenvalues --   -1.32530  -1.28223  -1.20664  -1.12257  -0.98897
 Alpha  occ. eigenvalues --   -0.94861  -0.90867  -0.87398  -0.84173  -0.80374
 Alpha  occ. eigenvalues --   -0.74829  -0.67946
 Alpha virt. eigenvalues --   -0.54125  -0.50066  -0.34383  -0.32581  -0.32131
 Alpha virt. eigenvalues --   -0.31019  -0.28594  -0.24965  -0.24684  -0.23954
 Alpha virt. eigenvalues --   -0.22939  -0.21668  -0.19941  -0.19919  -0.18830

  Beta  occ. eigenvalues --  -10.75228 -10.72653 -10.72420 -10.69713 -10.67220
  Beta  occ. eigenvalues --   -1.29186  -1.23737  -1.16963  -1.09968  -0.97173
  Beta  occ. eigenvalues --   -0.93001  -0.88212  -0.81166  -0.80848
  Beta virt. eigenvalues --   -0.67715  -0.64407  -0.55078  -0.48963  -0.42555
  Beta virt. eigenvalues --   -0.31444  -0.31382  -0.28733  -0.27648  -0.27468
  Beta virt. eigenvalues --   -0.24317  -0.23310  -0.23118  -0.21647  -0.21192

 Mulliken charges and spin densities:
               1          2
     1  C   -0.339697   0.553735
     2  H    0.311031   0.015962
     3  H    0.311031   0.015962
     4  C    0.878599   0.377333
     5  C   -0.337177   0.849015
     6  C    0.282298   0.412655
     7  C    0.450012   0.806167
     8  H    0.443905  -0.030828
 Sum of Mulliken charges =   2.00000   3.00000

 Dipole moment (field-independent basis, Debye):
    X=             -0.0000    Y=             -0.0000    Z=              0.6491  Tot=              0.6491
 Quadrupole moment (field-independent basis, Debye-Ang):
   XX=            -21.9439   YY=            -24.5651   ZZ=             40.1662
   XY=              0.0009   XZ=              0.0000   YZ=              0.0000

  Exact polarizability:  26.888   0.001  24.636   0.000   0.000 136.232
 Approx polarizability:  37.314   0.001  34.103   0.000   0.000 315.319

                      1                      2                      3
                      B                      B                      B
 Frequencies --    122.4304               141.2784               341.3000
 Red. masses --      4.7580                 3.5774                 3.1770
 Frc consts  --      0.0420                 0.0421                 0.2180
 IR Inten    --     17.6563                17.3966                 0.4167

                      4                      5                      6
                      B                      B                      B
 Frequencies --    392.3440               434.0006               497.3982
 Red. masses --      2.8294                 1.5951                 7.1360
 Frc consts  --      0.2566                 0.1770                 1.0402
 IR Inten    --      4.5880                23.2271                 4.2998

                      7                      8                      9
                      B                      B                      A
 Frequencies --    535.1064               711.6508               729.2768
 Red. masses --      4.9810                 1.3761                 5.6767
 Frc consts  --      0.8403                 0.4106                 1.7788
 IR Inten    --      3.4385                16.3268                 0.4025

                     10                     11                     12
                      B                      B                      A
 Frequencies --    825.0171               899.6820              1216.5161
 Red. masses --      1.3697                 1.5883                 6.5084
 Frc consts  --      0.5493                 0.7575                 5.6749
 IR Inten    --     43.8972                 4.7735                96.9442

                     13                     14                     15
                      A                      A                      A
 Frequencies --   1320.1284              1736.4892              2165.7862
 Red. masses --      1.1268                 8.5546                11.3152
 Frc consts  --      1.1570                15.1983                31.2711
 IR Inten    --     77.9714               284.8658               598.4036

                     16                     17                     18
                      A                      B                      A
 Frequencies --   2966.4347              3064.6392              3186.3997
 Red. masses --      1.0465                 1.1164                 1.1257
 Frc consts  --      5.4256                 6.1777                 6.7342
 IR Inten    --    643.1132               180.4148               557.7266

 - Thermochemistry -
 -------------------
 Temperature   298.150 Kelvin.  Pressure   1.00000 Atm.
 Atom     1 has atomic number  6 and mass  12.00000

 Molecular mass:    63.02348 amu.
 Principal axes and moments of inertia in atomic units:
                           1         2         3
     Eigenvalues --     6.44170 846.22727 852.66896
           X            0.00000   1.00000  -0.00036
           Y            0.00000   0.00036   1.00000
           Z            1.00000   0.00000  -0.00000
 This molecule is an asymmetric top.
 Rotational symmetry number  2.
 Rotational temperatures (Kelvin)     13.44581     0.10235     0.10158
 Rotational constants (GHZ):         280.16554     2.13269     2.11658
 Zero-point vibrational energy     127317.8 (Joules/Mol)
                                   30.42969 (Kcal/Mol)
 Warning -- explicit consideration of   7 degrees of freedom as
           vibrations may cause significant error
 Vibrational temperatures:    176.15   203.27   491.05   564.49   624.43
          (Kelvin)            715.64   769.90  1023.91  1049.27  1187.01
                             1294.44  1750.29  1899.37  2498.42  3116.08
                             4268.03  4409.33  4584.51

 Zero-point correction=                           0.048493 (Hartree/Particle)
 Thermal correction to Energy=                    0.054431
 Thermal correction to Enthalpy=                  0.055375
 Thermal correction to Gibbs Free Energy=         0.020277
 Sum of electronic and zero-point Energies=           -191.250509
 Sum of electronic and thermal Energies=              -191.244571
 Sum of electronic and thermal Enthalpies=            -191.243627
 Sum of electronic and thermal Free Energies=         -191.278725

                     E (Thermal)             CV                S
                      KCal/Mol        Cal/Mol-Kelvin    Cal/Mol-Kelvin
 Total                   34.156             19.772             73.870
 Electronic               0.000              0.000              2.755
 Translational            0.889              2.981             38.342
 Rotational               0.889              2.981             21.679
 Vibrational             32.378             13.810             11.094
 Vibration     1          0.610              1.930              3.062
 Vibration     2          0.615              1.912              2.786
 Vibration     3          0.721              1.593              1.206
 Vibration     4          0.760              1.487              0.991
 Vibration     5          0.795              1.396              0.846
 Vibration     6          0.853              1.256              0.665
 Vibration     7          0.890              1.172              0.576

 Optimization completed.
    -- Stationary point found.
 Normal termination of Gaussian 09 at Thu Jan 31 05:59:02 2019.
