 Gaussian 09, Revision E.01,
 Gaussian 09:  EM64L-G09RevE.01 30-Nov-2015

 ---------------------------------------------
 #p b3lyp/6-311++G(3df,2p) freq symmetry=Loose
 ---------------------------------------------

 ---------
 b3lyp opt
 ---------
 Symbolic Z-matrix:
 Charge =  0 Multiplicity = 2

                         Standard orientation:
 ---------------------------------------------------------------------
 Center     Atomic      Atomic             Coordinates (Angstroms)
 Number     Number       Type             X           Y           Z
 ---------------------------------------------------------------------
      1          1           0        1.503521   -0.446676    1.334760
      2          6           0        0.348686   -0.803469   -0.502540
      3          6           0       -0.796260   -0.090103   -0.028097
      4          6           0       -2.085329   -0.015206    0.232953
      5          6           0        1.448456   -0.088362    0.311442
      6          1           0        2.417049    0.042872   -0.157776
      7          6           0        0.361632    0.800843   -0.073343
      8          1           0        0.416326    1.581583   -0.819484
 ---------------------------------------------------------------------

 SCF Done:  E(UB3LYP) =  -192.074460755     A.U. after   21 cycles

 The electronic state is 2-A.
 Alpha  occ. eigenvalues --  -10.25796 -10.25681 -10.24961 -10.23858 -10.22612
 Alpha  occ. eigenvalues --   -0.97341  -0.78246  -0.68012  -0.62870  -0.52407
 Alpha  occ. eigenvalues --   -0.49573  -0.43931  -0.41558  -0.36073  -0.31819
 Alpha  occ. eigenvalues --   -0.28003  -0.25077
 Alpha virt. eigenvalues --   -0.12852  -0.02060  -0.01657   0.00562   0.01947
 Alpha virt. eigenvalues --    0.02143   0.03227   0.06090   0.06547   0.07785
 Alpha virt. eigenvalues --    0.07854   0.08098   0.09182   0.10734   0.11561

  Beta  occ. eigenvalues --  -10.25554 -10.24954 -10.24349 -10.23786 -10.22716
  Beta  occ. eigenvalues --   -0.96558  -0.77276  -0.67071  -0.62141  -0.50974
  Beta  occ. eigenvalues --   -0.49108  -0.43502  -0.41095  -0.34191  -0.30756
  Beta  occ. eigenvalues --   -0.25797
  Beta virt. eigenvalues --   -0.14694  -0.11817  -0.01336  -0.01257   0.00680
  Beta virt. eigenvalues --    0.02215   0.03152   0.03760   0.06171   0.06617
  Beta virt. eigenvalues --    0.07827   0.08157   0.08378   0.09606   0.10929

 Mulliken charges and spin densities:
               1          2
     1  H    0.205224   0.038952
     2  C   -0.222901   0.560786
     3  C    0.873145  -0.104458
     4  C   -0.501648   0.367700
     5  C   -0.459050  -0.004117
     6  H    0.142331   0.008015
     7  C   -0.239920   0.129396
     8  H    0.202818   0.003726
 Sum of Mulliken charges =  -0.00000   1.00000

 Dipole moment (field-independent basis, Debye):
    X=              3.4108    Y=              1.2506    Z=             -0.0087  Tot=              3.6329
 Quadrupole moment (field-independent basis, Debye-Ang):
   XX=            -34.1589   YY=            -30.3878   ZZ=            -30.3724
   XY=              0.9587   XZ=              1.6659   YZ=             -2.6369

  Exact polarizability:  82.986  -2.335  53.038  -5.205   3.994  45.997
 Approx polarizability: 145.106  -6.878  98.067 -16.715  12.646  69.760

                      1                      2                      3
                      A                      A                      A
 Frequencies --    122.8712               232.1517               428.7561
 Red. masses --      7.7271                 4.1839                 8.9789
 Frc consts  --      0.0687                 0.1329                 0.9725
 IR Inten    --      8.2745                 2.5485                25.7291

                      4                      5                      6
                      A                      A                      A
 Frequencies --    546.4367               661.8151               823.9534
 Red. masses --      4.3911                 3.5985                 1.8606
 Frc consts  --      0.7725                 0.9286                 0.7442
 IR Inten    --     62.4106                65.6761                17.8627

                      7                      8                      9
                      A                      A                      A
 Frequencies --    893.3650               948.3262              1032.8043
 Red. masses --      2.2740                 2.8478                 1.2617
 Frc consts  --      1.0693                 1.5089                 0.7929
 IR Inten    --      3.1576                 2.2143                19.2475

                     10                     11                     12
                      A                      A                      A
 Frequencies --   1061.0560              1120.1718              1198.7710
 Red. masses --      1.8759                 1.2719                 2.0253
 Frc consts  --      1.2443                 0.9403                 1.7148
 IR Inten    --     19.2904                 8.7225                 0.6382

                     13                     14                     15
                      A                      A                      A
 Frequencies --   1286.0324              1495.4030              1618.4584
 Red. masses --      1.9155                 1.1541                10.2449
 Frc consts  --      1.8666                 1.5205                15.8110
 IR Inten    --      6.2411                 4.6050               209.0227

                     16                     17                     18
                      A                      A                      A
 Frequencies --   3084.8013              3161.3838              3174.0316
 Red. masses --      1.0565                 1.1073                 1.0960
 Frc consts  --      5.9235                 6.5202                 6.5053
 IR Inten    --      7.6176                 3.4055                 1.4700

 - Thermochemistry -
 -------------------
 Temperature   298.150 Kelvin.  Pressure   1.00000 Atm.
 Atom     1 has atomic number  1 and mass   1.00783

 Molecular mass:    63.02348 amu.
 Principal axes and moments of inertia in atomic units:
                           1         2         3
     Eigenvalues --    91.90037 368.34271 409.64964
           X            0.99989   0.00492   0.01408
           Y           -0.00254   0.98640  -0.16432
           Z           -0.01470   0.16427   0.98631
 This molecule is an asymmetric top.
 Rotational symmetry number  1.
 Rotational temperatures (Kelvin)      0.94248     0.23514     0.21143
 Rotational constants (GHZ):          19.63802     4.89963     4.40557
 Zero-point vibrational energy     136916.1 (Joules/Mol)
                                   32.72374 (Kcal/Mol)
 Warning -- explicit consideration of   4 degrees of freedom as
           vibrations may cause significant error
 Vibrational temperatures:    176.78   334.01   616.88   786.20   952.20
          (Kelvin)           1185.48  1285.35  1364.43  1485.97  1526.62
                             1611.68  1724.76  1850.31  2151.55  2328.60
                             4438.34  4548.52  4566.72

 Zero-point correction=                           0.052149 (Hartree/Particle)
 Thermal correction to Energy=                    0.057082
 Thermal correction to Enthalpy=                  0.058026
 Thermal correction to Gibbs Free Energy=         0.024150
 Sum of electronic and zero-point Energies=           -192.022312
 Sum of electronic and thermal Energies=              -192.017379
 Sum of electronic and thermal Enthalpies=            -192.016435
 Sum of electronic and thermal Free Energies=         -192.050311

                     E (Thermal)             CV                S
                      KCal/Mol        Cal/Mol-Kelvin    Cal/Mol-Kelvin
 Total                   35.819             16.108             71.297
 Electronic               0.000              0.000              1.377
 Translational            0.889              2.981             38.342
 Rotational               0.889              2.981             24.143
 Vibrational             34.042             10.147              7.435
 Vibration     1          0.610              1.930              3.055
 Vibration     2          0.653              1.792              1.862
 Vibration     3          0.790              1.408              0.863
 Vibration     4          0.902              1.147              0.552

 Optimization completed.
    -- Stationary point found.
 Normal termination of Gaussian 09 at Sun Jun 19 07:47:34 2016.
