 Gaussian 09, Revision E.01,
 Gaussian 09:  EM64L-G09RevE.01 30-Nov-2015

 ---------------------------------------------
 #p b3lyp/6-311++G(3df,2p) freq symmetry=Loose
 ---------------------------------------------

 ---------
 b3lyp opt
 ---------
 Symbolic Z-matrix:
 Charge =  3 Multiplicity = 3

                         Standard orientation:
 ---------------------------------------------------------------------
 Center     Atomic      Atomic             Coordinates (Angstroms)
 Number     Number       Type             X           Y           Z
 ---------------------------------------------------------------------
      1          6           0        0.286972   -0.000210   -0.000558
      2          6           0       -1.070325   -0.000318   -0.000411
      3          6           0       -2.383561    0.000074    0.000265
      4          1           0       -3.511137    0.000279    0.000975
      5          6           0        1.543984    0.682855    0.000189
      6          1           0        1.990549    1.707398    0.000544
      7          6           0        1.544411   -0.682557    0.000158
      8          1           0        1.991701   -1.706741    0.000619
 ---------------------------------------------------------------------

 SCF Done:  E(UB3LYP) =  -190.497029099     A.U. after   16 cycles

 The electronic state is 3-A.
 Alpha  occ. eigenvalues --  -11.06873 -11.05408 -10.99685 -10.98554 -10.98488
 Alpha  occ. eigenvalues --   -1.66942  -1.58316  -1.43333  -1.28072  -1.24820
 Alpha  occ. eigenvalues --   -1.21909  -1.13721  -1.12194  -1.11506  -1.06291
 Alpha  occ. eigenvalues --   -1.03598
 Alpha virt. eigenvalues --   -0.82949  -0.76937  -0.71902  -0.64805  -0.59315
 Alpha virt. eigenvalues --   -0.51332  -0.51117  -0.49973  -0.47441  -0.46973
 Alpha virt. eigenvalues --   -0.41985  -0.41542  -0.40797  -0.39719  -0.37337

  Beta  occ. eigenvalues --  -11.05308 -11.04371 -10.99698 -10.98164 -10.98099
  Beta  occ. eigenvalues --   -1.65268  -1.52870  -1.41567  -1.26481  -1.23066
  Beta  occ. eigenvalues --   -1.20670  -1.10637  -1.10093  -1.07899
  Beta virt. eigenvalues --   -0.94948  -0.92795  -0.78647  -0.71106  -0.69671
  Beta virt. eigenvalues --   -0.60959  -0.56315  -0.50681  -0.50498  -0.49132
  Beta virt. eigenvalues --   -0.46361  -0.45719  -0.41576  -0.41040  -0.40215

 Mulliken charges and spin densities:
               1          2
     1  C    0.042471   0.308359
     2  C    0.305668   0.727274
     3  C    0.805588   0.658101
     4  H    0.513747  -0.027925
     5  C    0.240591   0.144749
     6  H    0.425370   0.022371
     7  C    0.241147   0.144705
     8  H    0.425418   0.022367
 Sum of Mulliken charges =   3.00000   2.00000

 Dipole moment (field-independent basis, Debye):
    X=             -3.4721    Y=              0.0008    Z=              0.0022  Tot=              3.4721
 Quadrupole moment (field-independent basis, Debye-Ang):
   XX=             41.4334   YY=            -10.6513   ZZ=            -21.3297
   XY=             -0.0026   XZ=             -0.0025   YZ=             -0.0001

  Exact polarizability:  91.996   0.000  30.313   0.000   0.000  20.731
 Approx polarizability: 193.770   0.006  46.539   0.008   0.000  30.646

                      1                      2                      3
                      A                      A                      A
 Frequencies --    182.3273               209.1634               468.0948
 Red. masses --      3.3629                 4.1437                 4.1296
 Frc consts  --      0.0659                 0.1068                 0.5331
 IR Inten    --     25.7484                28.5333                 2.2907

                      4                      5                      6
                      A                      A                      A
 Frequencies --    507.0223               666.8080               682.6566
 Red. masses --      4.3023                 1.3755                 4.6220
 Frc consts  --      0.6516                 0.3603                 1.2691
 IR Inten    --      3.2956                15.6812                 2.6138

                      7                      8                      9
                      A                      A                      A
 Frequencies --    740.7719               772.0270               802.8846
 Red. masses --      1.3673                 6.7984                 1.2710
 Frc consts  --      0.4420                 2.3874                 0.4827
 IR Inten    --     30.2089               115.4125                41.3954

                     10                     11                     12
                      A                      A                      A
 Frequencies --    814.1009               903.1189               981.0272
 Red. masses --      1.4721                 1.1862                 1.3905
 Frc consts  --      0.5748                 0.5700                 0.7884
 IR Inten    --      0.0028                 0.8399                 1.2011

                     13                     14                     15
                      A                      A                      A
 Frequencies --   1158.1400              1434.7661              1829.3618
 Red. masses --      7.1457                 5.1719                 7.0230
 Frc consts  --      5.6470                 6.2728                13.8474
 IR Inten    --    472.3595               632.3158                27.3011

                     16                     17                     18
                      A                      A                      A
 Frequencies --   2831.0389              2849.0783              2895.3459
 Red. masses --      1.1644                 1.0920                 1.1461
 Frc consts  --      5.4986                 5.2226                 5.6605
 IR Inten    --    929.5282               671.1712               409.3496

 - Thermochemistry -
 -------------------
 Temperature   298.150 Kelvin.  Pressure   1.00000 Atm.
 Atom     1 has atomic number  6 and mass  12.00000

 Molecular mass:    63.02348 amu.
 Principal axes and moments of inertia in atomic units:
                           1         2         3
     Eigenvalues --    60.92197 573.34567 634.26758
           X            1.00000  -0.00001  -0.00001
           Y            0.00001   1.00000  -0.00001
           Z            0.00001   0.00001   1.00000
 This molecule is an asymmetric top.
 Rotational symmetry number  1.
 Rotational temperatures (Kelvin)      1.42172     0.15107     0.13656
 Rotational constants (GHZ):          29.62382     3.14774     2.84539
 Zero-point vibrational energy     123979.4 (Joules/Mol)
                                   29.63178 (Kcal/Mol)
 Warning -- explicit consideration of   4 degrees of freedom as
           vibrations may cause significant error
 Vibrational temperatures:    262.33   300.94   673.48   729.49   959.39
          (Kelvin)            982.19  1065.80  1110.77  1155.17  1171.31
                             1299.38  1411.48  1666.30  2064.31  2632.04
                             4073.23  4099.18  4165.75

 Zero-point correction=                           0.047221 (Hartree/Particle)
 Thermal correction to Energy=                    0.052360
 Thermal correction to Enthalpy=                  0.053304
 Thermal correction to Gibbs Free Energy=         0.018740
 Sum of electronic and zero-point Energies=           -190.449808
 Sum of electronic and thermal Energies=              -190.444669
 Sum of electronic and thermal Enthalpies=            -190.443725
 Sum of electronic and thermal Free Energies=         -190.478290

                     E (Thermal)             CV                S
                      KCal/Mol        Cal/Mol-Kelvin    Cal/Mol-Kelvin
 Total                   32.857             17.935             72.748
 Electronic               0.000              0.000              2.183
 Translational            0.889              2.981             38.342
 Rotational               0.889              2.981             24.608
 Vibrational             31.079             11.974              7.615
 Vibration     1          0.630              1.864              2.304
 Vibration     2          0.642              1.827              2.051
 Vibration     3          0.825              1.321              0.743
 Vibration     4          0.862              1.234              0.641

 Optimization completed.
    -- Stationary point found.
 Normal termination of Gaussian 09 at Sun Jun 19 14:58:43 2016.
