 Gaussian 09, Revision E.01,
 Gaussian 09:  EM64L-G09RevE.01 30-Nov-2015

 ---------------------------------------------
 #p b3lyp/6-311++G(3df,2p) freq symmetry=Loose
 ---------------------------------------------

 ---------
 b3lyp opt
 ---------
 Symbolic Z-matrix:
 Charge =  0 Multiplicity = 4

                         Standard orientation:
 ---------------------------------------------------------------------
 Center     Atomic      Atomic             Coordinates (Angstroms)
 Number     Number       Type             X           Y           Z
 ---------------------------------------------------------------------
      1          6           0       -1.016385   -1.948002    0.000000
      2          1           0       -0.067502   -2.465383    0.000000
      3          1           0       -1.916420   -2.545528    0.000000
      4          6           0       -1.086610   -0.593301    0.000000
      5          1           0       -2.070051   -0.126338    0.000000
      6          6           0        0.000000    0.262357    0.000000
      7          6           0        0.920370    1.140118    0.000000
      8          6           0        1.858287    1.995037    0.000000
 ---------------------------------------------------------------------

 SCF Done:  E(UB3LYP) =  -192.109814621     A.U. after   18 cycles

 The electronic state is 4-A".
 Alpha  occ. eigenvalues --  -10.25862 -10.21606 -10.21044 -10.20846 -10.19589
 Alpha  occ. eigenvalues --   -0.83890  -0.79449  -0.71475  -0.62620  -0.52271
 Alpha  occ. eigenvalues --   -0.46940  -0.42238  -0.40301  -0.38800  -0.36390
 Alpha  occ. eigenvalues --   -0.31925  -0.22884  -0.22013
 Alpha virt. eigenvalues --   -0.03102  -0.00636   0.01504   0.02104   0.04332
 Alpha virt. eigenvalues --    0.05230   0.05481   0.07012   0.07202   0.07911
 Alpha virt. eigenvalues --    0.08929   0.09130   0.09512   0.11590   0.12506

  Beta  occ. eigenvalues --  -10.22245 -10.21391 -10.21197 -10.19996 -10.18928
  Beta  occ. eigenvalues --   -0.82000  -0.77409  -0.66891  -0.60881  -0.51470
  Beta  occ. eigenvalues --   -0.46005  -0.39679  -0.35951  -0.32467  -0.28889
  Beta virt. eigenvalues --   -0.18875  -0.10293  -0.08866  -0.00419  -0.00404
  Beta virt. eigenvalues --    0.01567   0.02421   0.05455   0.05637   0.05791
  Beta virt. eigenvalues --    0.07229   0.07634   0.09005   0.09582   0.10362

 Mulliken charges and spin densities:
               1          2
     1  C   -0.573661   0.465075
     2  H    0.156333  -0.011178
     3  H    0.176062  -0.011551
     4  C    0.156835  -0.243681
     5  H    0.147795   0.041881
     6  C   -0.271902   0.938767
     7  C    0.350938  -0.266930
     8  C   -0.142399   2.087617
 Sum of Mulliken charges =  -0.00000   3.00000

 Dipole moment (field-independent basis, Debye):
    X=             -0.8996    Y=             -0.8489    Z=              0.0000  Tot=              1.2370
 Quadrupole moment (field-independent basis, Debye-Ang):
   XX=            -26.7232   YY=            -27.0820   ZZ=            -31.7336
   XY=              1.3937   XZ=              0.0000   YZ=              0.0000

  Exact polarizability:  75.984  37.983  94.116  -0.002  -0.003  38.937
 Approx polarizability: 120.232  68.173 150.218  -0.000  -0.000  52.430

                      1                      2                      3
                     A'                     A"                     A'
 Frequencies --     88.7359               172.2822               394.1857
 Red. masses --      4.9012                 3.6745                 9.2091
 Frc consts  --      0.0227                 0.0643                 0.8431
 IR Inten    --      1.6266                 3.8605                 0.6208

                      4                      5                      6
                     A"                     A'                     A"
 Frequencies --    413.4181               469.6096               629.6049
 Red. masses --      9.1108                 3.7714                 1.5935
 Frc consts  --      0.9175                 0.4900                 0.3722
 IR Inten    --      0.6725                 1.8437                 3.1473

                      7                      8                      9
                     A'                     A"                     A"
 Frequencies --    794.0391               897.1134               953.5266
 Red. masses --      3.4998                 1.3103                 1.1889
 Frc consts  --      1.3001                 0.6213                 0.6369
 IR Inten    --      2.8443                46.8555                11.6659

                     10                     11                     12
                     A'                     A'                     A'
 Frequencies --   1069.1402              1281.7373              1382.2342
 Red. masses --      1.4542                 1.6659                 1.6208
 Frc consts  --      0.9794                 1.6125                 1.8244
 IR Inten    --      1.5287                 0.1927                 4.8026

                     13                     14                     15
                     A'                     A'                     A'
 Frequencies --   1520.8325              1578.6373              1785.4832
 Red. masses --      1.7008                 7.0174                10.7715
 Frc consts  --      2.3178                10.3037                20.2320
 IR Inten    --     12.8678                 0.6927                 0.1450

                     16                     17                     18
                     A'                     A'                     A'
 Frequencies --   3089.4984              3147.3330              3241.4164
 Red. masses --      1.0845                 1.0563                 1.1181
 Frc consts  --      6.0988                 6.1646                 6.9217
 IR Inten    --      7.7107                 2.5787                 4.1100

 - Thermochemistry -
 -------------------
 Temperature   298.150 Kelvin.  Pressure   1.00000 Atm.
 Atom     1 has atomic number  6 and mass  12.00000

 Molecular mass:    63.02348 amu.
 Principal axes and moments of inertia in atomic units:
                           1         2         3
     Eigenvalues --    36.89877 720.68068 757.57944
           X            0.62837   0.77792   0.00000
           Y            0.77792  -0.62837   0.00000
           Z            0.00000  -0.00000   1.00000
 This molecule is an asymmetric top.
 Rotational symmetry number  1.
 Rotational temperatures (Kelvin)      2.34734     0.12018     0.11433
 Rotational constants (GHZ):          48.91061     2.50422     2.38225
 Zero-point vibrational energy     137025.2 (Joules/Mol)
                                   32.74981 (Kcal/Mol)
 Warning -- explicit consideration of   5 degrees of freedom as
           vibrations may cause significant error
 Vibrational temperatures:    127.67   247.88   567.14   594.82   675.66
          (Kelvin)            905.86  1142.44  1290.74  1371.91  1538.25
                             1844.13  1988.72  2188.14  2271.30  2568.91
                             4445.09  4528.30  4663.67

 Zero-point correction=                           0.052190 (Hartree/Particle)
 Thermal correction to Energy=                    0.057625
 Thermal correction to Enthalpy=                  0.058569
 Thermal correction to Gibbs Free Energy=         0.022765
 Sum of electronic and zero-point Energies=           -192.057624
 Sum of electronic and thermal Energies=              -192.052190
 Sum of electronic and thermal Enthalpies=            -192.051246
 Sum of electronic and thermal Free Energies=         -192.087050

                     E (Thermal)             CV                S
                      KCal/Mol        Cal/Mol-Kelvin    Cal/Mol-Kelvin
 Total                   36.160             17.332             75.356
 Electronic               0.000              0.000              2.755
 Translational            0.889              2.981             38.342
 Rotational               0.889              2.981             24.514
 Vibrational             34.383             11.371              9.746
 Vibration     1          0.602              1.957              3.688
 Vibration     2          0.626              1.877              2.410
 Vibration     3          0.761              1.483              0.984
 Vibration     4          0.777              1.441              0.915
 Vibration     5          0.827              1.317              0.739

 Optimization completed.
    -- Stationary point found.
 Normal termination of Gaussian 09 at Sun Jun 19 08:56:06 2016.
