 Gaussian 09, Revision E.01,
 Gaussian 09:  EM64L-G09RevE.01 30-Nov-2015

 ---------------------------------------------
 #p b3lyp/6-311++G(3df,2p) freq symmetry=Loose
 ---------------------------------------------

 ---------
 b3lyp opt
 ---------
 Symbolic Z-matrix:
 Charge =  1 Multiplicity = 3

                         Standard orientation:
 ---------------------------------------------------------------------
 Center     Atomic      Atomic             Coordinates (Angstroms)
 Number     Number       Type             X           Y           Z
 ---------------------------------------------------------------------
      1          6           0        1.411637   -0.648348   -0.460711
      2          6           0        0.282370   -0.201940    0.163540
      3          6           0       -1.150769   -0.227990    0.450195
      4          1           0       -1.536787   -1.242023    0.627940
      5          1           0       -1.422692    0.388505    1.324713
      6          6           0       -1.860304    0.432126   -0.679562
      7          6           0        1.481311    0.545047    0.129819
      8          1           0        1.974010    1.460148    0.427654
 ---------------------------------------------------------------------

 SCF Done:  E(UB3LYP) =  -191.729495465     A.U. after   21 cycles

 The electronic state is 3-A.
 Alpha  occ. eigenvalues --  -10.52401 -10.51677 -10.50842 -10.47558 -10.43776
 Alpha  occ. eigenvalues --   -1.22173  -1.04442  -0.85503  -0.83021  -0.76539
 Alpha  occ. eigenvalues --   -0.73310  -0.68329  -0.65711  -0.64093  -0.54360
 Alpha  occ. eigenvalues --   -0.51530  -0.43711
 Alpha virt. eigenvalues --   -0.32091  -0.29305  -0.27428  -0.15847  -0.14469
 Alpha virt. eigenvalues --   -0.13581  -0.11625  -0.11065  -0.09946  -0.08481
 Alpha virt. eigenvalues --   -0.07018  -0.05993  -0.05382  -0.04335  -0.04124

  Beta  occ. eigenvalues --  -10.51949 -10.50605 -10.50124 -10.46170 -10.43843
  Beta  occ. eigenvalues --   -1.20939  -1.03285  -0.84366  -0.80237  -0.74382
  Beta  occ. eigenvalues --   -0.71122  -0.66065  -0.64040  -0.62598  -0.49515
  Beta virt. eigenvalues --   -0.39550  -0.31004  -0.30249  -0.26575  -0.23955
  Beta virt. eigenvalues --   -0.15562  -0.14246  -0.13037  -0.11301  -0.10856
  Beta virt. eigenvalues --   -0.09408  -0.07980  -0.06239  -0.05202  -0.04778

 Mulliken charges and spin densities:
               1          2
     1  C    0.037069   0.939986
     2  C    0.311559   0.051376
     3  C   -0.127282  -0.068336
     4  H    0.215635   0.040115
     5  H    0.226880   0.017937
     6  C   -0.173648   0.908023
     7  C    0.192855   0.106443
     8  H    0.316933   0.004454
 Sum of Mulliken charges =   1.00000   2.00000

 Dipole moment (field-independent basis, Debye):
    X=              2.0719    Y=              0.2335    Z=              2.2306  Tot=              3.0533
 Quadrupole moment (field-independent basis, Debye-Ang):
   XX=            -17.1679   YY=            -22.3775   ZZ=            -25.7586
   XY=              4.8175   XZ=             -2.8538   YZ=              2.0123

  Exact polarizability:  71.253  -2.665  41.869   2.145   1.099  39.115
 Approx polarizability: 107.405  -7.484  69.511   5.410   5.071  63.012

                      1                      2                      3
                      A                      A                      A
 Frequencies --     72.3248               195.1878               280.6749
 Red. masses --      4.9879                 8.1408                 1.2051
 Frc consts  --      0.0154                 0.1827                 0.0559
 IR Inten    --      6.0563                30.1360                 3.5856

                      4                      5                      6
                      A                      A                      A
 Frequencies --    368.8960               517.4809               758.8185
 Red. masses --      3.1036                 6.2748                 4.3061
 Frc consts  --      0.2488                 0.9900                 1.4609
 IR Inten    --      4.3555                 8.6644                 9.1171

                      7                      8                      9
                      A                      A                      A
 Frequencies --    895.3417               899.1880               943.0574
 Red. masses --      3.2140                 1.4490                 1.3851
 Frc consts  --      1.5180                 0.6903                 0.7258
 IR Inten    --     18.7418                27.8576                25.5021

                     10                     11                     12
                      A                      A                      A
 Frequencies --   1062.8539              1149.8942              1202.4849
 Red. masses --      1.7156                 1.5225                 2.2729
 Frc consts  --      1.1419                 1.1861                 1.9364
 IR Inten    --     31.7028               105.1416                30.3533

                     13                     14                     15
                      A                      A                      A
 Frequencies --   1331.8687              1398.8089              1716.4671
 Red. masses --      1.1007                 7.8852                 8.2568
 Frc consts  --      1.1504                 9.0903                14.3328
 IR Inten    --     26.8636               119.2224                42.3170

                     16                     17                     18
                      A                      A                      A
 Frequencies --   2950.5533              3002.8667              3240.0555
 Red. masses --      1.0603                 1.0941                 1.1187
 Frc consts  --      5.4387                 5.8129                 6.9191
 IR Inten    --     56.5172                31.0689                93.9780

 - Thermochemistry -
 -------------------
 Temperature   298.150 Kelvin.  Pressure   1.00000 Atm.
 Atom     1 has atomic number  6 and mass  12.00000

 Molecular mass:    63.02348 amu.
 Principal axes and moments of inertia in atomic units:
                           1         2         3
     Eigenvalues --   103.22095 465.65424 474.38711
           X            0.99895   0.04351  -0.01445
           Y           -0.04143   0.99165   0.12211
           Z            0.01964  -0.12138   0.99241
 This molecule is an asymmetric top.
 Rotational symmetry number  1.
 Rotational temperatures (Kelvin)      0.83911     0.18600     0.18258
 Rotational constants (GHZ):          17.48425     3.87571     3.80436
 Zero-point vibrational energy     131510.4 (Joules/Mol)
                                   31.43174 (Kcal/Mol)
 Warning -- explicit consideration of   5 degrees of freedom as
           vibrations may cause significant error
 Vibrational temperatures:    104.06   280.83   403.83   530.76   744.54
          (Kelvin)           1091.77  1288.20  1293.73  1356.85  1529.21
                             1654.44  1730.11  1916.26  2012.57  2469.61
                             4245.18  4320.45  4661.71

 Zero-point correction=                           0.050090 (Hartree/Particle)
 Thermal correction to Energy=                    0.055608
 Thermal correction to Enthalpy=                  0.056552
 Thermal correction to Gibbs Free Energy=         0.020674
 Sum of electronic and zero-point Energies=           -191.679406
 Sum of electronic and thermal Energies=              -191.673887
 Sum of electronic and thermal Enthalpies=            -191.672943
 Sum of electronic and thermal Free Energies=         -191.708822

                     E (Thermal)             CV                S
                      KCal/Mol        Cal/Mol-Kelvin    Cal/Mol-Kelvin
 Total                   34.895             17.436             75.513
 Electronic               0.000              0.000              2.183
 Translational            0.889              2.981             38.342
 Rotational               0.889              2.981             24.637
 Vibrational             33.117             11.474             10.351
 Vibration     1          0.598              1.967              4.089
 Vibration     2          0.636              1.847              2.178
 Vibration     3          0.680              1.709              1.530
 Vibration     4          0.741              1.536              1.084
 Vibration     5          0.872              1.211              0.616

 Normal termination of Gaussian 09 at Sun Jun 19 10:08:40 2016.
