 Gaussian 09, Revision E.01,
 Gaussian 09:  EM64L-G09RevE.01 30-Nov-2015

 ---------------------------------------------
 #p b3lyp/6-311++G(3df,2p) freq symmetry=Loose
 ---------------------------------------------

 ---------
 b3lyp opt
 ---------
 Symbolic Z-matrix:
 Charge =  3 Multiplicity = 3

                         Standard orientation:
 ---------------------------------------------------------------------
 Center     Atomic      Atomic             Coordinates (Angstroms)
 Number     Number       Type             X           Y           Z
 ---------------------------------------------------------------------
      1          1           0        0.574556    1.960025   -0.389171
      2          6           0       -0.627487   -0.050192   -0.051128
      3          6           0        1.540543   -0.128208    0.197775
      4          6           0        0.490513   -0.970922   -0.248203
      5          1           0        2.601162   -0.190420    0.527277
      6          6           0        0.543192    0.883612   -0.080426
      7          6           0       -1.962476   -0.029401    0.113037
      8          1           0       -3.081426    0.001060    0.275569
 ---------------------------------------------------------------------

 SCF Done:  E(UB3LYP) =  -190.427467854     A.U. after   18 cycles

 The electronic state is 3-A.
 Alpha  occ. eigenvalues --  -11.09315 -11.06943 -11.03487 -11.03433 -11.00616
 Alpha  occ. eigenvalues --   -1.71006  -1.55450  -1.37713  -1.37596  -1.26182
 Alpha  occ. eigenvalues --   -1.20453  -1.19047  -1.17151  -1.14778  -1.04429
 Alpha  occ. eigenvalues --   -1.01884
 Alpha virt. eigenvalues --   -0.89721  -0.82171  -0.81277  -0.68456  -0.58372
 Alpha virt. eigenvalues --   -0.54178  -0.52520  -0.51011  -0.47488  -0.46580
 Alpha virt. eigenvalues --   -0.45648  -0.42789  -0.42211  -0.40327  -0.38906

  Beta  occ. eigenvalues --  -11.07929 -11.05242 -11.03333 -11.03249 -11.00151
  Beta  occ. eigenvalues --   -1.69711  -1.51822  -1.35991  -1.35737  -1.24857
  Beta  occ. eigenvalues --   -1.18069  -1.16989  -1.16429  -1.11832
  Beta virt. eigenvalues --   -0.92708  -0.88265  -0.84115  -0.78739  -0.76181
  Beta virt. eigenvalues --   -0.64515  -0.56488  -0.53124  -0.51779  -0.50253
  Beta virt. eigenvalues --   -0.47007  -0.45974  -0.44004  -0.42260  -0.41284

 Mulliken charges and spin densities:
               1          2
     1  H    0.389757   0.008265
     2  C    0.234962   0.189487
     3  C    0.089919   0.265568
     4  C    0.598144   0.747089
     5  H    0.428971   0.004137
     6  C    0.276258   0.079969
     7  C    0.456112   0.724941
     8  H    0.525877  -0.019455
 Sum of Mulliken charges =   3.00000   2.00000

 Dipole moment (field-independent basis, Debye):
    X=             -2.6918    Y=              1.0306    Z=              0.5188  Tot=              2.9287
 Quadrupole moment (field-independent basis, Debye-Ang):
   XX=             24.7851   YY=            -10.9654   ZZ=            -20.7936
   XY=              0.3304   XZ=             -0.3142   YZ=             -0.7656

  Exact polarizability:  69.462  -0.962  34.736  -1.521   0.173  22.145
 Approx polarizability: 144.337  -6.457  69.616  -4.485   3.156  33.974

                      1                      2                      3
                      A                      A                      A
 Frequencies --    204.0178               314.5841               441.5604
 Red. masses --      2.7344                 2.7210                 4.0043
 Frc consts  --      0.0671                 0.1587                 0.4600
 IR Inten    --     20.1371                22.3820                32.6941

                      4                      5                      6
                      A                      A                      A
 Frequencies --    460.1098               602.5884               733.0650
 Red. masses --      4.5834                 1.4217                 2.6355
 Frc consts  --      0.5717                 0.3042                 0.8344
 IR Inten    --     18.5310                20.6342                25.2154

                      7                      8                      9
                      A                      A                      A
 Frequencies --    825.9015               887.9813               926.7729
 Red. masses --      1.4393                 3.1667                 1.5327
 Frc consts  --      0.5784                 1.4712                 0.7757
 IR Inten    --     36.1135                60.5390                 5.7959

                     10                     11                     12
                      A                      A                      A
 Frequencies --    950.4320              1004.9669              1100.4662
 Red. masses --      1.9597                 1.8680                 1.4348
 Frc consts  --      1.0430                 1.1115                 1.0238
 IR Inten    --      5.0703                13.0628                 8.0234

                     13                     14                     15
                      A                      A                      A
 Frequencies --   1159.7618              1266.4021              1465.1968
 Red. masses --      2.7424                 4.7415                 6.8392
 Frc consts  --      2.1733                 4.4803                 8.6506
 IR Inten    --     94.1780                96.7878               390.6484

                     16                     17                     18
                      A                      A                      A
 Frequencies --   2783.7964              2837.4719              2941.8075
 Red. masses --      1.1343                 1.0988                 1.1182
 Frc consts  --      5.1790                 5.2121                 5.7018
 IR Inten    --    869.1276               435.6728               409.7610

 - Thermochemistry -
 -------------------
 Temperature   298.150 Kelvin.  Pressure   1.00000 Atm.
 Atom     1 has atomic number  1 and mass   1.00783

 Molecular mass:    63.02348 amu.
 Principal axes and moments of inertia in atomic units:
                           1         2         3
     Eigenvalues --    95.52727 373.24933 454.88077
           X            0.99996   0.00818   0.00280
           Y           -0.00807   0.99929  -0.03689
           Z           -0.00310   0.03686   0.99932
 This molecule is an asymmetric top.
 Rotational symmetry number  1.
 Rotational temperatures (Kelvin)      0.90669     0.23205     0.19041
 Rotational constants (GHZ):          18.89242     4.83522     3.96750
 Zero-point vibrational energy     125050.9 (Joules/Mol)
                                   29.88789 (Kcal/Mol)
 Warning -- explicit consideration of   5 degrees of freedom as
           vibrations may cause significant error
 Vibrational temperatures:    293.54   452.62   635.31   661.99   866.99
          (Kelvin)           1054.72  1188.29  1277.61  1333.42  1367.46
                             1445.92  1583.32  1668.64  1822.07  2108.09
                             4005.26  4082.48  4232.60

 Zero-point correction=                           0.047629 (Hartree/Particle)
 Thermal correction to Energy=                    0.052524
 Thermal correction to Enthalpy=                  0.053468
 Thermal correction to Gibbs Free Energy=         0.019553
 Sum of electronic and zero-point Energies=           -190.379838
 Sum of electronic and thermal Energies=              -190.374944
 Sum of electronic and thermal Enthalpies=            -190.374000
 Sum of electronic and thermal Free Energies=         -190.407915

                     E (Thermal)             CV                S
                      KCal/Mol        Cal/Mol-Kelvin    Cal/Mol-Kelvin
 Total                   32.959             17.113             71.381
 Electronic               0.000              0.000              2.183
 Translational            0.889              2.981             38.342
 Rotational               0.889              2.981             24.298
 Vibrational             31.182             11.152              6.558
 Vibration     1          0.640              1.834              2.097
 Vibration     2          0.702              1.646              1.338
 Vibration     3          0.801              1.380              0.822
 Vibration     4          0.818              1.339              0.766
 Vibration     5          0.961              1.026              0.445

 Optimization completed.
    -- Stationary point found.
 Normal termination of Gaussian 09 at Sun Jun 19 14:43:39 2016.
