 Gaussian 09, Revision E.01,
 Gaussian 09:  EM64L-G09RevE.01 30-Nov-2015

 ---------------------------------------------
 #p b3lyp/6-311++G(3df,2p) freq symmetry=Loose
 ---------------------------------------------

 ---------
 b3lyp opt
 ---------
 Symbolic Z-matrix:
 Charge =  0 Multiplicity = 2

                         Standard orientation:
 ---------------------------------------------------------------------
 Center     Atomic      Atomic             Coordinates (Angstroms)
 Number     Number       Type             X           Y           Z
 ---------------------------------------------------------------------
      1          6           0        1.141714    0.088023    0.014254
      2          6           0       -1.313230   -0.036707   -0.148380
      3          6           0       -2.347991   -0.692491    0.075228
      4          1           0       -0.241080    1.358584    0.966307
      5          6           0        2.193798   -0.483279   -0.001122
      6          1           0        3.124095   -0.995350   -0.013013
      7          6           0       -0.132108    0.802425    0.027397
      8          1           0       -0.136114    1.568940   -0.757557
 ---------------------------------------------------------------------

 SCF Done:  E(UB3LYP) =  -192.134849271     A.U. after   23 cycles

 The electronic state is 2-A.
 Alpha  occ. eigenvalues --  -10.25270 -10.22456 -10.22267 -10.19861 -10.18656
 Alpha  occ. eigenvalues --   -0.85226  -0.77829  -0.73439  -0.56903  -0.52859
 Alpha  occ. eigenvalues --   -0.50246  -0.49197  -0.35432  -0.31834  -0.31072
 Alpha  occ. eigenvalues --   -0.29929  -0.29559
 Alpha virt. eigenvalues --   -0.02652  -0.01084  -0.00041   0.00655   0.01553
 Alpha virt. eigenvalues --    0.02398   0.03295   0.04523   0.04999   0.06504
 Alpha virt. eigenvalues --    0.07539   0.07946   0.08393   0.08682   0.10041

  Beta  occ. eigenvalues --  -10.25265 -10.21801 -10.21226 -10.19866 -10.18641
  Beta  occ. eigenvalues --   -0.84565  -0.76442  -0.72027  -0.56672  -0.52234
  Beta  occ. eigenvalues --   -0.50114  -0.48484  -0.31034  -0.30456  -0.29407
  Beta  occ. eigenvalues --   -0.28976
  Beta virt. eigenvalues --   -0.19614  -0.01956  -0.00062   0.00184   0.00927
  Beta virt. eigenvalues --    0.02560   0.03052   0.03706   0.04784   0.05073
  Beta virt. eigenvalues --    0.06925   0.07629   0.08044   0.08571   0.08871

 Mulliken charges and spin densities:
               1          2
     1  C   -0.368137  -0.010581
     2  C    0.487138   0.266982
     3  C   -0.477635   0.716793
     4  H    0.198152   0.020292
     5  C    0.427554   0.022854
     6  H    0.313401  -0.000199
     7  C   -0.774809  -0.038275
     8  H    0.194335   0.022134
 Sum of Mulliken charges =  -0.00000   1.00000

 Dipole moment (field-independent basis, Debye):
    X=              2.0969    Y=              1.6917    Z=             -0.4848  Tot=              2.7376
 Quadrupole moment (field-independent basis, Debye-Ang):
   XX=            -32.1655   YY=            -28.3229   ZZ=            -29.7453
   XY=             -4.0313   XZ=              1.5238   YZ=              0.7690

  Exact polarizability: 109.295  10.541  63.376  -3.860  -4.074  40.742
 Approx polarizability: 138.972  10.180  84.543  -9.861  -6.242  59.473

                      1                      2                      3
                      A                      A                      A
 Frequencies --    128.5116               254.3359               308.8711
 Red. masses --      6.1264                 6.3924                 2.2921
 Frc consts  --      0.0596                 0.2436                 0.1288
 IR Inten    --      5.3599                15.5154                13.5168

                      4                      5                      6
                      A                      A                      A
 Frequencies --    340.1559               504.4391               687.4190
 Red. masses --      5.6908                 7.5570                 1.2579
 Frc consts  --      0.3880                 1.1330                 0.3502
 IR Inten    --      4.0405                12.4752                44.5366

                      7                      8                      9
                      A                      A                      A
 Frequencies --    700.5523               822.1367               883.4704
 Red. masses --      1.2762                 2.5990                 3.6929
 Frc consts  --      0.3690                 1.0350                 1.6983
 IR Inten    --     40.4412                46.0253                 3.3182

                     10                     11                     12
                      A                      A                      A
 Frequencies --    985.0497              1200.9000              1279.2818
 Red. masses --      3.3531                 1.0918                 1.4895
 Frc consts  --      1.9170                 0.9277                 1.4362
 IR Inten    --     76.9019                41.0437               530.3548

                     13                     14                     15
                      A                      A                      A
 Frequencies --   1388.2390              1537.8376              2227.7723
 Red. masses --      1.2323                 3.9293                 5.8864
 Frc consts  --      1.3992                 5.4751                17.2125
 IR Inten    --    351.4668              1227.7507                 1.5933

                     16                     17                     18
                      A                      A                      A
 Frequencies --   2987.1671              3006.6473              3462.4219
 Red. masses --      1.0590                 1.0937                 1.1637
 Frc consts  --      5.5675                 5.8255                 8.2198
 IR Inten    --     16.0719                 7.2626                67.2181

 - Thermochemistry -
 -------------------
 Temperature   298.150 Kelvin.  Pressure   1.00000 Atm.
 Atom     1 has atomic number  6 and mass  12.00000

 Molecular mass:    63.02348 amu.
 Principal axes and moments of inertia in atomic units:
                           1         2         3
     Eigenvalues --    83.74994 614.92903 685.38491
           X            0.99972  -0.02379  -0.00111
           Y            0.02380   0.99969   0.00737
           Z            0.00093  -0.00739   0.99997
 This molecule is an asymmetric top.
 Rotational symmetry number  1.
 Rotational temperatures (Kelvin)      1.03420     0.14085     0.12637
 Rotational constants (GHZ):          21.54916     2.93488     2.63318
 Zero-point vibrational energy     135807.3 (Joules/Mol)
                                   32.45873 (Kcal/Mol)
 Warning -- explicit consideration of   5 degrees of freedom as
           vibrations may cause significant error
 Vibrational temperatures:    184.90   365.93   444.40   489.41   725.77
          (Kelvin)            989.04  1007.94  1182.87  1271.12  1417.27
                             1727.83  1840.60  1997.36  2212.60  3205.26
                             4297.86  4325.89  4981.65

 Zero-point correction=                           0.051726 (Hartree/Particle)
 Thermal correction to Energy=                    0.057163
 Thermal correction to Enthalpy=                  0.058107
 Thermal correction to Gibbs Free Energy=         0.023018
 Sum of electronic and zero-point Energies=           -192.083123
 Sum of electronic and thermal Energies=              -192.077686
 Sum of electronic and thermal Enthalpies=            -192.076742
 Sum of electronic and thermal Free Energies=         -192.111831

                     E (Thermal)             CV                S
                      KCal/Mol        Cal/Mol-Kelvin    Cal/Mol-Kelvin
 Total                   35.870             17.891             73.852
 Electronic               0.000              0.000              1.377
 Translational            0.889              2.981             38.342
 Rotational               0.889              2.981             25.071
 Vibrational             34.093             11.930              9.061
 Vibration     1          0.611              1.925              2.968
 Vibration     2          0.665              1.755              1.700
 Vibration     3          0.698              1.657              1.368
 Vibration     4          0.720              1.595              1.211
 Vibration     5          0.860              1.240              0.647

 Optimization completed.
    -- Stationary point found.
 Normal termination of Gaussian 09 at Sun Jun 19 07:32:24 2016.
