 Gaussian 09, Revision E.01,
 Gaussian 09:  EM64L-G09RevE.01 30-Nov-2015

 ---------------------------------------------
 #p b3lyp/6-311++G(3df,2p) freq symmetry=Loose
 ---------------------------------------------

 ---------
 b3lyp opt
 ---------
 Symbolic Z-matrix:
 Charge =  2 Multiplicity = 4

                         Standard orientation:
 ---------------------------------------------------------------------
 Center     Atomic      Atomic             Coordinates (Angstroms)
 Number     Number       Type             X           Y           Z
 ---------------------------------------------------------------------
      1          6           0        0.271384   -0.000597    0.011796
      2          6           0       -1.040965   -0.000331   -0.080763
      3          6           0        1.534731   -0.663954    0.017417
      4          1           0        1.993121   -1.654421    0.021035
      5          6           0       -2.431742    0.000089   -0.090298
      6          6           0        1.533958    0.664539    0.017523
      7          1           0       -3.188237    0.000290    0.704352
      8          1           0        1.990920    1.655658    0.020561
 ---------------------------------------------------------------------

 SCF Done:  E(UB3LYP) =  -191.252100362     A.U. after   15 cycles

 The electronic state is 4-A.
 Alpha  occ. eigenvalues --  -10.77689 -10.75888 -10.72663 -10.72221 -10.72135
 Alpha  occ. eigenvalues --   -1.42356  -1.30606  -1.18264  -1.05130  -1.00339
 Alpha  occ. eigenvalues --   -0.97594  -0.90072  -0.88162  -0.87328  -0.82383
 Alpha  occ. eigenvalues --   -0.77148  -0.69276
 Alpha virt. eigenvalues --   -0.53221  -0.48570  -0.43861  -0.33266  -0.31326
 Alpha virt. eigenvalues --   -0.29830  -0.28178  -0.26397  -0.25002  -0.24954
 Alpha virt. eigenvalues --   -0.24020  -0.23035  -0.21184  -0.19927  -0.19167

  Beta  occ. eigenvalues --  -10.76047 -10.73412 -10.72557 -10.71786 -10.71702
  Beta  occ. eigenvalues --   -1.40794  -1.24564  -1.14165  -1.03882  -0.99209
  Beta  occ. eigenvalues --   -0.94687  -0.87124  -0.85436  -0.83861
  Beta virt. eigenvalues --   -0.66659  -0.65229  -0.53448  -0.46121  -0.45868
  Beta virt. eigenvalues --   -0.37808  -0.31792  -0.29578  -0.29333  -0.27786
  Beta virt. eigenvalues --   -0.25738  -0.24061  -0.23798  -0.22396  -0.22178

 Mulliken charges and spin densities:
               1          2
     1  C   -0.114215   0.348295
     2  C    0.624326   0.899722
     3  C    0.117456   0.223577
     4  H    0.368807   0.011454
     5  C    0.191779   1.262512
     6  C    0.115851   0.224065
     7  H    0.327226   0.018975
     8  H    0.368770   0.011400
 Sum of Mulliken charges =   2.00000   3.00000

 Dipole moment (field-independent basis, Debye):
    X=             -1.2045    Y=              0.0014    Z=              0.6162  Tot=              1.3530
 Quadrupole moment (field-independent basis, Debye-Ang):
   XX=             15.7594   YY=            -15.4066   ZZ=            -23.4646
   XY=             -0.0022   XZ=             -2.1303   YZ=             -0.0004

  Exact polarizability:  88.415   0.000  33.664   0.056   0.001  24.412
 Approx polarizability: 155.306   0.008  52.465   3.619   0.003  35.289

                      1                      2                      3
                      A                      A                      A
 Frequencies --    169.0417               170.2483               368.0930
 Red. masses --      4.0145                 3.7718                 5.7465
 Frc consts  --      0.0676                 0.0644                 0.4587
 IR Inten    --     11.3709                 9.5034                 8.0372

                      4                      5                      6
                      A                      A                      A
 Frequencies --    460.0749               669.0997               695.2684
 Red. masses --      3.6018                 1.4576                 3.8522
 Frc consts  --      0.4492                 0.3845                 1.0971
 IR Inten    --      0.6659                14.0382                 6.3948

                      7                      8                      9
                      A                      A                      A
 Frequencies --    789.3097               846.1390               866.4754
 Red. masses --      1.2221                 1.3622                 1.4272
 Frc consts  --      0.4486                 0.5746                 0.6313
 IR Inten    --     52.2585                15.0953                 0.0141

                     10                     11                     12
                      A                      A                      A
 Frequencies --    894.5820               942.6547              1008.5033
 Red. masses --      8.2797                 1.3039                 1.3241
 Frc consts  --      3.9039                 0.6827                 0.7934
 IR Inten    --     54.8104                12.5670                 9.6951

                     13                     14                     15
                      A                      A                      A
 Frequencies --   1052.9258              1554.4892              1872.1127
 Red. masses --      5.1677                 5.2821                 9.6940
 Frc consts  --      3.3755                 7.5202                20.0179
 IR Inten    --    167.1243                33.6923               169.0894

                     16                     17                     18
                      A                      A                      A
 Frequencies --   3072.1559              3117.8823              3164.8905
 Red. masses --      1.0966                 1.0915                 1.1527
 Frc consts  --      6.0979                 6.2514                 6.8028
 IR Inten    --    245.9424               307.4890               201.2010

 - Thermochemistry -
 -------------------
 Temperature   298.150 Kelvin.  Pressure   1.00000 Atm.
 Atom     1 has atomic number  6 and mass  12.00000

 Molecular mass:    63.02348 amu.
 Principal axes and moments of inertia in atomic units:
                           1         2         3
     Eigenvalues --    59.84784 572.29460 627.51033
           X            0.99991  -0.00001  -0.01344
           Y            0.00001   1.00000  -0.00003
           Z            0.01344   0.00003   0.99991
 This molecule is an asymmetric top.
 Rotational symmetry number  1.
 Rotational temperatures (Kelvin)      1.44723     0.15134     0.13803
 Rotational constants (GHZ):          30.15549     3.15352     2.87603
 Zero-point vibrational energy     129878.2 (Joules/Mol)
                                   31.04164 (Kcal/Mol)
 Warning -- explicit consideration of   4 degrees of freedom as
           vibrations may cause significant error
 Vibrational temperatures:    243.21   244.95   529.60   661.94   962.68
          (Kelvin)           1000.33  1135.64  1217.40  1246.66  1287.10
                             1356.27  1451.01  1514.92  2236.56  2693.55
                             4420.14  4485.93  4553.57

 Zero-point correction=                           0.049468 (Hartree/Particle)
 Thermal correction to Energy=                    0.054738
 Thermal correction to Enthalpy=                  0.055682
 Thermal correction to Gibbs Free Energy=         0.020498
 Sum of electronic and zero-point Energies=           -191.202632
 Sum of electronic and thermal Energies=              -191.197362
 Sum of electronic and thermal Enthalpies=            -191.196418
 Sum of electronic and thermal Free Energies=         -191.231602

                     E (Thermal)             CV                S
                      KCal/Mol        Cal/Mol-Kelvin    Cal/Mol-Kelvin
 Total                   34.349             17.843             74.051
 Electronic               0.000              0.000              2.755
 Translational            0.889              2.981             38.342
 Rotational               0.889              2.981             24.578
 Vibrational             32.571             11.882              8.376
 Vibration     1          0.625              1.881              2.446
 Vibration     2          0.625              1.879              2.433
 Vibration     3          0.741              1.538              1.088
 Vibration     4          0.818              1.339              0.766

 Optimization completed.
    -- Stationary point found.
 Normal termination of Gaussian 09 at Sun Jun 19 13:33:00 2016.
