 Gaussian 09, Revision E.01,
 Gaussian 09:  EM64L-G09RevE.01 30-Nov-2015

 ---------------------------------------------
 #p b3lyp/6-311++G(3df,2p) freq symmetry=Loose
 ---------------------------------------------

 ---------
 b3lyp opt
 ---------
 Symbolic Z-matrix:
 Charge =  3 Multiplicity = 1

                         Standard orientation:
 ---------------------------------------------------------------------
 Center     Atomic      Atomic             Coordinates (Angstroms)
 Number     Number       Type             X           Y           Z
 ---------------------------------------------------------------------
      1          6           0        0.000111   -0.709169    0.000000
      2          6           0        0.000116    0.439678    0.873399
      3          6           0       -0.000165   -2.034148    0.000000
      4          1           0       -0.000428   -3.173943    0.000000
      5          6           0        0.000116    0.439678   -0.873399
      6          6           0        0.000000    1.602077    0.000000
      7          1           0       -0.870825    2.372444    0.000000
      8          1           0        0.870480    2.372809    0.000000
 ---------------------------------------------------------------------

 SCF Done:  E(RB3LYP) =  -190.382498643     A.U. after   14 cycles

 The electronic state is 1-A'.
 Alpha  occ. eigenvalues --  -11.13313 -11.06545 -11.06537 -11.01714 -10.96609
 Alpha  occ. eigenvalues --   -1.71947  -1.55740  -1.40884  -1.32044  -1.28270
 Alpha  occ. eigenvalues --   -1.19600  -1.17929  -1.17556  -1.07793  -1.02487
 Alpha virt. eigenvalues --   -0.91940  -0.90331  -0.82110  -0.77422  -0.68834
 Alpha virt. eigenvalues --   -0.58646  -0.53505  -0.51509  -0.50319  -0.47220
 Alpha virt. eigenvalues --   -0.46512  -0.43017  -0.42891  -0.40964  -0.40072

 Mulliken charges:
               1
     1  C   -0.201025
     2  C    1.415260
     3  C    0.092623
     4  H    0.531974
     5  C    1.415260
     6  C   -1.005951
     7  H    0.375953
     8  H    0.375906
 Sum of Mulliken charges =   3.00000

 Dipole moment (field-independent basis, Debye):
    X=             -0.0010    Y=             -2.7684    Z=              0.0000  Tot=              2.7684
 Quadrupole moment (field-independent basis, Debye-Ang):
   XX=            -19.3135   YY=             34.9439   ZZ=            -18.8303
   XY=              0.0031   XZ=             -0.0000   YZ=             -0.0000

  Exact polarizability:  24.843   0.002  76.623  -0.000  -0.000  35.588
 Approx polarizability:  39.580   0.005 183.926   0.000   0.000 102.453

                      1                      2                      3
                     A"                     A'                     A'
 Frequencies --    206.1510               222.7978               437.9235
 Red. masses --      3.1301                 2.5024                 1.7149
 Frc consts  --      0.0784                 0.0732                 0.1938
 IR Inten    --     48.1602                66.8747                14.4632

                      4                      5                      6
                     A"                     A'                     A'
 Frequencies --    462.4405               683.2310               759.4264
 Red. masses --      6.1040                 7.7559                 2.8543
 Frc consts  --      0.7691                 2.1331                 0.9699
 IR Inten    --      8.7061                 2.6945                 0.7972

                      7                      8                      9
                     A'                     A"                     A'
 Frequencies --    781.3264               785.1326               872.0881
 Red. masses --      1.5142                 1.0843                 1.7356
 Frc consts  --      0.5446                 0.3938                 0.7777
 IR Inten    --     53.1685                 0.0000               702.8218

                     10                     11                     12
                     A"                     A'                     A"
 Frequencies --    877.6619               937.1439               963.2583
 Red. masses --      4.2139                 2.9164                 1.2207
 Frc consts  --      1.9124                 1.5091                 0.6673
 IR Inten    --     15.6987               135.9027                59.8693

                     13                     14                     15
                     A"                     A'                     A'
 Frequencies --    988.4508              1218.4957              1665.7239
 Red. masses --      1.9952                 3.6993                 6.4062
 Frc consts  --      1.1486                 3.2361                10.4726
 IR Inten    --      6.0306                66.5761              1049.6931

                     16                     17                     18
                     A'                     A'                     A'
 Frequencies --   2351.5195              2468.7529              2730.6389
 Red. masses --      1.0843                 1.0742                 1.1613
 Frc consts  --      3.5328                 3.8574                 5.1018
 IR Inten    --    579.6083              1858.7545               510.7370

 - Thermochemistry -
 -------------------
 Temperature   298.150 Kelvin.  Pressure   1.00000 Atm.
 Atom     1 has atomic number  6 and mass  12.00000

 Molecular mass:    63.02348 amu.
 Principal axes and moments of inertia in atomic units:
                           1         2         3
     Eigenvalues --    70.83477 407.51735 467.43940
           X            0.00005   0.00000   1.00000
           Y            1.00000   0.00000  -0.00005
           Z            0.00000   1.00000   0.00000
 This molecule is an asymmetric top.
 Rotational symmetry number  1.
 Rotational temperatures (Kelvin)      1.22276     0.21254     0.18529
 Rotational constants (GHZ):          25.47818     4.42862     3.86091
 Zero-point vibrational energy     116110.5 (Joules/Mol)
                                   27.75108 (Kcal/Mol)
 Warning -- explicit consideration of   4 degrees of freedom as
           vibrations may cause significant error
 Vibrational temperatures:    296.60   320.56   630.07   665.35   983.02
          (Kelvin)           1092.64  1124.15  1129.63  1254.74  1262.76
                             1348.34  1385.91  1422.16  1753.14  2396.60
                             3383.31  3551.98  3928.78

 Zero-point correction=                           0.044224 (Hartree/Particle)
 Thermal correction to Energy=                    0.049304
 Thermal correction to Enthalpy=                  0.050248
 Thermal correction to Gibbs Free Energy=         0.017104
 Sum of electronic and zero-point Energies=           -190.338274
 Sum of electronic and thermal Energies=              -190.333195
 Sum of electronic and thermal Enthalpies=            -190.332251
 Sum of electronic and thermal Free Energies=         -190.365394

                     E (Thermal)             CV                S
                      KCal/Mol        Cal/Mol-Kelvin    Cal/Mol-Kelvin
 Total                   30.938             17.830             69.756
 Electronic               0.000              0.000              0.000
 Translational            0.889              2.981             38.342
 Rotational               0.889              2.981             24.116
 Vibrational             29.161             11.869              7.298
 Vibration     1          0.641              1.831              2.078
 Vibration     2          0.648              1.806              1.936
 Vibration     3          0.798              1.388              0.833
 Vibration     4          0.820              1.333              0.759

 Optimization completed.
    -- Stationary point found.
 Normal termination of Gaussian 09 at Tue Jul 19 15:36:23 2016.
