 Gaussian 09, Revision E.01,
 Gaussian 09:  EM64L-G09RevE.01 30-Nov-2015

 ---------------------------------------------
 #p b3lyp/6-311++G(3df,2p) freq symmetry=Loose
 ---------------------------------------------

 ---------
 b3lyp opt
 ---------
 Symbolic Z-matrix:
 Charge =  0 Multiplicity = 4

                         Standard orientation:
 ---------------------------------------------------------------------
 Center     Atomic      Atomic             Coordinates (Angstroms)
 Number     Number       Type             X           Y           Z
 ---------------------------------------------------------------------
      1          6           0       -0.987050   -0.558899    0.210522
      2          1           0       -1.154440   -1.493650   -0.335127
      3          1           0       -1.183787   -0.761980    1.273757
      4          6           0       -1.869738    0.496287   -0.306873
      5          1           0       -2.031670    1.530978   -0.043861
      6          6           0        0.435635   -0.167591    0.061329
      7          6           0        1.540137    0.504165    0.535912
      8          6           0        1.609332   -0.153187   -0.650018
 ---------------------------------------------------------------------

 SCF Done:  E(UB3LYP) =  -192.033528810     A.U. after   17 cycles

 The electronic state is 4-A.
 Alpha  occ. eigenvalues --  -10.27776 -10.24115 -10.23959 -10.22440 -10.22340
 Alpha  occ. eigenvalues --   -0.95854  -0.83311  -0.66390  -0.56136  -0.53428
 Alpha  occ. eigenvalues --   -0.48376  -0.45404  -0.44093  -0.39322  -0.30076
 Alpha  occ. eigenvalues --   -0.28548  -0.26209  -0.25135
 Alpha virt. eigenvalues --   -0.04895  -0.02118  -0.00830   0.00604   0.01730
 Alpha virt. eigenvalues --    0.04399   0.05504   0.05939   0.06277   0.06688
 Alpha virt. eigenvalues --    0.07985   0.09607   0.10859   0.11128   0.11392

  Beta  occ. eigenvalues --  -10.27081 -10.24042 -10.21659 -10.21573 -10.21258
  Beta  occ. eigenvalues --   -0.94812  -0.81233  -0.60832  -0.54201  -0.50868
  Beta  occ. eigenvalues --   -0.46507  -0.43205  -0.40474  -0.38229  -0.26484
  Beta virt. eigenvalues --   -0.14395  -0.11404  -0.08785  -0.03151  -0.00752
  Beta virt. eigenvalues --   -0.00425   0.00930   0.02084   0.04961   0.05940
  Beta virt. eigenvalues --    0.06198   0.06339   0.07373   0.09311   0.10258

 Mulliken charges and spin densities:
               1          2
     1  C    0.009111  -0.166820
     2  H    0.169625   0.054322
     3  H    0.154812   0.082505
     4  C   -0.415028   1.968291
     5  H    0.215329   0.007981
     6  C    0.499743   0.308333
     7  C   -0.313413   0.368881
     8  C   -0.320179   0.376508
 Sum of Mulliken charges =  -0.00000   3.00000

 Dipole moment (field-independent basis, Debye):
    X=             -2.7199    Y=             -0.8197    Z=              0.7901  Tot=              2.9485
 Quadrupole moment (field-independent basis, Debye-Ang):
   XX=            -34.0890   YY=            -28.1275   ZZ=            -32.7059
   XY=             -0.6697   XZ=             -0.8189   YZ=             -1.5934

  Exact polarizability:  67.677  -0.072  50.668  -1.028   8.321  59.487
 Approx polarizability:  92.179   2.251  74.189  -2.631  14.450  90.364

                      1                      2                      3
                      A                      A                      A
 Frequencies --     62.8753               176.0411               259.9248
 Red. masses --      4.5659                 1.7969                 2.2488
 Frc consts  --      0.0106                 0.0328                 0.0895
 IR Inten    --      1.0731                10.1893                37.4551

                      4                      5                      6
                      A                      A                      A
 Frequencies --    314.6717               546.8349               688.2503
 Red. masses --      2.8953                 5.9686                10.4318
 Frc consts  --      0.1689                 1.0516                 2.9114
 IR Inten    --     22.2102                 0.7277               358.3761

                      7                      8                      9
                      A                      A                      A
 Frequencies --    749.4899               804.8726               984.9231
 Red. masses --      1.8299                 2.3313                 1.6518
 Frc consts  --      0.6056                 0.8898                 0.9441
 IR Inten    --     22.4167                20.2511                14.1377

                     10                     11                     12
                      A                      A                      A
 Frequencies --   1073.8259              1196.7084              1277.6737
 Red. masses --      4.0717                 1.0868                 1.4146
 Frc consts  --      2.7662                 0.9170                 1.3606
 IR Inten    --      0.6926                 3.7065                 3.6864

                     13                     14                     15
                      A                      A                      A
 Frequencies --   1327.5935              1430.1240              1690.3444
 Red. masses --      9.4237                 1.0845                11.6852
 Frc consts  --      9.7860                 1.3068                19.6715
 IR Inten    --     79.8765                 9.7389                46.9969

                     16                     17                     18
                      A                      A                      A
 Frequencies --   2942.5005              3016.8731              3217.7253
 Red. masses --      1.0661                 1.0878                 1.0908
 Frc consts  --      5.4386                 5.8332                 6.6540
 IR Inten    --      5.4520                 0.7960                 1.4672

 - Thermochemistry -
 -------------------
 Temperature   298.150 Kelvin.  Pressure   1.00000 Atm.
 Atom     1 has atomic number  6 and mass  12.00000

 Molecular mass:    63.02348 amu.
 Principal axes and moments of inertia in atomic units:
                           1         2         3
     Eigenvalues --    98.23826 478.39759 491.84402
           X            0.99994  -0.00548  -0.00917
           Y            0.00409   0.98948  -0.14461
           Z            0.00987   0.14457   0.98945
 This molecule is an asymmetric top.
 Rotational symmetry number  1.
 Rotational temperatures (Kelvin)      0.88167     0.18105     0.17610
 Rotational constants (GHZ):          18.37106     3.77247     3.66934
 Zero-point vibrational energy     130161.2 (Joules/Mol)
                                   31.10927 (Kcal/Mol)
 Warning -- explicit consideration of   5 degrees of freedom as
           vibrations may cause significant error
 Vibrational temperatures:     90.46   253.28   373.97   452.74   786.77
          (Kelvin)            990.24  1078.35  1158.03  1417.08  1544.99
                             1721.79  1838.29  1910.11  2057.63  2432.03
                             4233.60  4340.60  4629.58

 Zero-point correction=                           0.049576 (Hartree/Particle)
 Thermal correction to Energy=                    0.055286
 Thermal correction to Enthalpy=                  0.056230
 Thermal correction to Gibbs Free Energy=         0.019600
 Sum of electronic and zero-point Energies=           -191.983953
 Sum of electronic and thermal Energies=              -191.978243
 Sum of electronic and thermal Enthalpies=            -191.977299
 Sum of electronic and thermal Free Energies=         -192.013929

                     E (Thermal)             CV                S
                      KCal/Mol        Cal/Mol-Kelvin    Cal/Mol-Kelvin
 Total                   34.692             17.908             77.095
 Electronic               0.000              0.000              2.755
 Translational            0.889              2.981             38.342
 Rotational               0.889              2.981             24.650
 Vibrational             32.915             11.947             11.348
 Vibration     1          0.597              1.972              4.365
 Vibration     2          0.628              1.872              2.370
 Vibration     3          0.668              1.746              1.662
 Vibration     4          0.702              1.646              1.338
 Vibration     5          0.902              1.147              0.551

 Normal termination of Gaussian 09 at Sun Jun 19 08:15:40 2016.
