 Gaussian 09, Revision E.01,
 Gaussian 09:  EM64L-G09RevE.01 30-Nov-2015

 ---------------------------------------------
 #p b3lyp/6-311++G(3df,2p) freq symmetry=Loose
 ---------------------------------------------

 ---------
 b3lyp opt
 ---------
 Symbolic Z-matrix:
 Charge =  3 Multiplicity = 1

                         Standard orientation:
 ---------------------------------------------------------------------
 Center     Atomic      Atomic             Coordinates (Angstroms)
 Number     Number       Type             X           Y           Z
 ---------------------------------------------------------------------
      1          6           0        1.717720    0.645876   -0.159985
      2          6           0        1.716822   -0.655339   -0.122115
      3          6           0        0.541958    0.001991    0.060917
      4          6           0       -1.019662    0.014475    0.437379
      5          1           0       -1.268778   -0.876704    1.163609
      6          1           0       -1.268678    0.951602    1.103222
      7          6           0       -2.038582   -0.013651   -0.416353
      8          1           0       -2.972081   -0.035011   -1.065890
 ---------------------------------------------------------------------

 SCF Done:  E(RB3LYP) =  -190.330460428     A.U. after   16 cycles

 The electronic state is 1-A.
 Alpha  occ. eigenvalues --  -11.11950 -11.03731 -10.98328 -10.98260 -10.98216
 Alpha  occ. eigenvalues --   -1.68401  -1.58840  -1.36658  -1.27842  -1.21203
 Alpha  occ. eigenvalues --   -1.20975  -1.15965  -1.14251  -1.09689  -0.97069
 Alpha virt. eigenvalues --   -0.89038  -0.86911  -0.84531  -0.74026  -0.66479
 Alpha virt. eigenvalues --   -0.60685  -0.55539  -0.55198  -0.53703  -0.45963
 Alpha virt. eigenvalues --   -0.45526  -0.44609  -0.42767  -0.42269  -0.38549

 Mulliken charges:
               1
     1  C    0.361754
     2  C    0.362148
     3  C    0.685092
     4  C   -0.314763
     5  H    0.390145
     6  H    0.390088
     7  C    0.607257
     8  H    0.518280
 Sum of Mulliken charges =   3.00000

 Dipole moment (field-independent basis, Debye):
    X=             -7.0120    Y=             -0.0039    Z=             -0.1283  Tot=              7.0132
 Quadrupole moment (field-independent basis, Debye-Ang):
   XX=             30.5545   YY=            -16.9086   ZZ=            -14.3268
   XY=              0.0836   XZ=              2.5497   YZ=              0.0925

  Exact polarizability:  88.352   0.040  36.483   1.108  -0.221  28.376
 Approx polarizability: 289.287   0.424  99.458  11.901  -1.440  48.683

                      1                      2                      3
                      A                      A                      A
 Frequencies --     46.9616               233.0334               282.0437
 Red. masses --      3.1182                 3.3985                 1.5116
 Frc consts  --      0.0041                 0.1087                 0.0708
 IR Inten    --      0.1285                21.6665                53.0459

                      4                      5                      6
                      A                      A                      A
 Frequencies --    377.0219               438.3633               503.2555
 Red. masses --      2.9390                 4.2302                 4.9503
 Frc consts  --      0.2461                 0.4789                 0.7387
 IR Inten    --     40.2769                23.8496                58.5910

                      7                      8                      9
                      A                      A                      A
 Frequencies --    698.3441               844.1699               860.9084
 Red. masses --     10.8923                 1.5461                 1.3184
 Frc consts  --      3.1298                 0.6492                 0.5757
 IR Inten    --     78.9121                46.0607                 4.7848

                     10                     11                     12
                      A                      A                      A
 Frequencies --    946.9199              1009.7740              1025.9658
 Red. masses --      1.3139                 1.3308                 1.0612
 Frc consts  --      0.6941                 0.7995                 0.6581
 IR Inten    --     35.4795                 8.4985               144.5020

                     13                     14                     15
                      A                      A                      A
 Frequencies --   1412.7490              1492.4814              1712.5537
 Red. masses --      8.1396                 6.1958                11.7537
 Frc consts  --      9.5716                 8.1314                20.3102
 IR Inten    --    356.2465               172.3381                 3.7966

                     16                     17                     18
                      A                      A                      A
 Frequencies --   2315.4499              2350.8413              2738.7415
 Red. masses --      1.0821                 1.0541                 1.1427
 Frc consts  --      3.4182                 3.4322                 5.0498
 IR Inten    --    484.3551               772.3127               913.1745

 - Thermochemistry -
 -------------------
 Temperature   298.150 Kelvin.  Pressure   1.00000 Atm.
 Atom     1 has atomic number  6 and mass  12.00000

 Molecular mass:    63.02348 amu.
 Principal axes and moments of inertia in atomic units:
                           1         2         3
     Eigenvalues --    73.10909 560.43908 571.99404
           X            1.00000   0.00001   0.00133
           Y           -0.00004   0.99978   0.02078
           Z           -0.00133  -0.02078   0.99978
 This molecule is an asymmetric top.
 Rotational symmetry number  1.
 Rotational temperatures (Kelvin)      1.18472     0.15455     0.15142
 Rotational constants (GHZ):          24.68559     3.22023     3.15517
 Zero-point vibrational energy     115377.3 (Joules/Mol)
                                   27.57584 (Kcal/Mol)
 Warning -- explicit consideration of   6 degrees of freedom as
           vibrations may cause significant error
 Vibrational temperatures:     67.57   335.28   405.80   542.45   630.71
          (Kelvin)            724.07  1004.76  1214.57  1238.65  1362.40
                             1452.84  1476.13  2032.63  2147.35  2463.98
                             3331.41  3382.33  3940.43

 Zero-point correction=                           0.043945 (Hartree/Particle)
 Thermal correction to Energy=                    0.049771
 Thermal correction to Enthalpy=                  0.050716
 Thermal correction to Gibbs Free Energy=         0.015163
 Sum of electronic and zero-point Energies=           -190.286516
 Sum of electronic and thermal Energies=              -190.280689
 Sum of electronic and thermal Enthalpies=            -190.279745
 Sum of electronic and thermal Free Energies=         -190.315298

                     E (Thermal)             CV                S
                      KCal/Mol        Cal/Mol-Kelvin    Cal/Mol-Kelvin
 Total                   31.232             18.930             74.827
 Electronic               0.000              0.000              0.000
 Translational            0.889              2.981             38.342
 Rotational               0.889              2.981             24.664
 Vibrational             29.455             12.969             11.821
 Vibration     1          0.595              1.979              4.941
 Vibration     2          0.654              1.790              1.855
 Vibration     3          0.681              1.707              1.521
 Vibration     4          0.748              1.519              1.051
 Vibration     5          0.799              1.387              0.832
 Vibration     6          0.859              1.243              0.650

 Normal termination of Gaussian 09 at Sun Jun 19 13:30:27 2016.
