 Gaussian 09, Revision E.01,
 Gaussian 09:  EM64L-G09RevE.01 30-Nov-2015

 ---------------------------------------------
 #p b3lyp/6-311++G(3df,2p) freq symmetry=Loose
 ---------------------------------------------

 ---------
 b3lyp opt
 ---------
 Symbolic Z-matrix:
 Charge =  0 Multiplicity = 1

                         Standard orientation:
 ---------------------------------------------------------------------
 Center     Atomic      Atomic             Coordinates (Angstroms)
 Number     Number       Type             X           Y           Z
 ---------------------------------------------------------------------
      1          6           0        0.000000    0.000000    0.000000
      2          1           0        0.628470    0.628470    0.628470
      3          1           0       -0.628470   -0.628470    0.628470
      4          1           0       -0.628470    0.628470   -0.628470
      5          1           0        0.628470   -0.628470   -0.628470
 ---------------------------------------------------------------------

 SCF Done:  E(RB3LYP) =  -40.5367974418     A.U. after    7 cycles

 The electronic state is 1-A1.
 Alpha  occ. eigenvalues --  -10.15082  -0.69707  -0.39570  -0.39570  -0.39570
 Alpha virt. eigenvalues --   -0.00546   0.03943   0.03943   0.03943   0.08943
 Alpha virt. eigenvalues --    0.08943   0.08943   0.12278   0.18953   0.18953
 Alpha virt. eigenvalues --    0.18953   0.27223   0.27795   0.27795   0.34219

 Mulliken charges:
               1
     1  C   -0.538197
     2  H    0.134549
     3  H    0.134549
     4  H    0.134549
     5  H    0.134549
 Sum of Mulliken charges =   0.00000

 Dipole moment (field-independent basis, Debye):
    X=              0.0000    Y=              0.0000    Z=              0.0000  Tot=              0.0000
 Quadrupole moment (field-independent basis, Debye-Ang):
   XX=             -8.4926   YY=             -8.4926   ZZ=             -8.4926
   XY=             -0.0000   XZ=             -0.0000   YZ=             -0.0000

  Exact polarizability:  16.571   0.000  16.571   0.000   0.000  16.571
 Approx polarizability:  20.688  -0.000  20.688   0.000  -0.000  20.688

                      1                      2                      3
                     T2                     T2                     T2
 Frequencies --   1343.3771              1343.3771              1343.3771
 Red. masses --      1.1800                 1.1800                 1.1800
 Frc consts  --      1.2547                 1.2547                 1.2547
 IR Inten    --     12.1043                12.1043                12.1043

                      4                      5                      6
                      E                      E                     A1
 Frequencies --   1560.8380              1560.8380              3023.0473
 Red. masses --      1.0078                 1.0078                 1.0078
 Frc consts  --      1.4466                 1.4466                 5.4266
 IR Inten    --      0.0000                 0.0000                 0.0000

                      7                      8                      9
                     T2                     T2                     T2
 Frequencies --   3125.0951              3125.0951              3125.0951
 Red. masses --      1.1008                 1.1008                 1.1008
 Frc consts  --      6.3338                 6.3338                 6.3338
 IR Inten    --     22.9076                22.9076                22.9076

 - Thermochemistry -
 -------------------
 Temperature   298.150 Kelvin.  Pressure   1.00000 Atm.
 Atom     1 has atomic number  6 and mass  12.00000

 Molecular mass:    16.03130 amu.
 Principal axes and moments of inertia in atomic units:
                           1         2         3
     Eigenvalues --    11.37213  11.37213  11.37213
           X            1.00000  -0.00000   0.00000
           Y            0.00000   1.00000   0.00000
           Z            0.00000   0.00000   1.00000
 This molecule is a spherical top.
 Rotational symmetry number 12.
 Rotational temperatures (Kelvin)      7.61632     7.61632     7.61632
 Rotational constants (GHZ):         158.69855   158.69855   158.69855
 Zero-point vibrational energy     116935.8 (Joules/Mol)
                                   27.94833 (Kcal/Mol)
 Vibrational temperatures:   1932.82  1932.82  1932.82  2245.69  2245.69
          (Kelvin)           4349.49  4496.31  4496.31  4496.31

 Zero-point correction=                           0.044538 (Hartree/Particle)
 Thermal correction to Energy=                    0.047407
 Thermal correction to Enthalpy=                  0.048351
 Thermal correction to Gibbs Free Energy=         0.027227
 Sum of electronic and zero-point Energies=            -40.492259
 Sum of electronic and thermal Energies=               -40.489391
 Sum of electronic and thermal Enthalpies=             -40.488446
 Sum of electronic and thermal Free Energies=          -40.509571

                     E (Thermal)             CV                S
                      KCal/Mol        Cal/Mol-Kelvin    Cal/Mol-Kelvin
 Total                   29.748              6.468             44.460
 Electronic               0.000              0.000              0.000
 Translational            0.889              2.981             34.261
 Rotational               0.889              2.981             10.112
 Vibrational             27.971              0.506              0.087

 Optimization completed.
    -- Stationary point found.
 Normal termination of Gaussian 09 at Mon Jun 20 13:15:17 2016.
