 Gaussian 09, Revision E.01,
 Gaussian 09:  EM64L-G09RevE.01 30-Nov-2015

 ---------------------------------------------
 #p b3lyp/6-311++G(3df,2p) freq symmetry=Loose
 ---------------------------------------------

 ---------
 b3lyp opt
 ---------
 Symbolic Z-matrix:
 Charge =  2 Multiplicity = 1

                         Standard orientation:
 ---------------------------------------------------------------------
 Center     Atomic      Atomic             Coordinates (Angstroms)
 Number     Number       Type             X           Y           Z
 ---------------------------------------------------------------------
      1          6           0       -0.101869    0.000100   -0.000087
      2          1           0       -0.696493   -0.976348   -0.000059
      3          1           0        0.998176   -0.582134    0.000424
      4          1           0        1.000568    0.577951   -0.000089
      5          1           0       -0.691037    0.979928    0.000246
 ---------------------------------------------------------------------

 SCF Done:  E(RB3LYP) =  -39.3352983535     A.U. after    8 cycles

 The electronic state is 1-A.
 Alpha  occ. eigenvalues --  -11.01952  -1.43249  -1.16934  -1.14276
 Alpha virt. eigenvalues --   -0.82821  -0.64629  -0.56927  -0.44536  -0.39418
 Alpha virt. eigenvalues --   -0.34251  -0.32560  -0.31821  -0.26779  -0.25986
 Alpha virt. eigenvalues --   -0.21779  -0.21103  -0.19125  -0.18525  -0.14766

 Mulliken charges:
               1
     1  C    0.413918
     2  H    0.392353
     3  H    0.400653
     4  H    0.400868
     5  H    0.392209
 Sum of Mulliken charges =   2.00000

 Dipole moment (field-independent basis, Debye):
    X=              1.4826    Y=             -0.0019    Z=              0.0004  Tot=              1.4826
 Quadrupole moment (field-independent basis, Debye-Ang):
   XX=              0.8879   YY=             -0.2658   ZZ=             -4.7485
   XY=              0.0001   XZ=              0.0005   YZ=             -0.0002

  Exact polarizability:  11.511  -0.001  10.786   0.000  -0.000   6.362
 Approx polarizability:  15.599  -0.002  14.265   0.001  -0.000   8.595

                      1                      2                      3
                      A                      A                      A
 Frequencies --    517.3707               875.7545              1139.1963
 Red. masses --      1.1535                 1.1272                 1.2850
 Frc consts  --      0.1819                 0.5094                 0.9825
 IR Inten    --    214.2528               228.2315               109.9636

                      4                      5                      6
                      A                      A                      A
 Frequencies --   1150.3124              1422.3281              1786.0875
 Red. masses --      1.0079                 1.0135                 1.0171
 Frc consts  --      0.7858                 1.2081                 1.9117
 IR Inten    --      0.0249                 2.5669               177.1096

                      7                      8                      9
                      A                      A                      A
 Frequencies --   2201.6824              2630.8056              2688.5507
 Red. masses --      1.0762                 1.0443                 1.1291
 Frc consts  --      3.0736                 4.2584                 4.8084
 IR Inten    --    349.8121               353.0920               701.9570

 - Thermochemistry -
 -------------------
 Temperature   298.150 Kelvin.  Pressure   1.00000 Atm.
 Atom     1 has atomic number  6 and mass  12.00000

 Molecular mass:    16.03130 amu.
 Principal axes and moments of inertia in atomic units:
                           1         2         3
     Eigenvalues --     9.30856  11.01630  20.32486
           X            1.00000   0.00008  -0.00010
           Y           -0.00008   1.00000  -0.00000
           Z            0.00010   0.00000   1.00000
 This molecule is an asymmetric top.
 Rotational symmetry number  1.
 Rotational temperatures (Kelvin)      9.30475     7.86233     4.26147
 Rotational constants (GHZ):         193.87974   163.82460    88.79477
 Zero-point vibrational energy      86203.4 (Joules/Mol)
                                   20.60311 (Kcal/Mol)
 Warning -- explicit consideration of   1 degrees of freedom as
           vibrations may cause significant error
 Vibrational temperatures:    744.38  1260.01  1639.05  1655.04  2046.41
          (Kelvin)           2569.78  3167.73  3785.14  3868.22

 Zero-point correction=                           0.032833 (Hartree/Particle)
 Thermal correction to Energy=                    0.035987
 Thermal correction to Enthalpy=                  0.036931
 Thermal correction to Gibbs Free Energy=         0.012912
 Sum of electronic and zero-point Energies=            -39.302465
 Sum of electronic and thermal Energies=               -39.299312
 Sum of electronic and thermal Enthalpies=             -39.298367
 Sum of electronic and thermal Free Energies=          -39.322386

                     E (Thermal)             CV                S
                      KCal/Mol        Cal/Mol-Kelvin    Cal/Mol-Kelvin
 Total                   22.582              8.327             50.552
 Electronic               0.000              0.000              0.000
 Translational            0.889              2.981             34.261
 Rotational               0.889              2.981             15.396
 Vibrational             20.805              2.365              0.894
 Vibration     1          0.872              1.212              0.616

 Optimization completed.
    -- Stationary point found.
 Normal termination of Gaussian 09 at Mon Jun 20 13:15:24 2016.
