 Gaussian 09, Revision E.01,
 Gaussian 09:  EM64L-G09RevE.01 30-Nov-2015

 ---------------------------------------------
 #p b3lyp/6-311++G(3df,2p) freq symmetry=Loose
 ---------------------------------------------

 ---------
 b3lyp opt
 ---------
 Symbolic Z-matrix:
 Charge =  1 Multiplicity = 4

                         Standard orientation:
 ---------------------------------------------------------------------
 Center     Atomic      Atomic             Coordinates (Angstroms)
 Number     Number       Type             X           Y           Z
 ---------------------------------------------------------------------
      1          6           0       -1.077026   -0.476361   -0.000000
      2          1           0       -0.741744   -1.528282   -0.000000
      3          1           0       -1.728659   -0.288156    0.872575
      4          1           0       -1.728659   -0.288156   -0.872575
      5          6           0       -0.000000    0.434671    0.000000
      6          6           0        1.401559    0.239790   -0.000000
      7          1           0        2.251865    0.915992    0.000000
 ---------------------------------------------------------------------

 SCF Done:  E(UB3LYP) =  -116.199384423     A.U. after   12 cycles

 The electronic state is 4-A".
 Alpha  occ. eigenvalues --  -10.54378 -10.54049 -10.43120  -1.10117  -0.98382
 Alpha  occ. eigenvalues --   -0.81319  -0.72898  -0.69217  -0.69099  -0.62040
 Alpha  occ. eigenvalues --   -0.57868  -0.47893
 Alpha virt. eigenvalues --   -0.32130  -0.16819  -0.13762  -0.11791  -0.11685
 Alpha virt. eigenvalues --   -0.11426  -0.09349  -0.09276  -0.07392  -0.06620
 Alpha virt. eigenvalues --   -0.05409  -0.03227  -0.02387  -0.01300  -0.01281

  Beta  occ. eigenvalues --  -10.52275 -10.51401 -10.43008  -1.05048  -0.94022
  Beta  occ. eigenvalues --   -0.77759  -0.69809  -0.66550  -0.65911
  Beta virt. eigenvalues --   -0.43999  -0.43367  -0.28803  -0.24011  -0.16014
  Beta virt. eigenvalues --   -0.13035  -0.11287  -0.11241  -0.10166  -0.08617
  Beta virt. eigenvalues --   -0.08408  -0.06762  -0.06026  -0.04478  -0.02081

 Mulliken charges and spin densities:
               1          2
     1  C   -0.275625   0.000832
     2  H    0.211618   0.091921
     3  H    0.242055   0.050593
     4  H    0.242055   0.050593
     5  C    0.324801   1.268047
     6  C   -0.012438   1.519228
     7  H    0.267534   0.018785
 Sum of Mulliken charges =   1.00000   3.00000

 Dipole moment (field-independent basis, Debye):
    X=              0.6050    Y=              0.2674    Z=             -0.0000  Tot=              0.6614
 Quadrupole moment (field-independent basis, Debye-Ang):
   XX=             -5.5376   YY=            -14.8061   ZZ=            -15.5485
   XY=              4.2321   XZ=              0.0000   YZ=              0.0000

  Exact polarizability:  47.296   7.075  28.035   0.000   0.000  22.764
 Approx polarizability:  63.949   8.755  38.562   0.000  -0.000  32.146

                      1                      2                      3
                     A"                     A'                     A"
 Frequencies --    126.0432               316.3848               603.4878
 Red. masses --      1.4931                 2.3587                 1.1140
 Frc consts  --      0.0140                 0.1391                 0.2390
 IR Inten    --      6.6911                 6.7784                 9.5494

                      4                      5                      6
                     A"                     A'                     A'
 Frequencies --    835.0923               854.3289               874.5140
 Red. masses --      1.4693                 1.3078                 1.8261
 Frc consts  --      0.6037                 0.5624                 0.8228
 IR Inten    --     10.7022                25.2509                35.5197

                      7                      8                      9
                     A'                     A'                     A"
 Frequencies --   1130.5606              1287.0855              1303.1562
 Red. masses --      2.5513                 1.1478                 1.0446
 Frc consts  --      1.9213                 1.1203                 1.0452
 IR Inten    --      9.5555               109.5194                20.4663

                     10                     11                     12
                     A'                     A'                     A'
 Frequencies --   1334.6474              1507.1447              2892.6445
 Red. masses --      1.1919                 7.0939                 1.0341
 Frc consts  --      1.2509                 9.4939                 5.0982
 IR Inten    --     29.8662                39.7133               158.5684

                     13                     14                     15
                     A"                     A'                     A'
 Frequencies --   2942.6608              2962.3819              3166.5011
 Red. masses --      1.0876                 1.0969                 1.0932
 Frc consts  --      5.5488                 5.6713                 6.4583
 IR Inten    --     49.9682                72.2918                65.4996

 - Thermochemistry -
 -------------------
 Temperature   298.150 Kelvin.  Pressure   1.00000 Atm.
 Atom     1 has atomic number  6 and mass  12.00000

 Molecular mass:    40.03130 amu.
 Principal axes and moments of inertia in atomic units:
                           1         2         3
     Eigenvalues --    21.19067 197.24846 207.47818
           X            0.95207  -0.30589   0.00000
           Y            0.30589   0.95207   0.00000
           Z            0.00000  -0.00000   1.00000
 This molecule is an asymmetric top.
 Rotational symmetry number  1.
 Rotational temperatures (Kelvin)      4.08736     0.43911     0.41746
 Rotational constants (GHZ):          85.16677     9.14958     8.69846
 Zero-point vibrational energy     132406.5 (Joules/Mol)
                                   31.64591 (Kcal/Mol)
 Warning -- explicit consideration of   3 degrees of freedom as
           vibrations may cause significant error
 Vibrational temperatures:    181.35   455.21   868.28  1201.51  1229.19
          (Kelvin)           1258.23  1626.62  1851.83  1874.95  1920.26
                             2168.44  4161.87  4233.83  4262.20  4555.88

 Zero-point correction=                           0.050431 (Hartree/Particle)
 Thermal correction to Energy=                    0.054759
 Thermal correction to Enthalpy=                  0.055704
 Thermal correction to Gibbs Free Energy=         0.024079
 Sum of electronic and zero-point Energies=           -116.148953
 Sum of electronic and thermal Energies=              -116.144625
 Sum of electronic and thermal Enthalpies=            -116.143681
 Sum of electronic and thermal Free Energies=         -116.175305

                     E (Thermal)             CV                S
                      KCal/Mol        Cal/Mol-Kelvin    Cal/Mol-Kelvin
 Total                   34.362             13.013             66.559
 Electronic               0.000              0.000              2.755
 Translational            0.889              2.981             36.989
 Rotational               0.889              2.981             21.388
 Vibrational             32.585              7.051              5.426
 Vibration     1          0.611              1.927              3.006
 Vibration     2          0.703              1.642              1.329
 Vibration     3          0.962              1.024              0.444

 Optimization completed.
    -- Stationary point found.
 Normal termination of Gaussian 09 at Tue Jul 19 21:07:45 2016.
