 Gaussian 09, Revision E.01,
 Gaussian 09:  EM64L-G09RevE.01 30-Nov-2015

 ---------------------------------------------
 #p b3lyp/6-311++G(3df,2p) freq symmetry=Loose
 ---------------------------------------------

 ---------
 b3lyp opt
 ---------
 Symbolic Z-matrix:
 Charge =  2 Multiplicity = 3

                         Standard orientation:
 ---------------------------------------------------------------------
 Center     Atomic      Atomic             Coordinates (Angstroms)
 Number     Number       Type             X           Y           Z
 ---------------------------------------------------------------------
      1          6           0       -1.066204   -0.177137   -0.000251
      2          1           0       -1.241616   -1.253299   -0.001400
      3          1           0       -1.685913    0.407135    0.780697
      4          1           0       -1.686579    0.410493   -0.777737
      5          6           0        0.267307    0.305647   -0.000163
      6          6           0        1.476001   -0.291294    0.000159
      7          1           0        0.551491    1.412381   -0.000027
 ---------------------------------------------------------------------

 SCF Done:  E(UB3LYP) =  -115.571408810     A.U. after   15 cycles

 The electronic state is 3-A.
 Alpha  occ. eigenvalues --  -10.95240 -10.82080 -10.72563  -1.41332  -1.26793
 Alpha  occ. eigenvalues --   -1.07459  -1.02178  -0.97479  -0.94828  -0.91394
 Alpha  occ. eigenvalues --   -0.86659
 Alpha virt. eigenvalues --   -0.70384  -0.58128  -0.38926  -0.34949  -0.34923
 Alpha virt. eigenvalues --   -0.30786  -0.30285  -0.27751  -0.27028  -0.25943
 Alpha virt. eigenvalues --   -0.23953  -0.23168  -0.20098  -0.19062  -0.18604

  Beta  occ. eigenvalues --  -10.92128 -10.81871 -10.72204  -1.38067  -1.23683
  Beta  occ. eigenvalues --   -1.05069  -0.99873  -0.91321  -0.90002
  Beta virt. eigenvalues --   -0.75386  -0.73682  -0.65805  -0.52145  -0.38521
  Beta virt. eigenvalues --   -0.34577  -0.33381  -0.29870  -0.29536  -0.27227
  Beta virt. eigenvalues --   -0.26699  -0.25531  -0.23080  -0.22517  -0.19196

 Mulliken charges and spin densities:
               1          2
     1  C   -0.119894   0.215625
     2  H    0.286803  -0.003395
     3  H    0.332086   0.122995
     4  H    0.331783   0.122541
     5  C    0.433064   0.022528
     6  C    0.442033   1.522889
     7  H    0.294126  -0.003183
 Sum of Mulliken charges =   2.00000   2.00000

 Dipole moment (field-independent basis, Debye):
    X=              0.7757    Y=              0.9125    Z=              0.0036  Tot=              1.1977
 Quadrupole moment (field-independent basis, Debye-Ang):
   XX=              4.8741   YY=             -8.5577   ZZ=            -13.7253
   XY=             -1.0015   XZ=             -0.0053   YZ=             -0.0001

  Exact polarizability:  50.649  -1.821  23.762  -0.009  -0.000  18.805
 Approx polarizability:  99.631  -9.902  37.774  -0.018  -0.005  26.999

                      1                      2                      3
                      A                      A                      A
 Frequencies --    256.7985               273.2470               640.1345
 Red. masses --      1.3031                 4.4874                 1.0932
 Frc consts  --      0.0506                 0.1974                 0.2639
 IR Inten    --     46.3074                13.4946                22.8381

                      4                      5                      6
                      A                      A                      A
 Frequencies --    708.7918               793.2650               829.8506
 Red. masses --      1.2861                 1.9592                 1.1029
 Frc consts  --      0.3807                 0.7264                 0.4475
 IR Inten    --    569.2528                 1.0284                 5.8356

                      7                      8                      9
                      A                      A                      A
 Frequencies --    990.8574              1024.3309              1106.4420
 Red. masses --      2.0760                 1.0816                 1.6197
 Frc consts  --      1.2009                 0.6686                 1.1682
 IR Inten    --     39.0384                63.8028                11.0245

                     10                     11                     12
                      A                      A                      A
 Frequencies --   1285.6307              1379.1956              2365.5956
 Red. masses --      6.6907                 1.1490                 1.0528
 Frc consts  --      6.5156                 1.2877                 3.4712
 IR Inten    --      8.3009                34.7030               241.8531

                     13                     14                     15
                      A                      A                      A
 Frequencies --   2561.6564              2649.4270              3109.4681
 Red. masses --      1.0697                 1.0771                 1.0929
 Frc consts  --      4.1357                 4.4545                 6.2260
 IR Inten    --    780.4963               455.8533               100.2117

 - Thermochemistry -
 -------------------
 Temperature   298.150 Kelvin.  Pressure   1.00000 Atm.
 Atom     1 has atomic number  6 and mass  12.00000

 Molecular mass:    40.03130 amu.
 Principal axes and moments of inertia in atomic units:
                           1         2         3
     Eigenvalues --    27.24391 175.22826 193.73115
           X            0.99979   0.02055  -0.00006
           Y           -0.02055   0.99979   0.00006
           Z            0.00006  -0.00006   1.00000
 This molecule is an asymmetric top.
 Rotational symmetry number  1.
 Rotational temperatures (Kelvin)      3.17920     0.49429     0.44708
 Rotational constants (GHZ):          66.24383    10.29937     9.31570
 Zero-point vibrational energy     119475.2 (Joules/Mol)
                                   28.55525 (Kcal/Mol)
 Warning -- explicit consideration of   2 degrees of freedom as
           vibrations may cause significant error
 Vibrational temperatures:    369.48   393.14   921.01  1019.79  1141.33
          (Kelvin)           1193.97  1425.62  1473.78  1591.92  1849.73
                             1984.35  3403.56  3685.65  3811.93  4473.83

 Zero-point correction=                           0.045506 (Hartree/Particle)
 Thermal correction to Energy=                    0.049785
 Thermal correction to Enthalpy=                  0.050729
 Thermal correction to Gibbs Free Energy=         0.019725
 Sum of electronic and zero-point Energies=           -115.525903
 Sum of electronic and thermal Energies=              -115.521624
 Sum of electronic and thermal Enthalpies=            -115.520680
 Sum of electronic and thermal Free Energies=         -115.551684

                     E (Thermal)             CV                S
                      KCal/Mol        Cal/Mol-Kelvin    Cal/Mol-Kelvin
 Total                   31.241             13.748             65.254
 Electronic               0.000              0.000              2.183
 Translational            0.889              2.981             36.989
 Rotational               0.889              2.981             21.452
 Vibrational             29.463              7.786              4.629
 Vibration     1          0.666              1.751              1.683
 Vibration     2          0.676              1.723              1.576

 Normal termination of Gaussian 09 at Sun Jun 19 15:19:39 2016.
