 Gaussian 09, Revision E.01,
 Gaussian 09:  EM64L-G09RevE.01 30-Nov-2015

 ---------------------------------------------
 #p b3lyp/6-311++G(3df,2p) freq symmetry=Loose
 ---------------------------------------------

 ---------
 b3lyp opt
 ---------
 Symbolic Z-matrix:
 Charge =  1 Multiplicity = 2

                         Standard orientation:
 ---------------------------------------------------------------------
 Center     Atomic      Atomic             Coordinates (Angstroms)
 Number     Number       Type             X           Y           Z
 ---------------------------------------------------------------------
      1          6           0        1.141389   -0.205231    0.000050
      2          1           0        1.195374   -1.288370   -0.000457
      3          1           0        2.074112    0.348596    0.001260
      4          6           0       -0.077210    0.443494   -0.000417
      5          1           0       -2.283733   -0.183821    0.001083
      6          1           0       -0.135955    1.532202    0.000239
      7          6           0       -1.205812   -0.306365    0.000013
 ---------------------------------------------------------------------

 SCF Done:  E(UB3LYP) =  -116.315229727     A.U. after   14 cycles

 The electronic state is 2-A.
 Alpha  occ. eigenvalues --  -10.52093 -10.49838 -10.45648  -1.09034  -0.95243
 Alpha  occ. eigenvalues --   -0.82039  -0.76582  -0.70679  -0.65761  -0.59352
 Alpha  occ. eigenvalues --   -0.52471
 Alpha virt. eigenvalues --   -0.39724  -0.22391  -0.16002  -0.14223  -0.13084
 Alpha virt. eigenvalues --   -0.11592  -0.10055  -0.08695  -0.07892  -0.05450
 Alpha virt. eigenvalues --   -0.05383  -0.04996  -0.03782  -0.03063  -0.00754

  Beta  occ. eigenvalues --  -10.50371 -10.49858 -10.45696  -1.07958  -0.93456
  Beta  occ. eigenvalues --   -0.80543  -0.75616  -0.69698  -0.65099  -0.58915
  Beta virt. eigenvalues --   -0.38565  -0.34996  -0.21795  -0.15685  -0.13976
  Beta virt. eigenvalues --   -0.12811  -0.11330  -0.09994  -0.08611  -0.07399
  Beta virt. eigenvalues --   -0.05302  -0.05200  -0.04544  -0.03706  -0.02662

 Mulliken charges and spin densities:
               1          2
     1  C   -0.160456  -0.042627
     2  H    0.241226  -0.001042
     3  H    0.220793   0.007066
     4  C    0.257417  -0.103465
     5  H    0.284514   0.017926
     6  H    0.211595   0.055699
     7  C   -0.055089   1.066442
 Sum of Mulliken charges =   1.00000   1.00000

 Dipole moment (field-independent basis, Debye):
    X=             -0.0544    Y=              0.0402    Z=              0.0017  Tot=              0.0677
 Quadrupole moment (field-independent basis, Debye-Ang):
   XX=             -4.1504   YY=            -13.7315   ZZ=            -17.1689
   XY=             -0.2847   XZ=             -0.0010   YZ=              0.0007

  Exact polarizability:  47.336   0.613  27.404  -0.001  -0.002  20.004
 Approx polarizability:  82.134   2.726  38.129   0.000  -0.002  28.389

                      1                      2                      3
                      A                      A                      A
 Frequencies --    311.9950               410.8387               774.7684
 Red. masses --      1.2081                 2.1964                 1.1743
 Frc consts  --      0.0693                 0.2184                 0.4153
 IR Inten    --     26.7626                 7.3838                26.9519

                      4                      5                      6
                      A                      A                      A
 Frequencies --    806.5809               976.3111              1018.1405
 Red. masses --      1.2449                 1.2956                 1.4231
 Frc consts  --      0.4772                 0.7276                 0.8691
 IR Inten    --     24.5302                15.6482                 2.2291

                      7                      8                      9
                      A                      A                      A
 Frequencies --   1160.3475              1276.3046              1284.6052
 Red. masses --      1.3723                 1.3096                 2.4877
 Frc consts  --      1.0886                 1.2569                 2.4187
 IR Inten    --      6.0607                 3.1447                27.6553

                     10                     11                     12
                      A                      A                      A
 Frequencies --   1492.9098              1576.0987              3091.4751
 Red. masses --      1.6865                 2.7936                 1.0867
 Frc consts  --      2.2146                 4.0886                 6.1191
 IR Inten    --    129.5720               182.2378                22.0649

                     13                     14                     15
                      A                      A                      A
 Frequencies --   3133.1856              3202.3138              3239.5380
 Red. masses --      1.0599                 1.1030                 1.1219
 Frc consts  --      6.1305                 6.6641                 6.9371
 IR Inten    --      7.6845                44.9551                20.7982

 - Thermochemistry -
 -------------------
 Temperature   298.150 Kelvin.  Pressure   1.00000 Atm.
 Atom     1 has atomic number  6 and mass  12.00000

 Molecular mass:    40.03130 amu.
 Principal axes and moments of inertia in atomic units:
                           1         2         3
     Eigenvalues --    29.18837 157.82364 187.01198
           X            0.99986  -0.01644  -0.00001
           Y            0.01644   0.99986   0.00015
           Z            0.00001  -0.00015   1.00000
 This molecule is an asymmetric top.
 Rotational symmetry number  1.
 Rotational temperatures (Kelvin)      2.96741     0.54880     0.46315
 Rotational constants (GHZ):          61.83083    11.43518     9.65040
 Zero-point vibrational energy     142088.9 (Joules/Mol)
                                   33.96007 (Kcal/Mol)
 Warning -- explicit consideration of   2 degrees of freedom as
           vibrations may cause significant error
 Vibrational temperatures:    448.89   591.10  1114.72  1160.49  1404.69
          (Kelvin)           1464.88  1669.48  1836.32  1848.26  2147.96
                             2267.65  4447.94  4507.95  4607.41  4660.97

 Zero-point correction=                           0.054119 (Hartree/Particle)
 Thermal correction to Energy=                    0.057945
 Thermal correction to Enthalpy=                  0.058890
 Thermal correction to Gibbs Free Energy=         0.029064
 Sum of electronic and zero-point Energies=           -116.261111
 Sum of electronic and thermal Energies=              -116.257284
 Sum of electronic and thermal Enthalpies=            -116.256340
 Sum of electronic and thermal Free Energies=         -116.286166

                     E (Thermal)             CV                S
                      KCal/Mol        Cal/Mol-Kelvin    Cal/Mol-Kelvin
 Total                   36.361             11.837             62.773
 Electronic               0.000              0.000              1.377
 Translational            0.889              2.981             36.989
 Rotational               0.889              2.981             21.382
 Vibrational             34.584              5.875              3.025
 Vibration     1          0.700              1.651              1.352
 Vibration     2          0.775              1.447              0.924

 Normal termination of Gaussian 09 at Tue Jun 21 20:38:58 2016.
