 Gaussian 09, Revision E.01,
 Gaussian 09:  EM64L-G09RevE.01 30-Nov-2015

 ---------------------------------------------
 #p b3lyp/6-311++G(3df,2p) freq symmetry=Loose
 ---------------------------------------------

 ---------
 b3lyp opt
 ---------
 Symbolic Z-matrix:
 Charge =  3 Multiplicity = 4

                         Standard orientation:
 ---------------------------------------------------------------------
 Center     Atomic      Atomic             Coordinates (Angstroms)
 Number     Number       Type             X           Y           Z
 ---------------------------------------------------------------------
      1          6           0       -1.374769   -0.000039   -0.000070
      2          1           0       -2.349505   -0.000119    0.831010
      3          1           0       -2.349668    0.000111   -0.830396
      4          6           0        0.052967    0.000074   -0.000106
      5          6           0        1.422199   -0.000043    0.000039
      6          1           0        2.048451   -0.968111    0.000006
      7          1           0        2.048343    0.968167    0.000204
 ---------------------------------------------------------------------

 SCF Done:  E(UB3LYP) =  -114.681642197     A.U. after   14 cycles

 The electronic state is 4-A.
 Alpha  occ. eigenvalues --  -11.15102 -11.14906 -11.05376  -1.65110  -1.54615
 Alpha  occ. eigenvalues --   -1.37890  -1.26621  -1.24010  -1.21468  -1.11579
 Alpha  occ. eigenvalues --   -1.10818
 Alpha virt. eigenvalues --   -0.86744  -0.83710  -0.73256  -0.64822  -0.58954
 Alpha virt. eigenvalues --   -0.54079  -0.50628  -0.48870  -0.44981  -0.44748
 Alpha virt. eigenvalues --   -0.44168  -0.43372  -0.42119  -0.39040  -0.37294

  Beta  occ. eigenvalues --  -11.13380 -11.12976 -11.04812  -1.58510  -1.49453
  Beta  occ. eigenvalues --   -1.32625  -1.24728  -1.18048
  Beta virt. eigenvalues --   -1.06109  -0.98052  -0.95253  -0.79243  -0.76332
  Beta virt. eigenvalues --   -0.66896  -0.56414  -0.56398  -0.52503  -0.49347
  Beta virt. eigenvalues --   -0.47819  -0.43662  -0.43434  -0.42937  -0.41907

 Mulliken charges and spin densities:
               1          2
     1  C    0.147579   1.265353
     2  H    0.472088   0.185309
     3  H    0.471976   0.185017
     4  C    0.979889   0.949855
     5  C    0.134433   0.345206
     6  H    0.397030   0.034617
     7  H    0.397004   0.034643
 Sum of Mulliken charges =   3.00000   3.00000

 Dipole moment (field-independent basis, Debye):
    X=             -3.8874    Y=              0.0002    Z=              0.0019  Tot=              3.8874
 Quadrupole moment (field-independent basis, Debye-Ang):
   XX=             34.8462   YY=            -10.2038   ZZ=             -9.4126
   XY=              0.0001   XZ=             -0.0038   YZ=             -0.0002

  Exact polarizability:  55.387   0.001  17.184  -0.002  -0.000  17.928
 Approx polarizability:  84.404   0.002  23.637  -0.001  -0.000  24.889

                      1                      2                      3
                      A                      A                      A
 Frequencies --    269.4538               325.3251               518.7871
 Red. masses --      2.7816                 2.0928                 1.4291
 Frc consts  --      0.1190                 0.1305                 0.2266
 IR Inten    --     55.3780                70.3327               156.7157

                      4                      5                      6
                      A                      A                      A
 Frequencies --    534.8199               558.6585               757.5481
 Red. masses --      1.6588                 1.0078                 1.6561
 Frc consts  --      0.2795                 0.1853                 0.5600
 IR Inten    --    321.1776                 0.0001                15.9548

                      7                      8                      9
                      A                      A                      A
 Frequencies --    854.2244               906.2134               951.0323
 Red. masses --      5.1174                 1.2964                 1.0483
 Frc consts  --      2.2001                 0.6273                 0.5586
 IR Inten    --     86.1701               187.1022               745.0393

                     10                     11                     12
                      A                      A                      A
 Frequencies --   1054.5389              1111.2832              1589.8827
 Red. masses --      1.0436                 1.0616                 6.3525
 Frc consts  --      0.6838                 0.7724                 9.4608
 IR Inten    --      4.0445               331.5494                45.3756

                     13                     14                     15
                      A                      A                      A
 Frequencies --   1993.2185              2472.7137              2506.9377
 Red. masses --      1.2061                 1.0395                 1.1090
 Frc consts  --      2.8233                 3.7449                 4.1065
 IR Inten    --   1469.2307              1146.4039               630.2030

 - Thermochemistry -
 -------------------
 Temperature   298.150 Kelvin.  Pressure   1.00000 Atm.
 Atom     1 has atomic number  6 and mass  12.00000

 Molecular mass:    40.03130 amu.
 Principal axes and moments of inertia in atomic units:
                           1         2         3
     Eigenvalues --    11.71377 242.66228 244.44182
           X            1.00000   0.00000  -0.00001
           Y           -0.00000   1.00000   0.00000
           Z            0.00001  -0.00000   1.00000
 This molecule is an asymmetric top.
 Rotational symmetry number  1.
 Rotational temperatures (Kelvin)      7.39419     0.35693     0.35433
 Rotational constants (GHZ):         154.07004     7.43725     7.38311
 Zero-point vibrational energy      98121.5 (Joules/Mol)
                                   23.45161 (Kcal/Mol)
 Warning -- explicit consideration of   5 degrees of freedom as
           vibrations may cause significant error
 Vibrational temperatures:    387.68   468.07   746.42   769.49   803.78
          (Kelvin)           1089.94  1229.04  1303.84  1368.32  1517.24
                             1598.89  2287.48  2867.79  3557.68  3606.92

 Zero-point correction=                           0.037373 (Hartree/Particle)
 Thermal correction to Energy=                    0.041959
 Thermal correction to Enthalpy=                  0.042904
 Thermal correction to Gibbs Free Energy=         0.011394
 Sum of electronic and zero-point Energies=           -114.644270
 Sum of electronic and thermal Energies=              -114.639683
 Sum of electronic and thermal Enthalpies=            -114.638739
 Sum of electronic and thermal Free Energies=         -114.670248

                     E (Thermal)             CV                S
                      KCal/Mol        Cal/Mol-Kelvin    Cal/Mol-Kelvin
 Total                   26.330             15.694             66.318
 Electronic               0.000              0.000              2.755
 Translational            0.889              2.981             36.989
 Rotational               0.889              2.981             21.168
 Vibrational             24.552              9.733              5.405
 Vibration     1          0.674              1.729              1.600
 Vibration     2          0.709              1.625              1.283
 Vibration     3          0.874              1.208              0.613
 Vibration     4          0.890              1.173              0.577
 Vibration     5          0.914              1.121              0.527

 Optimization completed.
    -- Stationary point found.
 Normal termination of Gaussian 09 at Tue Jun 21 20:56:42 2016.
