 Gaussian 09, Revision E.01,
 Gaussian 09:  EM64L-G09RevE.01 30-Nov-2015

 ---------------------------------------------
 #p b3lyp/6-311++G(3df,2p) freq symmetry=Loose
 ---------------------------------------------

 ---------
 b3lyp opt
 ---------
 Symbolic Z-matrix:
 Charge =  0 Multiplicity = 1

                         Standard orientation:
 ---------------------------------------------------------------------
 Center     Atomic      Atomic             Coordinates (Angstroms)
 Number     Number       Type             X           Y           Z
 ---------------------------------------------------------------------
      1          6           0        1.097991   -0.199873    0.022153
      2          1           0        1.113046   -1.272663   -0.111336
      3          1           0        2.005308    0.288582    0.359259
      4          6           0       -0.078222    0.470550   -0.108283
      5          1           0       -1.995725    0.098752    0.538929
      6          1           0       -0.102994    1.558499   -0.035907
      7          6           0       -1.189708   -0.382872   -0.039028
 ---------------------------------------------------------------------

 SCF Done:  E(RB3LYP) =  -116.604237563     A.U. after   12 cycles

 The electronic state is 1-A.
 Alpha  occ. eigenvalues --  -10.21732 -10.19953 -10.19809  -0.82337  -0.67559
 Alpha  occ. eigenvalues --   -0.55673  -0.50048  -0.42624  -0.38595  -0.32932
 Alpha  occ. eigenvalues --   -0.22135
 Alpha virt. eigenvalues --   -0.11277  -0.00884   0.00109   0.01220   0.02216
 Alpha virt. eigenvalues --    0.04035   0.06509   0.07963   0.09108   0.09353
 Alpha virt. eigenvalues --    0.10186   0.10963   0.11783   0.12560   0.13737

 Mulliken charges:
               1
     1  C   -0.292544
     2  H    0.199445
     3  H    0.143326
     4  C    0.170323
     5  H    0.153619
     6  H    0.134450
     7  C   -0.508619
 Sum of Mulliken charges =  -0.00000

 Dipole moment (field-independent basis, Debye):
    X=              1.6800    Y=              1.7935    Z=              0.7246  Tot=              2.5621
 Quadrupole moment (field-independent basis, Debye-Ang):
   XX=            -18.1754   YY=            -20.4949   ZZ=            -20.5984
   XY=             -2.9561   XZ=             -0.5728   YZ=             -0.5886

  Exact polarizability:  59.599   1.921  39.521  -0.797   0.706  30.087
 Approx polarizability: 100.130   1.975  53.956  -1.701  -0.524  42.784

                      1                      2                      3
                      A                      A                      A
 Frequencies --    213.8535               564.0718               759.7185
 Red. masses --      2.0132                 1.4315                 1.1625
 Frc consts  --      0.0542                 0.2684                 0.3953
 IR Inten    --     11.0330                39.8172                92.6934

                      4                      5                      6
                      A                      A                      A
 Frequencies --    920.8832               963.7083              1006.5727
 Red. masses --      1.2961                 1.2033                 1.3008
 Frc consts  --      0.6476                 0.6584                 0.7765
 IR Inten    --     58.5038                11.2796                33.8422

                      7                      8                      9
                      A                      A                      A
 Frequencies --   1083.9613              1167.8348              1316.1422
 Red. masses --      1.5544                 1.8125                 1.6829
 Frc consts  --      1.0760                 1.4564                 1.7176
 IR Inten    --     17.6600                 4.8860                 3.0026

                     10                     11                     12
                      A                      A                      A
 Frequencies --   1433.2804              1575.4985              2968.6308
 Red. masses --      1.4573                 2.6033                 1.0817
 Frc consts  --      1.7638                 3.8073                 5.6167
 IR Inten    --     26.0286                10.3745                51.3872

                     13                     14                     15
                      A                      A                      A
 Frequencies --   3063.1016              3127.3874              3231.7996
 Red. masses --      1.0887                 1.0598                 1.1152
 Frc consts  --      6.0185                 6.1069                 6.8625
 IR Inten    --     35.9877                 5.4133                 1.5884

 - Thermochemistry -
 -------------------
 Temperature   298.150 Kelvin.  Pressure   1.00000 Atm.
 Atom     1 has atomic number  6 and mass  12.00000

 Molecular mass:    40.03130 amu.
 Principal axes and moments of inertia in atomic units:
                           1         2         3
     Eigenvalues --    34.27549 148.01262 178.18779
           X            0.99927  -0.03627  -0.01216
           Y            0.03664   0.99883   0.03150
           Z            0.01100  -0.03192   0.99943
 This molecule is an asymmetric top.
 Rotational symmetry number  1.
 Rotational temperatures (Kelvin)      2.52699     0.58518     0.48608
 Rotational constants (GHZ):          52.65399    12.19316    10.12831
 Zero-point vibrational energy     139941.8 (Joules/Mol)
                                   33.44690 (Kcal/Mol)
 Warning -- explicit consideration of   2 degrees of freedom as
           vibrations may cause significant error
 Vibrational temperatures:    307.69   811.57  1093.06  1324.94  1386.56
          (Kelvin)           1448.23  1559.58  1680.25  1893.63  2062.17
                             2266.79  4271.19  4407.11  4499.61  4649.83

 Zero-point correction=                           0.053301 (Hartree/Particle)
 Thermal correction to Energy=                    0.057139
 Thermal correction to Enthalpy=                  0.058083
 Thermal correction to Gibbs Free Energy=         0.028777
 Sum of electronic and zero-point Energies=           -116.550937
 Sum of electronic and thermal Energies=              -116.547099
 Sum of electronic and thermal Enthalpies=            -116.546154
 Sum of electronic and thermal Free Energies=         -116.575460

                     E (Thermal)             CV                S
                      KCal/Mol        Cal/Mol-Kelvin    Cal/Mol-Kelvin
 Total                   35.855             11.684             61.679
 Electronic               0.000              0.000              0.000
 Translational            0.889              2.981             36.989
 Rotational               0.889              2.981             21.430
 Vibrational             34.078              5.723              3.260
 Vibration     1          0.644              1.820              2.011
 Vibration     2          0.920              1.109              0.516

 Normal termination of Gaussian 09 at Sun Jun 19 15:11:26 2016.
