 Gaussian 09, Revision E.01,
 Gaussian 09:  EM64L-G09RevE.01 30-Nov-2015

 ---------------------------------------------
 #p b3lyp/6-311++G(3df,2p) freq symmetry=Loose
 ---------------------------------------------

 ---------
 b3lyp opt
 ---------
 Symbolic Z-matrix:
 Charge =  3 Multiplicity = 2

                         Standard orientation:
 ---------------------------------------------------------------------
 Center     Atomic      Atomic             Coordinates (Angstroms)
 Number     Number       Type             X           Y           Z
 ---------------------------------------------------------------------
      1          6           0       -1.259648   -0.163571   -0.000130
      2          1           0       -1.511598   -1.258388   -0.000135
      3          1           0       -2.021826    0.667845   -0.000227
      4          6           0        0.250330    0.316625    0.000020
      5          1           0        0.543961    1.030410   -0.947712
      6          1           0        0.543760    1.030448    0.947786
      7          6           0        1.416935   -0.398106    0.000158
 ---------------------------------------------------------------------

 SCF Done:  E(UB3LYP) =  -114.669718781     A.U. after   17 cycles

 The electronic state is 2-A.
 Alpha  occ. eigenvalues --  -11.29737 -11.11888 -11.08931  -1.69381  -1.50443
 Alpha  occ. eigenvalues --   -1.34466  -1.26694  -1.26442  -1.24105  -1.19377
 Alpha virt. eigenvalues --   -0.98652  -0.97467  -0.90407  -0.65109  -0.62271
 Alpha virt. eigenvalues --   -0.62131  -0.56520  -0.52510  -0.50042  -0.48118
 Alpha virt. eigenvalues --   -0.46520  -0.43406  -0.40934  -0.40638  -0.40259

  Beta  occ. eigenvalues --  -11.27565 -11.11876 -11.08648  -1.67229  -1.49546
  Beta  occ. eigenvalues --   -1.32105  -1.26373  -1.24545  -1.20053
  Beta virt. eigenvalues --   -1.03803  -0.95266  -0.94733  -0.89829  -0.64881
  Beta virt. eigenvalues --   -0.62086  -0.61024  -0.56229  -0.51870  -0.49885
  Beta virt. eigenvalues --   -0.47880  -0.46380  -0.41891  -0.40601  -0.39690

 Mulliken charges and spin densities:
               1          2
     1  C    0.341911   0.002147
     2  H    0.368644  -0.000853
     3  H    0.374720   0.015467
     4  C    0.198761   0.095215
     5  H    0.428114  -0.014162
     6  H    0.428114  -0.014162
     7  C    0.859737   0.916348
 Sum of Mulliken charges =   3.00000   1.00000

 Dipole moment (field-independent basis, Debye):
    X=              0.8757    Y=              0.5743    Z=              0.0001  Tot=              1.0472
 Quadrupole moment (field-independent basis, Debye-Ang):
   XX=             13.2949   YY=             -4.4666   ZZ=             -8.8608
   XY=              0.2083   XZ=              0.0023   YZ=             -0.0001

  Exact polarizability:  36.726  -2.567  22.704   0.002  -0.000  18.171
 Approx polarizability:  65.800 -13.370  39.887   0.004  -0.002  28.149

                      1                      2                      3
                      A                      A                      A
 Frequencies --     86.6390               332.5725               469.2874
 Red. masses --      1.1279                 4.4371                 1.7632
 Frc consts  --      0.0050                 0.2892                 0.2288
 IR Inten    --      0.4013                 6.5653                86.6790

                      4                      5                      6
                      A                      A                      A
 Frequencies --    675.8285               791.4279               807.6329
 Red. masses --      4.4645                 1.0230                 1.2869
 Frc consts  --      1.2014                 0.3775                 0.4946
 IR Inten    --     41.5782                 0.0072                24.1601

                      7                      8                      9
                      A                      A                      A
 Frequencies --    909.8037               971.5609              1125.4357
 Red. masses --      1.2092                 1.2929                 2.3759
 Frc consts  --      0.5897                 0.7190                 1.7730
 IR Inten    --    121.1471                23.7426                70.8909

                     10                     11                     12
                      A                      A                      A
 Frequencies --   1190.9889              1353.6375              1960.2439
 Red. masses --      1.3353                 1.2526                 1.0797
 Frc consts  --      1.1159                 1.3523                 2.4444
 IR Inten    --     14.7999                63.8218               737.2550

                     13                     14                     15
                      A                      A                      A
 Frequencies --   2059.4857              2717.5731              2873.4596
 Red. masses --      1.0575                 1.0436                 1.1347
 Frc consts  --      2.6426                 4.5408                 5.5199
 IR Inten    --    668.1982               535.9944               337.4995

 - Thermochemistry -
 -------------------
 Temperature   298.150 Kelvin.  Pressure   1.00000 Atm.
 Atom     1 has atomic number  6 and mass  12.00000

 Molecular mass:    40.03130 amu.
 Principal axes and moments of inertia in atomic units:
                           1         2         3
     Eigenvalues --    33.25321 187.92466 208.24694
           X            0.99934   0.03630  -0.00011
           Y           -0.03630   0.99934   0.00002
           Z            0.00011  -0.00002   1.00000
 This molecule is an asymmetric top.
 Rotational symmetry number  1.
 Rotational temperatures (Kelvin)      2.60468     0.46090     0.41592
 Rotational constants (GHZ):          54.27270     9.60354     8.66635
 Zero-point vibrational energy     109611.3 (Joules/Mol)
                                   26.19773 (Kcal/Mol)
 Warning -- explicit consideration of   3 degrees of freedom as
           vibrations may cause significant error
 Vibrational temperatures:    124.65   478.50   675.20   972.37  1138.69
          (Kelvin)           1162.00  1309.00  1397.86  1619.25  1713.57
                             1947.58  2820.35  2963.14  3909.98  4134.26

 Zero-point correction=                           0.041749 (Hartree/Particle)
 Thermal correction to Energy=                    0.046394
 Thermal correction to Enthalpy=                  0.047338
 Thermal correction to Gibbs Free Energy=         0.015507
 Sum of electronic and zero-point Energies=           -114.627970
 Sum of electronic and thermal Energies=              -114.623325
 Sum of electronic and thermal Enthalpies=            -114.622381
 Sum of electronic and thermal Free Energies=         -114.654212

                     E (Thermal)             CV                S
                      KCal/Mol        Cal/Mol-Kelvin    Cal/Mol-Kelvin
 Total                   29.113             14.542             66.994
 Electronic               0.000              0.000              1.377
 Translational            0.889              2.981             36.989
 Rotational               0.889              2.981             21.792
 Vibrational             27.335              8.581              6.836
 Vibration     1          0.601              1.959              3.735
 Vibration     2          0.715              1.610              1.248
 Vibration     3          0.826              1.318              0.740

 Optimization completed.
    -- Stationary point found.
 Normal termination of Gaussian 09 at Tue Jul 19 20:11:36 2016.
