 Gaussian 09, Revision E.01,
 Gaussian 09:  EM64L-G09RevE.01 30-Nov-2015

 ---------------------------------------------
 #p b3lyp/6-311++G(3df,2p) freq symmetry=Loose
 ---------------------------------------------

 ---------
 b3lyp opt
 ---------
 Symbolic Z-matrix:
 Charge =  1 Multiplicity = 2

                         Standard orientation:
 ---------------------------------------------------------------------
 Center     Atomic      Atomic             Coordinates (Angstroms)
 Number     Number       Type             X           Y           Z
 ---------------------------------------------------------------------
      1          6           0        0.000000    1.310461    0.000000
      2          1           0       -0.388742    1.873471    0.849149
      3          1           0        0.388742    1.873471   -0.849149
      4          6           0        0.000000    0.000000    0.000000
      5          6           0       -0.000000   -1.310461    0.000000
      6          1           0       -0.388742   -1.873471   -0.849149
      7          1           0        0.388742   -1.873471    0.849149
 ---------------------------------------------------------------------

 SCF Done:  E(UB3LYP) =  -116.353991962     A.U. after   12 cycles

 The electronic state is 2-A.
 Alpha  occ. eigenvalues --  -10.50893 -10.47702 -10.47692  -1.09330  -1.00045
 Alpha  occ. eigenvalues --   -0.80078  -0.73857  -0.73441  -0.70571  -0.59484
 Alpha  occ. eigenvalues --   -0.52461
 Alpha virt. eigenvalues --   -0.32801  -0.22730  -0.17552  -0.13637  -0.11984
 Alpha virt. eigenvalues --   -0.10648  -0.09814  -0.08772  -0.06959  -0.06428
 Alpha virt. eigenvalues --   -0.05816  -0.03143  -0.03106  -0.01439  -0.00139

  Beta  occ. eigenvalues --  -10.50554 -10.47167 -10.47158  -1.07382  -0.98200
  Beta  occ. eigenvalues --   -0.78849  -0.73045  -0.72036  -0.69378  -0.57419
  Beta virt. eigenvalues --   -0.42104  -0.29712  -0.20585  -0.17231  -0.13387
  Beta virt. eigenvalues --   -0.11900  -0.10186  -0.09656  -0.08465  -0.06751
  Beta virt. eigenvalues --   -0.05867  -0.05459  -0.02761  -0.02592  -0.01189

 Mulliken charges and spin densities:
               1          2
     1  C   -0.319699   0.362662
     2  H    0.254509   0.013757
     3  H    0.254509   0.013757
     4  C    0.621360   0.219650
     5  C   -0.319699   0.362662
     6  H    0.254509   0.013757
     7  H    0.254509   0.013757
 Sum of Mulliken charges =   1.00000   1.00000

 Dipole moment (field-independent basis, Debye):
    X=             -0.0000    Y=              0.0000    Z=             -0.0000  Tot=              0.0000
 Quadrupole moment (field-independent basis, Debye-Ang):
   XX=            -17.1062   YY=             -2.6126   ZZ=            -13.6811
   XY=              0.0000   XZ=              0.0000   YZ=             -0.0000

  Exact polarizability:  20.701   0.000  55.151  -0.000  -0.000  23.154
 Approx polarizability:  28.013   0.000  91.117   0.000   0.000  31.968

                      1                      2                      3
                      A                      B                      B
 Frequencies --    323.5880               340.3567               782.6758
 Red. masses --      1.9113                 3.1353                 1.2832
 Frc consts  --      0.1179                 0.2140                 0.4631
 IR Inten    --     10.1529                15.5658                 6.5533

                      4                      5                      6
                      A                      A                      B
 Frequencies --    805.3531               912.2023               935.0544
 Red. masses --      1.0112                 1.4180                 1.4186
 Frc consts  --      0.3864                 0.6952                 0.7308
 IR Inten    --      0.0000                22.7626                49.7579

                      7                      8                      9
                      A                      A                      B
 Frequencies --    996.8384              1070.4608              1353.4719
 Red. masses --      1.6556                 2.5296                 1.0801
 Frc consts  --      0.9693                 1.7078                 1.1657
 IR Inten    --      0.1372                 0.0000                90.9662

                     10                     11                     12
                      A                      B                      B
 Frequencies --   1398.9501              1635.2385              3056.8112
 Red. masses --      1.3707                10.3153                 1.0488
 Frc consts  --      1.5805                16.2515                 5.7742
 IR Inten    --      0.0000                18.6901               204.9251

                     13                     14                     15
                      A                      B                      A
 Frequencies --   3074.2108              3147.3618              3149.7364
 Red. masses --      1.0568                 1.1120                 1.1155
 Frc consts  --      5.8845                 6.4899                 6.5205
 IR Inten    --      0.0000                29.0811               121.4495

 - Thermochemistry -
 -------------------
 Temperature   298.150 Kelvin.  Pressure   1.00000 Atm.
 Atom     1 has atomic number  6 and mass  12.00000

 Molecular mass:    40.03130 amu.
 Principal axes and moments of inertia in atomic units:
                           1         2         3
     Eigenvalues --    12.55585 199.88692 208.09171
           X            0.00000   0.00000   1.00000
           Y            1.00000   0.00000  -0.00000
           Z            0.00000   1.00000   0.00000
 This molecule is an asymmetric top.
 Rotational symmetry number  2.
 Rotational temperatures (Kelvin)      6.89828     0.43331     0.41623
 Rotational constants (GHZ):         143.73707     9.02881     8.67282
 Zero-point vibrational energy     137464.7 (Joules/Mol)
                                   32.85486 (Kcal/Mol)
 Warning -- explicit consideration of   2 degrees of freedom as
           vibrations may cause significant error
 Vibrational temperatures:    465.57   489.70  1126.09  1158.72  1312.45
          (Kelvin)           1345.33  1434.23  1540.15  1947.34  2012.77
                             2352.74  4398.06  4423.10  4528.35  4531.76

 Zero-point correction=                           0.052358 (Hartree/Particle)
 Thermal correction to Energy=                    0.056298
 Thermal correction to Enthalpy=                  0.057242
 Thermal correction to Gibbs Free Energy=         0.028132
 Sum of electronic and zero-point Energies=           -116.301634
 Sum of electronic and thermal Energies=              -116.297694
 Sum of electronic and thermal Enthalpies=            -116.296750
 Sum of electronic and thermal Free Energies=         -116.325860

                     E (Thermal)             CV                S
                      KCal/Mol        Cal/Mol-Kelvin    Cal/Mol-Kelvin
 Total                   35.327             12.408             61.267
 Electronic               0.000              0.000              1.377
 Translational            0.889              2.981             36.989
 Rotational               0.889              2.981             19.507
 Vibrational             33.550              6.446              3.393
 Vibration     1          0.708              1.628              1.292
 Vibration     2          0.720              1.595              1.210

 Optimization completed.
    -- Stationary point found.
 Normal termination of Gaussian 09 at Tue Jul 19 21:05:22 2016.
