 Gaussian 09, Revision E.01,
 Gaussian 09:  EM64L-G09RevE.01 30-Nov-2015

 ---------------------------------------------
 #p b3lyp/6-311++G(3df,2p) freq symmetry=Loose
 ---------------------------------------------

 ---------
 b3lyp opt
 ---------
 Symbolic Z-matrix:
 Charge =  1 Multiplicity = 4

                         Standard orientation:
 ---------------------------------------------------------------------
 Center     Atomic      Atomic             Coordinates (Angstroms)
 Number     Number       Type             X           Y           Z
 ---------------------------------------------------------------------
      1          6           0       -0.000030   -0.091978    1.346224
      2          1           0       -0.000047    0.632699    2.152131
      3          1           0       -0.000035   -1.153900    1.585801
      4          6           0       -0.000000    0.357689    0.000000
      5          6           0       -0.000030   -0.091978   -1.346224
      6          1           0       -0.000035   -1.153900   -1.585801
      7          1           0       -0.000047    0.632699   -2.152131
 ---------------------------------------------------------------------

 SCF Done:  E(UB3LYP) =  -116.236007032     A.U. after   11 cycles

 The electronic state is 4-A".
 Alpha  occ. eigenvalues --  -10.54533 -10.48314 -10.48311  -1.09439  -0.98439
 Alpha  occ. eigenvalues --   -0.81305  -0.73411  -0.72720  -0.68054  -0.63983
 Alpha  occ. eigenvalues --   -0.51730  -0.49419
 Alpha virt. eigenvalues --   -0.28130  -0.17057  -0.13436  -0.12581  -0.10782
 Alpha virt. eigenvalues --   -0.10106  -0.09810  -0.08630  -0.05871  -0.05380
 Alpha virt. eigenvalues --   -0.05233  -0.03339  -0.02645  -0.02393  -0.00322

  Beta  occ. eigenvalues --  -10.52273 -10.47167 -10.47165  -1.03180  -0.94231
  Beta  occ. eigenvalues --   -0.77543  -0.70481  -0.70294  -0.66510
  Beta virt. eigenvalues --   -0.47565  -0.34705  -0.34163  -0.18598  -0.16359
  Beta virt. eigenvalues --   -0.12926  -0.12229  -0.09688  -0.09490  -0.08648
  Beta virt. eigenvalues --   -0.07537  -0.05118  -0.04853  -0.03390  -0.02235

 Mulliken charges and spin densities:
               1          2
     1  C   -0.264166   0.735403
     2  H    0.249250   0.002480
     3  H    0.222992   0.034478
     4  C    0.583847   1.455280
     5  C   -0.264166   0.735403
     6  H    0.222992   0.034478
     7  H    0.249250   0.002480
 Sum of Mulliken charges =   1.00000   3.00000

 Dipole moment (field-independent basis, Debye):
    X=             -0.0001    Y=             -0.5270    Z=             -0.0000  Tot=              0.5270
 Quadrupole moment (field-independent basis, Debye-Ang):
   XX=            -17.0389   YY=            -14.1790   ZZ=             -4.4881
   XY=              0.0000   XZ=              0.0000   YZ=              0.0000

  Exact polarizability:  20.014   0.000  25.936   0.000   0.000  51.728
 Approx polarizability:  27.650   0.000  34.862  -0.000  -0.000  69.383

                      1                      2                      3
                     A'                     A"                     A'
 Frequencies --    311.7113               360.4409               435.8417
 Red. masses --      2.2168                 1.0312                 1.7188
 Frc consts  --      0.1269                 0.0789                 0.1924
 IR Inten    --      3.1291                 0.0000                 2.9601

                      4                      5                      6
                     A"                     A'                     A"
 Frequencies --    768.9850               832.5382               912.5936
 Red. masses --      1.2681                 1.4465                 1.2063
 Frc consts  --      0.4418                 0.5907                 0.5919
 IR Inten    --      0.0000                68.8999                 0.7044

                      7                      8                      9
                     A'                     A'                     A"
 Frequencies --    933.8492              1097.1384              1417.6788
 Red. masses --      2.9729                 1.8655                 1.0816
 Frc consts  --      1.5275                 1.3230                 1.2807
 IR Inten    --      1.1290                 0.0057                19.2747

                     10                     11                     12
                     A'                     A"                     A"
 Frequencies --   1440.2716              1484.9322              3080.8646
 Red. masses --      1.1417                10.0594                 1.0500
 Frc consts  --      1.3954                13.0688                 5.8717
 IR Inten    --      4.7891               242.5938               110.3414

                     13                     14                     15
                     A'                     A"                     A'
 Frequencies --   3088.4994              3211.8317              3214.1750
 Red. masses --      1.0526                 1.1151                 1.1177
 Frc consts  --      5.9160                 6.7778                 6.8035
 IR Inten    --      8.8148                26.9120                46.9267

 - Thermochemistry -
 -------------------
 Temperature   298.150 Kelvin.  Pressure   1.00000 Atm.
 Atom     1 has atomic number  6 and mass  12.00000

 Molecular mass:    40.03130 amu.
 Principal axes and moments of inertia in atomic units:
                           1         2         3
     Eigenvalues --    18.57776 206.76609 225.34385
           X            0.00000   0.00002   1.00000
           Y            0.00000   1.00000  -0.00002
           Z            1.00000   0.00000   0.00000
 This molecule is an asymmetric top.
 Rotational symmetry number  1.
 Rotational temperatures (Kelvin)      4.66223     0.41890     0.38436
 Rotational constants (GHZ):          97.14524     8.72842     8.00883
 Zero-point vibrational energy     135126.3 (Joules/Mol)
                                   32.29596 (Kcal/Mol)
 Warning -- explicit consideration of   3 degrees of freedom as
           vibrations may cause significant error
 Vibrational temperatures:    448.48   518.59   627.08  1106.40  1197.84
          (Kelvin)           1313.02  1343.60  1578.54  2039.72  2072.23
                             2136.48  4432.67  4443.66  4621.10  4624.48

 Zero-point correction=                           0.051467 (Hartree/Particle)
 Thermal correction to Energy=                    0.055631
 Thermal correction to Enthalpy=                  0.056575
 Thermal correction to Gibbs Free Energy=         0.025586
 Sum of electronic and zero-point Energies=           -116.184540
 Sum of electronic and thermal Energies=              -116.180376
 Sum of electronic and thermal Enthalpies=            -116.179432
 Sum of electronic and thermal Free Energies=         -116.210421

                     E (Thermal)             CV                S
                      KCal/Mol        Cal/Mol-Kelvin    Cal/Mol-Kelvin
 Total                   34.909             13.353             65.223
 Electronic               0.000              0.000              2.755
 Translational            0.889              2.981             36.989
 Rotational               0.889              2.981             21.387
 Vibrational             33.132              7.391              4.092
 Vibration     1          0.700              1.651              1.353
 Vibration     2          0.735              1.554              1.120
 Vibration     3          0.796              1.392              0.840

 Optimization completed.
    -- Stationary point found.
 Normal termination of Gaussian 09 at Tue Jul 19 22:37:14 2016.
