 Gaussian 09, Revision E.01,
 Gaussian 09:  EM64L-G09RevE.01 30-Nov-2015

 ---------------------------------------------
 #p b3lyp/6-311++G(3df,2p) freq symmetry=Loose
 ---------------------------------------------

 ---------
 b3lyp opt
 ---------
 Symbolic Z-matrix:
 Charge =  2 Multiplicity = 3

                         Standard orientation:
 ---------------------------------------------------------------------
 Center     Atomic      Atomic             Coordinates (Angstroms)
 Number     Number       Type             X           Y           Z
 ---------------------------------------------------------------------
      1          6           0        1.088515   -0.292228    0.000038
      2          6           0       -1.019746   -0.243113    0.000022
      3          6           0        0.092104    0.647345   -0.000072
      4          1           0        1.771314   -1.157862    0.000138
      5          1           0       -1.446287   -0.636210   -0.950050
      6          1           0        0.156028    1.758038   -0.000196
      7          1           0       -1.446296   -0.635997    0.950179
 ---------------------------------------------------------------------

 SCF Done:  E(UB3LYP) =  -115.652371212     A.U. after   13 cycles

 The electronic state is 3-A.
 Alpha  occ. eigenvalues --  -10.85555 -10.82661 -10.80568  -1.43171  -1.22502
 Alpha  occ. eigenvalues --   -1.12451  -1.04042  -1.00515  -1.00154  -0.86590
 Alpha  occ. eigenvalues --   -0.80928
 Alpha virt. eigenvalues --   -0.63160  -0.59762  -0.40574  -0.37057  -0.33827
 Alpha virt. eigenvalues --   -0.31233  -0.30795  -0.28651  -0.26214  -0.25594
 Alpha virt. eigenvalues --   -0.25315  -0.23165  -0.22453  -0.21069  -0.20009

  Beta  occ. eigenvalues --  -10.83631 -10.82216 -10.79890  -1.39462  -1.18315
  Beta  occ. eigenvalues --   -1.09578  -1.02149  -0.98685  -0.97245
  Beta virt. eigenvalues --   -0.73514  -0.68128  -0.56270  -0.53159  -0.38082
  Beta virt. eigenvalues --   -0.36074  -0.32993  -0.30640  -0.29648  -0.27873
  Beta virt. eigenvalues --   -0.25598  -0.24627  -0.24203  -0.22093  -0.21621

 Mulliken charges and spin densities:
               1          2
     1  C    0.306369   1.191988
     2  C   -0.087360   0.400052
     3  C    0.355789   0.273292
     4  H    0.460231  -0.026618
     5  H    0.317109   0.046894
     6  H    0.330753   0.067498
     7  H    0.317109   0.046894
 Sum of Mulliken charges =   2.00000   2.00000

 Dipole moment (field-independent basis, Debye):
    X=              0.1873    Y=             -0.6879    Z=              0.0001  Tot=              0.7129
 Quadrupole moment (field-independent basis, Debye-Ang):
   XX=             -0.0280   YY=             -6.4049   ZZ=            -12.2192
   XY=             -0.8807   XZ=              0.0002   YZ=             -0.0007

  Exact polarizability:  41.725  -0.088  24.594   0.000   0.000  18.306
 Approx polarizability:  77.578  -1.566  35.727   0.000  -0.001  25.678

                      1                      2                      3
                      A                      A                      A
 Frequencies --    260.8339               480.7546               498.4552
 Red. masses --      5.7051                 1.1146                 1.0177
 Frc consts  --      0.2287                 0.1518                 0.1490
 IR Inten    --     10.7778                42.9808                 1.6142

                      4                      5                      6
                      A                      A                      A
 Frequencies --    656.7419               683.8041               910.7061
 Red. masses --      1.3402                 1.0766                 1.6339
 Frc consts  --      0.3406                 0.2966                 0.7984
 IR Inten    --      8.7864                50.1943                 3.8933

                      7                      8                      9
                      A                      A                      A
 Frequencies --    936.7851              1094.6976              1147.0329
 Red. masses --      1.2509                 1.3561                 3.3647
 Frc consts  --      0.6468                 0.9575                 2.6083
 IR Inten    --     43.8599                23.4249                 3.0717

                     10                     11                     12
                      A                      A                      A
 Frequencies --   1272.4662              1354.4092              2833.7847
 Red. masses --      1.0979                 5.6895                 1.0452
 Frc consts  --      1.0474                 6.1493                 4.9454
 IR Inten    --    105.7648                 2.8467               428.2694

                     13                     14                     15
                      A                      A                      A
 Frequencies --   2887.9034              2922.7825              3046.9326
 Red. masses --      1.0919                 1.1131                 1.1160
 Frc consts  --      5.3653                 5.6025                 6.1045
 IR Inten    --    288.0193               248.7717               450.1968

 - Thermochemistry -
 -------------------
 Temperature   298.150 Kelvin.  Pressure   1.00000 Atm.
 Atom     1 has atomic number  6 and mass  12.00000

 Molecular mass:    40.03130 amu.
 Principal axes and moments of inertia in atomic units:
                           1         2         3
     Eigenvalues --    49.46803 128.55327 165.02575
           X            0.99999   0.00356  -0.00000
           Y           -0.00356   0.99999   0.00011
           Z            0.00001  -0.00011   1.00000
 This molecule is an asymmetric top.
 Rotational symmetry number  1.
 Rotational temperatures (Kelvin)      1.75090     0.67376     0.52485
 Rotational constants (GHZ):          36.48298    14.03886    10.93612
 Zero-point vibrational energy     125536.7 (Joules/Mol)
                                   30.00398 (Kcal/Mol)
 Warning -- explicit consideration of   3 degrees of freedom as
           vibrations may cause significant error
 Vibrational temperatures:    375.28   691.70   717.16   944.90   983.84
          (Kelvin)           1310.30  1347.82  1575.02  1650.32  1830.79
                             1948.69  4077.18  4155.04  4205.23  4383.85

 Zero-point correction=                           0.047814 (Hartree/Particle)
 Thermal correction to Energy=                    0.052000
 Thermal correction to Enthalpy=                  0.052944
 Thermal correction to Gibbs Free Energy=         0.022114
 Sum of electronic and zero-point Energies=           -115.604557
 Sum of electronic and thermal Energies=              -115.600372
 Sum of electronic and thermal Enthalpies=            -115.599428
 Sum of electronic and thermal Free Energies=         -115.630257

                     E (Thermal)             CV                S
                      KCal/Mol        Cal/Mol-Kelvin    Cal/Mol-Kelvin
 Total                   32.630             13.778             64.886
 Electronic               0.000              0.000              2.183
 Translational            0.889              2.981             36.989
 Rotational               0.889              2.981             21.578
 Vibrational             30.853              7.816              4.136
 Vibration     1          0.669              1.744              1.656
 Vibration     2          0.837              1.293              0.708
 Vibration     3          0.854              1.253              0.662

 Optimization completed.
    -- Stationary point found.
 Normal termination of Gaussian 09 at Tue Jul 19 17:31:40 2016.
