 Gaussian 09, Revision E.01,
 Gaussian 09:  EM64L-G09RevE.01 30-Nov-2015

 ---------------------------------------------
 #p b3lyp/6-311++G(3df,2p) freq symmetry=Loose
 ---------------------------------------------

 ---------
 b3lyp opt
 ---------
 Symbolic Z-matrix:
 Charge =  0 Multiplicity = 1

                         Standard orientation:
 ---------------------------------------------------------------------
 Center     Atomic      Atomic             Coordinates (Angstroms)
 Number     Number       Type             X           Y           Z
 ---------------------------------------------------------------------
      1          6           0        0.000000    0.000000    0.981051
      2          6           0       -0.000000   -0.743186   -0.310708
      3          6           0        0.000000    0.743186   -0.310708
      4          1           0        0.904610   -1.297112   -0.539453
      5          1           0       -0.904610   -1.297112   -0.539453
      6          1           0        0.904610    1.297112   -0.539453
      7          1           0       -0.904610    1.297112   -0.539453
 ---------------------------------------------------------------------

 SCF Done:  E(RB3LYP) =  -116.591904930     A.U. after    9 cycles

 The electronic state is 1-A1.
 Alpha  occ. eigenvalues --  -10.23348 -10.18955 -10.18929  -0.88502  -0.62972
 Alpha  occ. eigenvalues --   -0.55768  -0.49965  -0.41346  -0.39164  -0.31370
 Alpha  occ. eigenvalues --   -0.24267
 Alpha virt. eigenvalues --   -0.10652  -0.00502   0.01064   0.01561   0.03783
 Alpha virt. eigenvalues --    0.05122   0.06611   0.08092   0.09415   0.10192
 Alpha virt. eigenvalues --    0.10958   0.11880   0.13119   0.13124   0.13465

 Mulliken charges:
               1
     1  C   -0.181220
     2  C   -0.205056
     3  C   -0.205056
     4  H    0.147833
     5  H    0.147833
     6  H    0.147833
     7  H    0.147833
 Sum of Mulliken charges =   0.00000

 Dipole moment (field-independent basis, Debye):
    X=             -0.0000    Y=             -0.0000    Z=             -2.2785  Tot=              2.2785
 Quadrupole moment (field-independent basis, Debye-Ang):
   XX=            -16.8695   YY=            -17.8972   ZZ=            -24.9323
   XY=              0.0000   XZ=              0.0000   YZ=             -0.0000

  Exact polarizability:  31.563   0.000  38.827  -0.000   0.000  37.049
 Approx polarizability:  47.352   0.000  55.077  -0.000   0.000  51.090

                      1                      2                      3
                     B1                     A2                     B2
 Frequencies --    463.6363               519.7647               777.9448
 Red. masses --      1.0370                 1.1273                 4.6146
 Frc consts  --      0.1313                 0.1794                 1.6454
 IR Inten    --     48.9975                 0.0000                63.0457

                      4                      5                      6
                     B1                     A1                     B2
 Frequencies --    824.4314               875.6433               989.5850
 Red. masses --      1.2749                 1.9308                 1.5223
 Frc consts  --      0.5105                 0.8723                 0.8784
 IR Inten    --     12.6995                13.6618                 4.4822

                      7                      8                      9
                     A1                     A2                     A1
 Frequencies --   1047.2301              1183.9605              1235.7355
 Red. masses --      2.0370                 1.2556                 2.9488
 Frc consts  --      1.3162                 1.0370                 2.6530
 IR Inten    --     38.5075                 0.0000                22.6682

                     10                     11                     12
                     B2                     A1                     B2
 Frequencies --   1397.8185              1417.1945              3093.1354
 Red. masses --      1.0765                 1.3136                 1.0495
 Frc consts  --      1.2393                 1.5545                 5.9159
 IR Inten    --     12.8333                26.5164                 0.2002

                     13                     14                     15
                     A1                     A2                     B1
 Frequencies --   3094.9375              3150.6871              3167.4041
 Red. masses --      1.0608                 1.1105                 1.1096
 Frc consts  --      5.9869                 6.4949                 6.5586
 IR Inten    --      6.7406                 0.0000                 0.0007

 - Thermochemistry -
 -------------------
 Temperature   298.150 Kelvin.  Pressure   1.00000 Atm.
 Atom     1 has atomic number  6 and mass  12.00000

 Molecular mass:    40.03130 amu.
 Principal axes and moments of inertia in atomic units:
                           1         2         3
     Eigenvalues --    65.07917  83.33921 124.85729
           X            0.00000   0.00000   1.00000
           Y            1.00000   0.00000  -0.00000
           Z           -0.00000   1.00000  -0.00000
 This molecule is an asymmetric top.
 Rotational symmetry number  2.
 Rotational temperatures (Kelvin)      1.33090     1.03929     0.69370
 Rotational constants (GHZ):          27.73147    21.65537    14.45443
 Zero-point vibrational energy     139000.7 (Joules/Mol)
                                   33.22197 (Kcal/Mol)
 Warning -- explicit consideration of   2 degrees of freedom as
           vibrations may cause significant error
 Vibrational temperatures:    667.07   747.82  1119.29  1186.17  1259.85
          (Kelvin)           1423.79  1506.73  1703.45  1777.95  2011.15
                             2039.02  4450.33  4452.92  4533.13  4557.18

 Zero-point correction=                           0.052943 (Hartree/Particle)
 Thermal correction to Energy=                    0.056569
 Thermal correction to Enthalpy=                  0.057513
 Thermal correction to Gibbs Free Energy=         0.029491
 Sum of electronic and zero-point Energies=           -116.538962
 Sum of electronic and thermal Energies=              -116.535336
 Sum of electronic and thermal Enthalpies=            -116.534392
 Sum of electronic and thermal Free Energies=         -116.562414

                     E (Thermal)             CV                S
                      KCal/Mol        Cal/Mol-Kelvin    Cal/Mol-Kelvin
 Total                   35.498             11.654             58.978
 Electronic               0.000              0.000              0.000
 Translational            0.889              2.981             36.989
 Rotational               0.889              2.981             19.765
 Vibrational             33.720              5.692              2.224
 Vibration     1          0.821              1.331              0.756
 Vibration     2          0.875              1.206              0.611

 Optimization completed.
    -- Stationary point found.
 Normal termination of Gaussian 09 at Tue Jul 19 18:06:45 2016.
