 Gaussian 09, Revision E.01,
 Gaussian 09:  EM64L-G09RevE.01 30-Nov-2015

 ---------------------------------------------
 #p b3lyp/6-311++G(3df,2p) freq symmetry=Loose
 ---------------------------------------------

 ---------
 b3lyp opt
 ---------
 Symbolic Z-matrix:
 Charge =  3 Multiplicity = 4

                         Standard orientation:
 ---------------------------------------------------------------------
 Center     Atomic      Atomic             Coordinates (Angstroms)
 Number     Number       Type             X           Y           Z
 ---------------------------------------------------------------------
      1          6           0       -1.281250    0.094841   -0.000043
      2          1           0       -1.679517    1.157413    0.000330
      3          1           0       -1.968748   -0.728062   -0.650371
      4          1           0       -1.968683   -0.727168    0.651672
      5          6           0        0.209828   -0.030036   -0.000230
      6          6           0        1.556615   -0.013361   -0.000179
      7          1           0        2.705786   -0.010847    0.001073
 ---------------------------------------------------------------------

 SCF Done:  E(UB3LYP) =  -114.689591778     A.U. after   13 cycles

 The electronic state is 4-A.
 Alpha  occ. eigenvalues --  -11.17891 -11.16109 -11.07278  -1.67514  -1.56013
 Alpha  occ. eigenvalues --   -1.36213  -1.30248  -1.24440  -1.21283  -1.15271
 Alpha  occ. eigenvalues --   -1.10867
 Alpha virt. eigenvalues --   -0.86076  -0.85780  -0.72647  -0.63698  -0.62469
 Alpha virt. eigenvalues --   -0.56509  -0.54253  -0.50827  -0.45932  -0.45117
 Alpha virt. eigenvalues --   -0.44588  -0.43357  -0.41888  -0.36774  -0.36310

  Beta  occ. eigenvalues --  -11.16098 -11.14456 -11.06157  -1.59833  -1.51013
  Beta  occ. eigenvalues --   -1.32324  -1.28307  -1.21146
  Beta virt. eigenvalues --   -1.04282  -1.00594  -0.94596  -0.78112  -0.76286
  Beta virt. eigenvalues --   -0.67346  -0.60279  -0.57414  -0.54975  -0.53112
  Beta virt. eigenvalues --   -0.49284  -0.44884  -0.43849  -0.43473  -0.42570

 Mulliken charges and spin densities:
               1          2
     1  C   -0.084139   0.698788
     2  H    0.385696   0.023147
     3  H    0.381981   0.146472
     4  H    0.382071   0.146679
     5  C    0.459237   1.106296
     6  C    0.925619   0.907811
     7  H    0.549535  -0.029192
 Sum of Mulliken charges =   3.00000   3.00000

 Dipole moment (field-independent basis, Debye):
    X=             -0.9226    Y=             -1.1800    Z=              0.0028  Tot=              1.4979
 Quadrupole moment (field-independent basis, Debye-Ang):
   XX=             31.4844   YY=             -8.6713   ZZ=            -11.1344
   XY=              2.7473   XZ=             -0.0024   YZ=             -0.0004

  Exact polarizability:  48.054   0.499  18.032  -0.003   0.000  16.213
 Approx polarizability:  70.716   0.324  25.038  -0.008   0.000  22.811

                      1                      2                      3
                      A                      A                      A
 Frequencies --    169.3737               307.4608               324.3111
 Red. masses --      1.0515                 2.5156                 2.8954
 Frc consts  --      0.0178                 0.1401                 0.1794
 IR Inten    --     51.3056                52.1200                68.3552

                      4                      5                      6
                      A                      A                      A
 Frequencies --    621.4514               678.4149               748.7562
 Red. masses --      1.2712                 1.2824                 2.6606
 Frc consts  --      0.2892                 0.3478                 0.8788
 IR Inten    --     36.5978                18.2938                93.1844

                      7                      8                      9
                      A                      A                      A
 Frequencies --    761.1123               777.8372              1023.0029
 Red. masses --      1.4999                 2.0615                 1.0742
 Frc consts  --      0.5119                 0.7349                 0.6623
 IR Inten    --     92.3778                17.6182                74.2957

                     10                     11                     12
                      A                      A                      A
 Frequencies --   1241.9447              1477.3812              1660.9887
 Red. masses --      1.0935                 1.0287                 5.6356
 Frc consts  --      0.9937                 1.3229                 9.1607
 IR Inten    --     89.9267               449.4975                56.7538

                     13                     14                     15
                      A                      A                      A
 Frequencies --   2085.7963              2629.0916              2654.1222
 Red. masses --      1.1067                 1.1504                 1.1038
 Frc consts  --      2.8369                 4.6850                 4.5813
 IR Inten    --   1007.4642              1306.6199               259.5354

 - Thermochemistry -
 -------------------
 Temperature   298.150 Kelvin.  Pressure   1.00000 Atm.
 Atom     1 has atomic number  6 and mass  12.00000

 Molecular mass:    40.03130 amu.
 Principal axes and moments of inertia in atomic units:
                           1         2         3
     Eigenvalues --    12.06115 242.81998 248.77966
           X            0.99990   0.01403   0.00005
           Y           -0.01403   0.99990  -0.00003
           Z           -0.00005   0.00003   1.00000
 This molecule is an asymmetric top.
 Rotational symmetry number  1.
 Rotational temperatures (Kelvin)      7.18122     0.35670     0.34815
 Rotational constants (GHZ):         149.63255     7.43242     7.25438
 Zero-point vibrational energy     102645.8 (Joules/Mol)
                                   24.53295 (Kcal/Mol)
 Warning -- explicit consideration of   3 degrees of freedom as
           vibrations may cause significant error
 Vibrational temperatures:    243.69   442.37   466.61   894.13   976.09
          (Kelvin)           1077.29  1095.07  1119.13  1471.87  1786.88
                             2125.62  2389.79  3000.99  3782.67  3818.69

 Zero-point correction=                           0.039096 (Hartree/Particle)
 Thermal correction to Energy=                    0.043937
 Thermal correction to Enthalpy=                  0.044881
 Thermal correction to Gibbs Free Energy=         0.012727
 Sum of electronic and zero-point Energies=           -114.650496
 Sum of electronic and thermal Energies=              -114.645655
 Sum of electronic and thermal Enthalpies=            -114.644711
 Sum of electronic and thermal Free Energies=         -114.676865

                     E (Thermal)             CV                S
                      KCal/Mol        Cal/Mol-Kelvin    Cal/Mol-Kelvin
 Total                   27.571             15.795             67.674
 Electronic               0.000              0.000              2.755
 Translational            0.889              2.981             36.989
 Rotational               0.889              2.981             21.215
 Vibrational             25.793              9.834              6.714
 Vibration     1          0.625              1.880              2.442
 Vibration     2          0.697              1.660              1.376
 Vibration     3          0.709              1.627              1.288

 Optimization completed.
    -- Stationary point found.
 Normal termination of Gaussian 09 at Tue Jun 21 20:56:33 2016.
