 Gaussian 09, Revision E.01,
 Gaussian 09:  EM64L-G09RevE.01 30-Nov-2015

 ---------------------------------------------
 #p b3lyp/6-311++G(3df,2p) freq symmetry=Loose
 ---------------------------------------------

 ---------
 b3lyp opt
 ---------
 Symbolic Z-matrix:
 Charge =  3 Multiplicity = 2

                         Standard orientation:
 ---------------------------------------------------------------------
 Center     Atomic      Atomic             Coordinates (Angstroms)
 Number     Number       Type             X           Y           Z
 ---------------------------------------------------------------------
      1          6           0       -0.607328   -0.829077    0.000000
      2          1           0       -0.043604   -1.810886    0.000000
      3          1           0       -1.857812   -0.534844   -0.000000
      4          1           0       -1.745207   -1.528688   -0.000000
      5          6           0       -0.000000    0.448651   -0.000000
      6          6           0        1.301397    0.775908    0.000000
      7          1           0       -0.517788    1.501529   -0.000000
 ---------------------------------------------------------------------

 SCF Done:  E(UB3LYP) =  -114.656485224     A.U. after   17 cycles

 The electronic state is 2-A'.
 Alpha  occ. eigenvalues --  -11.24083 -11.13776 -11.06657  -1.67016  -1.55754
 Alpha  occ. eigenvalues --   -1.37996  -1.31717  -1.24906  -1.20305  -1.15829
 Alpha virt. eigenvalues --   -0.96891  -0.95022  -0.77187  -0.76331  -0.72288
 Alpha virt. eigenvalues --   -0.61043  -0.52719  -0.50960  -0.48932  -0.47312
 Alpha virt. eigenvalues --   -0.44497  -0.43566  -0.40456  -0.40263  -0.39355

  Beta  occ. eigenvalues --  -11.21350 -11.14153 -11.06423  -1.65838  -1.54627
  Beta  occ. eigenvalues --   -1.37079  -1.31630  -1.22351  -1.14570
  Beta virt. eigenvalues --   -0.99191  -0.95597  -0.90825  -0.75933  -0.75122
  Beta virt. eigenvalues --   -0.72345  -0.61279  -0.52346  -0.51159  -0.48741
  Beta virt. eigenvalues --   -0.47612  -0.44281  -0.43483  -0.40222  -0.38470

 Mulliken charges and spin densities:
               1          2
     1  C    0.196195  -0.232567
     2  H    0.370039   0.005502
     3  H    0.336297   0.006448
     4  H    0.447373   0.012426
     5  C    0.580908   0.055710
     6  C    0.747648   1.157278
     7  H    0.321538  -0.004797
 Sum of Mulliken charges =   3.00000   1.00000

 Dipole moment (field-independent basis, Debye):
    X=             -2.8050    Y=             -1.8196    Z=             -0.0000  Tot=              3.3435
 Quadrupole moment (field-independent basis, Debye-Ang):
   XX=             11.4807   YY=              7.4245   ZZ=            -13.8435
   XY=             12.9406   XZ=              0.0000   YZ=              0.0000

  Exact polarizability:  34.439   9.776  31.455   0.000   0.000  14.365
 Approx polarizability:  74.706  25.097  53.799   0.000  -0.000  19.633

                      1                      2                      3
                     A"                     A'                     A"
 Frequencies --    314.8321               350.5759               379.7886
 Red. masses --      1.3222                 3.7464                 1.0923
 Frc consts  --      0.0772                 0.2713                 0.0928
 IR Inten    --     40.8213                40.7366                64.6258

                      4                      5                      6
                     A'                     A"                     A"
 Frequencies --    682.9299               693.2210               929.6826
 Red. masses --      1.4012                 1.3566                 1.4541
 Frc consts  --      0.3850                 0.3841                 0.7405
 IR Inten    --     76.3682                65.8183                75.1805

                      7                      8                      9
                     A'                     A'                     A'
 Frequencies --    935.0575              1072.6881              1261.1506
 Red. masses --      1.8877                 1.4470                 1.2365
 Frc consts  --      0.9724                 0.9810                 1.1587
 IR Inten    --     69.8567               101.3183               407.9562

                     10                     11                     12
                     A'                     A'                     A'
 Frequencies --   1338.4548              1487.2571              1504.6124
 Red. masses --      1.2662                 3.0369                 1.2288
 Frc consts  --      1.3364                 3.9578                 1.6390
 IR Inten    --    118.8982               243.1389               106.1355

                     13                     14                     15
                     A'                     A'                     A'
 Frequencies --   2279.1849              2365.7927              2741.1204
 Red. masses --      1.0436                 1.0679                 1.1006
 Frc consts  --      3.1940                 3.5215                 4.8724
 IR Inten    --    633.2268               586.5177               399.3400

 - Thermochemistry -
 -------------------
 Temperature   298.150 Kelvin.  Pressure   1.00000 Atm.
 Atom     1 has atomic number  6 and mass  12.00000

 Molecular mass:    40.03130 amu.
 Principal axes and moments of inertia in atomic units:
                           1         2         3
     Eigenvalues --    26.76490 177.19272 203.95762
           X            0.74927  -0.66227   0.00000
           Y            0.66227   0.74927   0.00000
           Z            0.00000  -0.00000   1.00000
 This molecule is an asymmetric top.
 Rotational symmetry number  1.
 Rotational temperatures (Kelvin)      3.23610     0.48881     0.42467
 Rotational constants (GHZ):          67.42939    10.18519     8.84861
 Zero-point vibrational energy     109675.7 (Joules/Mol)
                                   26.21313 (Kcal/Mol)
 Warning -- explicit consideration of   3 degrees of freedom as
           vibrations may cause significant error
 Vibrational temperatures:    452.97   504.40   546.43   982.58   997.39
          (Kelvin)           1337.60  1345.34  1543.36  1814.51  1925.74
                             2139.83  2164.80  3279.23  3403.84  3943.86

 Zero-point correction=                           0.041773 (Hartree/Particle)
 Thermal correction to Energy=                    0.046089
 Thermal correction to Enthalpy=                  0.047034
 Thermal correction to Gibbs Free Energy=         0.016416
 Sum of electronic and zero-point Energies=           -114.614712
 Sum of electronic and thermal Energies=              -114.610396
 Sum of electronic and thermal Enthalpies=            -114.609452
 Sum of electronic and thermal Free Energies=         -114.640069

                     E (Thermal)             CV                S
                      KCal/Mol        Cal/Mol-Kelvin    Cal/Mol-Kelvin
 Total                   28.922             14.076             64.440
 Electronic               0.000              0.000              1.377
 Translational            0.889              2.981             36.989
 Rotational               0.889              2.981             21.497
 Vibrational             27.144              8.114              4.577
 Vibration     1          0.702              1.645              1.337
 Vibration     2          0.727              1.574              1.164
 Vibration     3          0.750              1.513              1.040

 Optimization completed.
    -- Stationary point found.
 Normal termination of Gaussian 09 at Tue Jul 19 20:03:32 2016.
