 Gaussian 09, Revision E.01,
 Gaussian 09:  EM64L-G09RevE.01 30-Nov-2015

 ---------------------------------------------
 #p b3lyp/6-311++G(3df,2p) freq symmetry=Loose
 ---------------------------------------------

 ---------
 b3lyp opt
 ---------
 Symbolic Z-matrix:
 Charge =  2 Multiplicity = 3

                         Standard orientation:
 ---------------------------------------------------------------------
 Center     Atomic      Atomic             Coordinates (Angstroms)
 Number     Number       Type             X           Y           Z
 ---------------------------------------------------------------------
      1          6           0        0.000000   -0.000000    1.360006
      2          1           0       -0.000000    0.951974    1.934860
      3          1           0       -0.000000   -0.951974    1.934860
      4          6           0        0.000000    0.000000    0.000000
      5          6           0        0.000000    0.000000   -1.360006
      6          1           0        0.951974   -0.000000   -1.934860
      7          1           0       -0.951974    0.000000   -1.934860
 ---------------------------------------------------------------------

 SCF Done:  E(UB3LYP) =  -115.698540744     A.U. after   11 cycles

 The electronic state is 3-A1.
 Alpha  occ. eigenvalues --  -10.86175 -10.79743 -10.79737  -1.39666  -1.29134
 Alpha  occ. eigenvalues --   -1.07952  -1.01819  -0.99664  -0.99664  -0.85966
 Alpha  occ. eigenvalues --   -0.85966
 Alpha virt. eigenvalues --   -0.58304  -0.58304  -0.39481  -0.33709  -0.31295
 Alpha virt. eigenvalues --   -0.29597  -0.29597  -0.27604  -0.26324  -0.25606
 Alpha virt. eigenvalues --   -0.25606  -0.22775  -0.22174  -0.21389  -0.17516

  Beta  occ. eigenvalues --  -10.84688 -10.79012 -10.79007  -1.34677  -1.25926
  Beta  occ. eigenvalues --   -1.05364  -1.00253  -0.96692  -0.96692
  Beta virt. eigenvalues --   -0.73103  -0.73103  -0.51761  -0.51761  -0.37786
  Beta virt. eigenvalues --   -0.32819  -0.29048  -0.29048  -0.28991  -0.26320
  Beta virt. eigenvalues --   -0.25814  -0.24553  -0.24553  -0.21995  -0.21334

 Mulliken charges and spin densities:
               1          2
     1  C   -0.062775   0.455617
     2  H    0.331859   0.032341
     3  H    0.331859   0.032341
     4  C    0.798114   0.959401
     5  C   -0.062775   0.455617
     6  H    0.331859   0.032341
     7  H    0.331859   0.032341
 Sum of Mulliken charges =   2.00000   2.00000

 Dipole moment (field-independent basis, Debye):
    X=             -0.0000    Y=             -0.0000    Z=             -0.0000  Tot=              0.0000
 Quadrupole moment (field-independent basis, Debye-Ang):
   XX=            -12.0157   YY=            -12.0157   ZZ=             10.2768
   XY=             -0.0000   XZ=             -0.0000   YZ=             -0.0000

  Exact polarizability:  18.287   0.000  18.287   0.000   0.000  50.595
 Approx polarizability:  25.235  -0.000  25.235  -0.000  -0.000  77.160

                      1                      2                      3
                      E                      E                     B1
 Frequencies --    314.6659               314.6659               681.7278
 Red. masses --      2.4465                 2.4465                 1.0078
 Frc consts  --      0.1427                 0.1427                 0.2760
 IR Inten    --     16.6044                16.6044                 0.0000

                      4                      5                      6
                      E                      E                     A1
 Frequencies --    839.7626               839.7626               929.0418
 Red. masses --      1.4292                 1.4292                 4.6031
 Frc consts  --      0.5938                 0.5938                 2.3409
 IR Inten    --      0.4692                 0.4692                 0.0000

                      7                      8                      9
                      E                      E                     A1
 Frequencies --    956.5155               956.5155              1283.7757
 Red. masses --      1.4048                 1.4048                 1.1205
 Frc consts  --      0.7573                 0.7573                 1.0880
 IR Inten    --     36.4938                36.4938                 0.0000

                     10                     11                     12
                     B2                     B2                     B2
 Frequencies --   1286.7614              1786.8458              2841.3450
 Red. masses --      1.0840                 9.6576                 1.0524
 Frc consts  --      1.0575                18.1673                 5.0059
 IR Inten    --    229.5628                 8.8713              1046.1168

                     13                     14                     15
                     A1                      E                      E
 Frequencies --   2860.9028              2935.7374              2935.7374
 Red. masses --      1.0437                 1.1143                 1.1143
 Frc consts  --      5.0333                 5.6583                 5.6583
 IR Inten    --      0.0000               280.3624               280.3624

 - Thermochemistry -
 -------------------
 Temperature   298.150 Kelvin.  Pressure   1.00000 Atm.
 Atom     1 has atomic number  6 and mass  12.00000

 Molecular mass:    40.03130 amu.
 Principal axes and moments of inertia in atomic units:
                           1         2         3
     Eigenvalues --    13.04648 218.93974 218.93974
           X           -0.00000   0.68894   0.72482
           Y           -0.00000   0.72482  -0.68894
           Z            1.00000   0.00000   0.00000
 This molecule is a prolate symmetric top.
 Rotational symmetry number  4.
 Rotational temperatures (Kelvin)      6.63886     0.39561     0.39561
 Rotational constants (GHZ):         138.33161     8.24310     8.24310
 Zero-point vibrational energy     130176.2 (Joules/Mol)
                                   31.11286 (Kcal/Mol)
 Warning -- explicit consideration of   2 degrees of freedom as
           vibrations may cause significant error
 Vibrational temperatures:    452.73   452.73   980.85  1208.23  1208.23
          (Kelvin)           1336.68  1376.21  1376.21  1847.06  1851.36
                             2570.87  4088.06  4116.20  4223.87  4223.87

 Zero-point correction=                           0.049582 (Hartree/Particle)
 Thermal correction to Energy=                    0.053635
 Thermal correction to Enthalpy=                  0.054579
 Thermal correction to Gibbs Free Energy=         0.025478
 Sum of electronic and zero-point Energies=           -115.648959
 Sum of electronic and thermal Energies=              -115.644906
 Sum of electronic and thermal Enthalpies=            -115.643962
 Sum of electronic and thermal Free Energies=         -115.673063

                     E (Thermal)             CV                S
                      KCal/Mol        Cal/Mol-Kelvin    Cal/Mol-Kelvin
 Total                   33.656             12.947             61.248
 Electronic               0.000              0.000              2.183
 Translational            0.889              2.981             36.989
 Rotational               0.889              2.981             18.309
 Vibrational             31.879              6.986              3.767
 Vibration     1          0.702              1.646              1.338
 Vibration     2          0.702              1.646              1.338

 Optimization completed.
    -- Stationary point found.
 Normal termination of Gaussian 09 at Tue Jul 19 17:21:52 2016.
