 Gaussian 09, Revision E.01,
 Gaussian 09:  EM64L-G09RevE.01 30-Nov-2015

 ---------------------------------------------
 #p b3lyp/6-311++G(3df,2p) freq symmetry=Loose
 ---------------------------------------------

 ---------
 b3lyp opt
 ---------
 Symbolic Z-matrix:
 Charge =  0 Multiplicity = 3

                         Standard orientation:
 ---------------------------------------------------------------------
 Center     Atomic      Atomic             Coordinates (Angstroms)
 Number     Number       Type             X           Y           Z
 ---------------------------------------------------------------------
      1          6           0       -1.184313   -0.177579    0.000107
      2          1           0       -1.324666   -1.249144    0.000002
      3          1           0       -2.064121    0.448194    0.000272
      4          6           0        0.080483    0.376516    0.000034
      5          1           0        2.306244   -0.046954   -0.000253
      6          1           0        0.149303    1.467987    0.000148
      7          6           0        1.259370   -0.302285   -0.000169
 ---------------------------------------------------------------------

 SCF Done:  E(UB3LYP) =  -116.620837732     A.U. after   13 cycles

 The electronic state is 3-A.
 Alpha  occ. eigenvalues --  -10.20783 -10.19068 -10.18456  -0.80974  -0.69090
 Alpha  occ. eigenvalues --   -0.55787  -0.49714  -0.43684  -0.39496  -0.34049
 Alpha  occ. eigenvalues --   -0.25626  -0.21361
 Alpha virt. eigenvalues --   -0.00222   0.01433   0.01441   0.01937   0.04378
 Alpha virt. eigenvalues --    0.06548   0.07515   0.09409   0.09488   0.10325
 Alpha virt. eigenvalues --    0.11539   0.12390   0.12588   0.13414   0.14070

  Beta  occ. eigenvalues --  -10.19409 -10.18454 -10.17496  -0.79057  -0.65120
  Beta  occ. eigenvalues --   -0.53457  -0.48501  -0.42360  -0.38381  -0.30654
  Beta virt. eigenvalues --   -0.08869  -0.08671   0.00025   0.01589   0.02112
  Beta virt. eigenvalues --    0.02995   0.04386   0.07786   0.08444   0.09596
  Beta virt. eigenvalues --    0.10500   0.10563   0.11753   0.12772   0.13657

 Mulliken charges and spin densities:
               1          2
     1  C   -0.434187   0.694826
     2  H    0.156047  -0.016683
     3  H    0.143566  -0.020944
     4  C    0.241251  -0.363177
     5  H    0.191482   0.002453
     6  H    0.130034   0.075976
     7  C   -0.428193   1.627548
 Sum of Mulliken charges =  -0.00000   2.00000

 Dipole moment (field-independent basis, Debye):
    X=              0.0045    Y=              0.6982    Z=              0.0001  Tot=              0.6982
 Quadrupole moment (field-independent basis, Debye-Ang):
   XX=            -16.6094   YY=            -18.4698   ZZ=            -21.7230
   XY=              0.7562   XZ=             -0.0005   YZ=              0.0003

  Exact polarizability:  57.470  -0.976  35.016  -0.003   0.001  29.238
 Approx polarizability:  80.867  -2.180  47.629  -0.005   0.001  38.779

                      1                      2                      3
                      A                      A                      A
 Frequencies --    423.5078               528.3774               567.0810
 Red. masses --      2.1422                 1.2031                 1.2891
 Frc consts  --      0.2264                 0.1979                 0.2443
 IR Inten    --      3.7794                34.8802                 7.3952

                      4                      5                      6
                      A                      A                      A
 Frequencies --    807.4513               825.7594               909.0010
 Red. masses --      1.3118                 1.2145                 1.2892
 Frc consts  --      0.5039                 0.4879                 0.6276
 IR Inten    --     46.2688                15.9767                 6.0700

                      7                      8                      9
                      A                      A                      A
 Frequencies --   1016.0263              1211.0752              1237.8210
 Red. masses --      1.5433                 1.7118                 2.8999
 Frc consts  --      0.9387                 1.4793                 2.6178
 IR Inten    --      0.2130                 2.9028                 1.8675

                     10                     11                     12
                      A                      A                      A
 Frequencies --   1417.2583              1504.8116              3030.2842
 Red. masses --      2.1934                 1.3468                 1.0817
 Frc consts  --      2.5958                 1.7969                 5.8523
 IR Inten    --      0.8527                 3.5423                 7.9063

                     13                     14                     15
                      A                      A                      A
 Frequencies --   3147.3395              3238.6568              3244.0534
 Red. masses --      1.0535                 1.0950                 1.1180
 Frc consts  --      6.1486                 6.7672                 6.9324
 IR Inten    --      4.2335                 1.1581                 5.1012

 - Thermochemistry -
 -------------------
 Temperature   298.150 Kelvin.  Pressure   1.00000 Atm.
 Atom     1 has atomic number  6 and mass  12.00000

 Molecular mass:    40.03130 amu.
 Principal axes and moments of inertia in atomic units:
                           1         2         3
     Eigenvalues --    25.35117 169.20263 194.55380
           X            0.99979   0.02035   0.00011
           Y           -0.02035   0.99979  -0.00011
           Z           -0.00011   0.00011   1.00000
 This molecule is an asymmetric top.
 Rotational symmetry number  1.
 Rotational temperatures (Kelvin)      3.41656     0.51189     0.44519
 Rotational constants (GHZ):          71.18966    10.66615     9.27631
 Zero-point vibrational energy     138219.5 (Joules/Mol)
                                   33.03526 (Kcal/Mol)
 Warning -- explicit consideration of   3 degrees of freedom as
           vibrations may cause significant error
 Vibrational temperatures:    609.33   760.22   815.90  1161.74  1188.08
          (Kelvin)           1307.85  1461.83  1742.46  1780.95  2039.12
                             2165.09  4359.90  4528.31  4659.70  4667.46

 Zero-point correction=                           0.052645 (Hartree/Particle)
 Thermal correction to Energy=                    0.056424
 Thermal correction to Enthalpy=                  0.057368
 Thermal correction to Gibbs Free Energy=         0.027332
 Sum of electronic and zero-point Energies=           -116.568193
 Sum of electronic and thermal Energies=              -116.564413
 Sum of electronic and thermal Enthalpies=            -116.563469
 Sum of electronic and thermal Free Energies=         -116.593506

                     E (Thermal)             CV                S
                      KCal/Mol        Cal/Mol-Kelvin    Cal/Mol-Kelvin
 Total                   35.407             12.319             63.218
 Electronic               0.000              0.000              2.183
 Translational            0.889              2.981             36.989
 Rotational               0.889              2.981             21.350
 Vibrational             33.629              6.357              2.695
 Vibration     1          0.786              1.419              0.880
 Vibration     2          0.883              1.187              0.591
 Vibration     3          0.923              1.102              0.510

 Optimization completed.
    -- Stationary point found.
 Normal termination of Gaussian 09 at Tue Jul 19 18:33:19 2016.
