 Gaussian 09, Revision E.01,
 Gaussian 09:  EM64L-G09RevE.01 30-Nov-2015

 ---------------------------------------------
 #p b3lyp/6-311++G(3df,2p) freq symmetry=Loose
 ---------------------------------------------

 ---------
 b3lyp opt
 ---------
 Symbolic Z-matrix:
 Charge =  2 Multiplicity = 3

                         Standard orientation:
 ---------------------------------------------------------------------
 Center     Atomic      Atomic             Coordinates (Angstroms)
 Number     Number       Type             X           Y           Z
 ---------------------------------------------------------------------
      1          6           0       -0.000000   -0.000000   -1.203596
      2          1           0        0.000000    1.055443   -1.633932
      3          1           0        0.914040   -0.527722   -1.633932
      4          1           0       -0.914040   -0.527722   -1.633932
      5          6           0       -0.000000   -0.000000    0.144427
      6          6           0       -0.000000   -0.000000    1.450544
      7          1           0       -0.000000   -0.000000    2.553542
 ---------------------------------------------------------------------

 SCF Done:  E(UB3LYP) =  -115.674984468     A.U. after   13 cycles

 The electronic state is 3-A1.
 Alpha  occ. eigenvalues --  -10.86356 -10.86164 -10.72498  -1.41098  -1.29587
 Alpha  occ. eigenvalues --   -1.09510  -1.02340  -0.97718  -0.97718  -0.87105
 Alpha  occ. eigenvalues --   -0.87105
 Alpha virt. eigenvalues --   -0.57333  -0.57333  -0.40301  -0.37436  -0.31143
 Alpha virt. eigenvalues --   -0.31143  -0.30083  -0.27633  -0.27633  -0.26926
 Alpha virt. eigenvalues --   -0.24847  -0.23355  -0.23355  -0.16840  -0.16840

  Beta  occ. eigenvalues --  -10.85452 -10.84413 -10.72272  -1.36316  -1.26336
  Beta  occ. eigenvalues --   -1.07159  -1.00775  -0.93773  -0.93773
  Beta virt. eigenvalues --   -0.74214  -0.74214  -0.51143  -0.51143  -0.37856
  Beta virt. eigenvalues --   -0.36413  -0.30022  -0.30022  -0.29503  -0.27018
  Beta virt. eigenvalues --   -0.27018  -0.25745  -0.24432  -0.22672  -0.22672

 Mulliken charges and spin densities:
               1          2
     1  C   -0.346519   0.142693
     2  H    0.326756   0.101066
     3  H    0.326756   0.101066
     4  H    0.326756   0.101066
     5  C    0.308947   0.561889
     6  C    0.574675   1.021694
     7  H    0.482630  -0.029476
 Sum of Mulliken charges =   2.00000   2.00000

 Dipole moment (field-independent basis, Debye):
    X=             -0.0000    Y=             -0.0000    Z=              0.9747  Tot=              0.9747
 Quadrupole moment (field-independent basis, Debye-Ang):
   XX=            -12.4198   YY=            -12.4198   ZZ=             11.9661
   XY=             -0.0000   XZ=              0.0000   YZ=              0.0000

  Exact polarizability:  19.205   0.000  19.205   0.000  -0.000  53.953
 Approx polarizability:  27.368  -0.000  27.368   0.000  -0.000  96.314

                      1                      2                      3
                      E                      E                      E
 Frequencies --    327.1874               327.1926               614.2430
 Red. masses --      2.0131                 2.0130                 1.2588
 Frc consts  --      0.1270                 0.1270                 0.2798
 IR Inten    --     29.8127                29.8172                11.9193

                      4                      5                      6
                      E                      E                      E
 Frequencies --    614.2437               743.4818               743.5336
 Red. masses --      1.2588                 1.8859                 1.8860
 Frc consts  --      0.2798                 0.6142                 0.6143
 IR Inten    --     11.9139                62.0092                61.9569

                      7                      8                      9
                      E                      E                     A1
 Frequencies --    975.2681               975.2876              1006.6187
 Red. masses --      1.0428                 1.0428                 2.5679
 Frc consts  --      0.5844                 0.5844                 1.5331
 IR Inten    --     60.2842                60.2824                12.2041

                     10                     11                     12
                     A1                     A1                      E
 Frequencies --   1195.3764              1878.1945              2576.1212
 Red. masses --      1.4636                 6.9348                 1.0814
 Frc consts  --      1.2322                14.4134                 4.2284
 IR Inten    --    402.9169                 2.9412               343.9942

                     13                     14                     15
                      E                     A1                     A1
 Frequencies --   2576.1372              2624.2401              3055.3697
 Red. masses --      1.0814                 1.0453                 1.1385
 Frc consts  --      4.2284                 4.2414                 6.2619
 IR Inten    --    343.9391              1072.9311               510.6442

 - Thermochemistry -
 -------------------
 Temperature   298.150 Kelvin.  Pressure   1.00000 Atm.
 Atom     1 has atomic number  6 and mass  12.00000

 Molecular mass:    40.03130 amu.
 Principal axes and moments of inertia in atomic units:
                           1         2         3
     Eigenvalues --    12.02746 210.96013 210.96013
           X            0.00000   0.80000  -0.60000
           Y            0.00000   0.60000   0.80000
           Z            1.00000  -0.00000  -0.00000
 This molecule is a prolate symmetric top.
 Rotational symmetry number  3.
 Rotational temperatures (Kelvin)      7.20134     0.41057     0.41057
 Rotational constants (GHZ):         150.05179     8.55489     8.55489
 Zero-point vibrational energy     121017.2 (Joules/Mol)
                                   28.92380 (Kcal/Mol)
 Warning -- explicit consideration of   4 degrees of freedom as
           vibrations may cause significant error
 Vibrational temperatures:    470.75   470.76   883.76   883.76  1069.70
          (Kelvin)           1069.78  1403.19  1403.22  1448.30  1719.88
                             2702.30  3706.46  3706.48  3775.69  4395.99

 Zero-point correction=                           0.046093 (Hartree/Particle)
 Thermal correction to Energy=                    0.050333
 Thermal correction to Enthalpy=                  0.051277
 Thermal correction to Gibbs Free Energy=         0.021744
 Sum of electronic and zero-point Energies=           -115.628891
 Sum of electronic and thermal Energies=              -115.624652
 Sum of electronic and thermal Enthalpies=            -115.623708
 Sum of electronic and thermal Free Energies=         -115.653241

                     E (Thermal)             CV                S
                      KCal/Mol        Cal/Mol-Kelvin    Cal/Mol-Kelvin
 Total                   31.584             14.115             62.157
 Electronic               0.000              0.000              2.183
 Translational            0.889              2.981             36.989
 Rotational               0.889              2.981             18.726
 Vibrational             29.807              8.153              4.259
 Vibration     1          0.711              1.621              1.274
 Vibration     2          0.711              1.621              1.274
 Vibration     3          0.974              1.002              0.426
 Vibration     4          0.974              1.002              0.426

 Optimization completed.
    -- Stationary point found.
 Normal termination of Gaussian 09 at Tue Jun 21 20:43:21 2016.
