 Gaussian 09, Revision E.01,
 Gaussian 09:  EM64L-G09RevE.01 30-Nov-2015

 ---------------------------------------------
 #p b3lyp/6-311++G(3df,2p) freq symmetry=Loose
 ---------------------------------------------

 ---------
 b3lyp opt
 ---------
 Symbolic Z-matrix:
 Charge =  0 Multiplicity = 3

                         Standard orientation:
 ---------------------------------------------------------------------
 Center     Atomic      Atomic             Coordinates (Angstroms)
 Number     Number       Type             X           Y           Z
 ---------------------------------------------------------------------
      1          6           0       -0.000026   -0.084381    1.278784
      2          1           0       -0.000044    0.594974    2.121065
      3          1           0       -0.000031   -1.149687    1.510070
      4          6           0       -0.000000    0.353667    0.000000
      5          6           0       -0.000026   -0.084381   -1.278784
      6          1           0       -0.000031   -1.149687   -1.510070
      7          1           0       -0.000044    0.594974   -2.121065
 ---------------------------------------------------------------------

 SCF Done:  E(UB3LYP) =  -116.624998787     A.U. after   11 cycles

 The electronic state is 3-A".
 Alpha  occ. eigenvalues --  -10.20030 -10.19288 -10.19280  -0.80905  -0.71125
 Alpha  occ. eigenvalues --   -0.54639  -0.47582  -0.46235  -0.42165  -0.34433
 Alpha  occ. eigenvalues --   -0.22536  -0.21806
 Alpha virt. eigenvalues --   -0.00315   0.01430   0.02090   0.02216   0.04448
 Alpha virt. eigenvalues --    0.05859   0.07219   0.09327   0.09662   0.11259
 Alpha virt. eigenvalues --    0.12109   0.12940   0.13411   0.13764   0.14723

  Beta  occ. eigenvalues --  -10.18885 -10.18444 -10.18436  -0.77643  -0.68263
  Beta  occ. eigenvalues --   -0.52234  -0.45037  -0.44642  -0.40847  -0.30159
  Beta virt. eigenvalues --   -0.10483  -0.08068   0.00007   0.01542   0.02358
  Beta virt. eigenvalues --    0.03621   0.04500   0.06091   0.09297   0.09941
  Beta virt. eigenvalues --    0.10189   0.11217   0.12740   0.13522   0.14020

 Mulliken charges and spin densities:
               1          2
     1  C   -0.510161   0.561413
     2  H    0.175157   0.001964
     3  H    0.131011   0.060414
     4  C    0.407986   0.752418
     5  C   -0.510161   0.561413
     6  H    0.131011   0.060414
     7  H    0.175157   0.001964
 Sum of Mulliken charges =  -0.00000   2.00000

 Dipole moment (field-independent basis, Debye):
    X=             -0.0000    Y=             -0.6207    Z=              0.0000  Tot=              0.6207
 Quadrupole moment (field-independent basis, Debye-Ang):
   XX=            -21.6916   YY=            -18.5396   ZZ=            -16.2478
   XY=             -0.0000   XZ=             -0.0000   YZ=              0.0000

  Exact polarizability:  29.464   0.000  34.610   0.000   0.000  63.482
 Approx polarizability:  39.114   0.000  46.865   0.000  -0.000  93.921

                      1                      2                      3
                     A'                     A'                     A"
 Frequencies --    305.9398               444.3662               746.6810
 Red. masses --      2.0610                 1.7355                 1.0560
 Frc consts  --      0.1137                 0.2019                 0.3469
 IR Inten    --      2.6726                13.3370                 0.0000

                      4                      5                      6
                     A"                     A'                     A"
 Frequencies --    773.7009               775.2501               904.7904
 Red. masses --      1.2457                 1.4422                 1.2293
 Frc consts  --      0.4394                 0.5107                 0.5929
 IR Inten    --      0.0000                77.7742                 0.3048

                      7                      8                      9
                     A'                     A'                     A"
 Frequencies --   1020.4521              1139.6386              1398.2882
 Red. masses --      1.8691                 2.7205                 1.4717
 Frc consts  --      1.1468                 2.0818                 1.6954
 IR Inten    --      0.1577                 4.7389                10.3746

                     10                     11                     12
                     A'                     A"                     A"
 Frequencies --   1461.4284              1474.8511              3049.4360
 Red. masses --      1.2383                 2.8831                 1.0593
 Frc consts  --      1.5582                 3.6949                 5.8040
 IR Inten    --      1.5621                 0.0821                 5.5900

                     13                     14                     15
                     A'                     A"                     A'
 Frequencies --   3058.2853              3178.5058              3179.4180
 Red. masses --      1.0617                 1.1007                 1.1028
 Frc consts  --      5.8506                 6.5516                 6.5681
 IR Inten    --     14.9954                 0.4198                 3.5430

 - Thermochemistry -
 -------------------
 Temperature   298.150 Kelvin.  Pressure   1.00000 Atm.
 Atom     1 has atomic number  6 and mass  12.00000

 Molecular mass:    40.03130 amu.
 Principal axes and moments of inertia in atomic units:
                           1         2         3
     Eigenvalues --    17.92443 188.95031 206.87475
           X            0.00000   0.00002   1.00000
           Y            0.00000   1.00000  -0.00002
           Z            1.00000  -0.00000  -0.00000
 This molecule is an asymmetric top.
 Rotational symmetry number  1.
 Rotational temperatures (Kelvin)      4.83216     0.45839     0.41868
 Rotational constants (GHZ):         100.68610     9.55141     8.72384
 Zero-point vibrational energy     137038.4 (Joules/Mol)
                                   32.75296 (Kcal/Mol)
 Warning -- explicit consideration of   2 degrees of freedom as
           vibrations may cause significant error
 Vibrational temperatures:    440.18   639.34  1074.31  1113.18  1115.41
          (Kelvin)           1301.79  1468.20  1639.68  2011.82  2102.67
                             2121.98  4387.45  4400.18  4573.16  4574.47

 Zero-point correction=                           0.052195 (Hartree/Particle)
 Thermal correction to Energy=                    0.056104
 Thermal correction to Enthalpy=                  0.057048
 Thermal correction to Gibbs Free Energy=         0.026839
 Sum of electronic and zero-point Energies=           -116.572804
 Sum of electronic and thermal Energies=              -116.568895
 Sum of electronic and thermal Enthalpies=            -116.567951
 Sum of electronic and thermal Free Energies=         -116.598160

                     E (Thermal)             CV                S
                      KCal/Mol        Cal/Mol-Kelvin    Cal/Mol-Kelvin
 Total                   35.206             12.499             63.581
 Electronic               0.000              0.000              2.183
 Translational            0.889              2.981             36.989
 Rotational               0.889              2.981             21.177
 Vibrational             33.428              6.537              3.232
 Vibration     1          0.696              1.662              1.384
 Vibration     2          0.804              1.373              0.813

 Optimization completed.
    -- Stationary point found.
 Normal termination of Gaussian 09 at Tue Jul 19 18:12:48 2016.
