 Gaussian 09, Revision E.01,
 Gaussian 09:  EM64L-G09RevE.01 30-Nov-2015

 ------------------------------------------------------
 #p b3lyp/6-311++G(3df,2p) freq IOp(2/17=3) IOp(2/18=3)
 ------------------------------------------------------

 ---------
 b3lyp opt
 ---------
 Symbolic Z-matrix:
 Charge =  3 Multiplicity = 2

                         Standard orientation:
 ---------------------------------------------------------------------
 Center     Atomic      Atomic             Coordinates (Angstroms)
 Number     Number       Type             X           Y           Z
 ---------------------------------------------------------------------
      1          6           0        0.886678   -0.909544    0.000000
      2          1           0        0.405315   -1.924627    0.000000
      3          1           0        2.000208   -0.730045    0.000000
      4          6           0        0.000000    0.403629    0.000000
      5          1           0        0.212351    1.145663    0.947712
      6          1           0        0.212351    1.145663   -0.947712
      7          6           0       -1.358412    0.566488    0.000000
 ---------------------------------------------------------------------

 SCF Done:  E(UB3LYP) =  -114.669717223     A.U. after   17 cycles

 The electronic state is 2-A'.
 Alpha  occ. eigenvalues --  -11.29737 -11.11888 -11.08931  -1.69382  -1.50444
 Alpha  occ. eigenvalues --   -1.34466  -1.26695  -1.26443  -1.24106  -1.19377
 Alpha virt. eigenvalues --   -0.98652  -0.97466  -0.90407  -0.65109  -0.62272
 Alpha virt. eigenvalues --   -0.62132  -0.56520  -0.52510  -0.50038  -0.48118
 Alpha virt. eigenvalues --   -0.46515  -0.43404  -0.40934  -0.40639  -0.40259

  Beta  occ. eigenvalues --  -11.27565 -11.11877 -11.08649  -1.67230  -1.49547
  Beta  occ. eigenvalues --   -1.32105  -1.26374  -1.24546  -1.20054
  Beta virt. eigenvalues --   -1.03803  -0.95266  -0.94733  -0.89830  -0.64881
  Beta virt. eigenvalues --   -0.62087  -0.61025  -0.56229  -0.51869  -0.49882
  Beta virt. eigenvalues --   -0.47881  -0.46376  -0.41889  -0.40602  -0.39693

 Mulliken charges and spin densities:
               1          2
     1  C    0.341782   0.002155
     2  H    0.368665  -0.000853
     3  H    0.374716   0.015469
     4  C    0.199097   0.095192
     5  H    0.428083  -0.014161
     6  H    0.428083  -0.014161
     7  C    0.859574   0.916359
 Sum of Mulliken charges =   3.00000   1.00000

 Dipole moment (field-independent basis, Debye):
    X=             -0.3309    Y=              0.9937    Z=              0.0000  Tot=              1.0474
 Quadrupole moment (field-independent basis, Debye-Ang):
   XX=              6.2601   YY=              2.5684   ZZ=             -8.8612
   XY=             -8.6895   XZ=              0.0000   YZ=              0.0000

  Exact polarizability:  33.829  -6.230  25.601  -0.000  -0.000  18.172
 Approx polarizability:  68.839  -9.522  36.845   0.000   0.000  28.148

                      1                      2                      3
                     A"                     A'                     A"
 Frequencies --     78.4591               332.5312               469.0759
 Red. masses --      1.1270                 4.4343                 1.7652
 Frc consts  --      0.0041                 0.2889                 0.2288
 IR Inten    --      0.4233                 6.5571                86.5198

                      4                      5                      6
                     A'                     A"                     A'
 Frequencies --    675.8042               790.5164               807.3669
 Red. masses --      4.4626                 1.0230                 1.2869
 Frc consts  --      1.2008                 0.3767                 0.4942
 IR Inten    --     41.5310                 0.0066                24.2064

                      7                      8                      9
                     A'                     A'                     A'
 Frequencies --    909.4280               971.3989              1125.0770
 Red. masses --      1.2088                 1.2935                 2.3788
 Frc consts  --      0.5890                 0.7191                 1.7741
 IR Inten    --    121.5606                23.5495                70.8832

                     10                     11                     12
                     A"                     A'                     A"
 Frequencies --   1190.9090              1353.6273              1959.9046
 Red. masses --      1.3352                 1.2521                 1.0798
 Frc consts  --      1.1157                 1.3517                 2.4437
 IR Inten    --     14.7969                63.7069               737.2963

                     13                     14                     15
                     A'                     A'                     A'
 Frequencies --   2059.2481              2717.4333              2872.9540
 Red. masses --      1.0575                 1.0435                 1.1348
 Frc consts  --      2.6420                 4.5400                 5.5184
 IR Inten    --    668.0247               535.4977               338.0648

 - Thermochemistry -
 -------------------
 Temperature   298.150 Kelvin.  Pressure   1.00000 Atm.
 Atom     1 has atomic number  6 and mass  12.00000

 Molecular mass:    40.03130 amu.
 Principal axes and moments of inertia in atomic units:
                           1         2         3
     Eigenvalues --    33.25246 187.92480 208.24735
           X            0.80644   0.59132   0.00000
           Y           -0.59132   0.80644   0.00000
           Z           -0.00000   0.00000   1.00000
 This molecule is an asymmetric top.
 Rotational symmetry number  1.
 Rotational temperatures (Kelvin)      2.60473     0.46090     0.41592
 Rotational constants (GHZ):          54.27391     9.60353     8.66633
 Zero-point vibrational energy     109540.5 (Joules/Mol)
                                   26.18080 (Kcal/Mol)
 Warning -- explicit consideration of   3 degrees of freedom as
           vibrations may cause significant error
 Vibrational temperatures:    112.88   478.44   674.89   972.33  1137.38
          (Kelvin)           1161.62  1308.46  1397.62  1618.73  1713.45
                             1947.57  2819.86  2962.79  3909.78  4133.53

 Zero-point correction=                           0.041722 (Hartree/Particle)
 Thermal correction to Energy=                    0.046384
 Thermal correction to Enthalpy=                  0.047328
 Thermal correction to Gibbs Free Energy=         0.015403
 Sum of electronic and zero-point Energies=           -114.627995
 Sum of electronic and thermal Energies=              -114.623334
 Sum of electronic and thermal Enthalpies=            -114.622389
 Sum of electronic and thermal Free Energies=         -114.654314

                     E (Thermal)             CV                S
                      KCal/Mol        Cal/Mol-Kelvin    Cal/Mol-Kelvin
 Total                   29.106             14.551             67.191
 Electronic               0.000              0.000              1.377
 Translational            0.889              2.981             36.989
 Rotational               0.889              2.981             21.792
 Vibrational             27.329              8.590              7.033
 Vibration     1          0.600              1.964              3.929
 Vibration     2          0.714              1.611              1.248
 Vibration     3          0.826              1.319              0.740

 Optimization completed.
    -- Stationary point found.
 Normal termination of Gaussian 09 at Thu Jan 31 06:15:20 2019.
