 Gaussian 09, Revision E.01,
 Gaussian 09:  EM64L-G09RevE.01 30-Nov-2015

 ---------------------------------------------
 #p b3lyp/6-311++G(3df,2p) freq symmetry=Loose
 ---------------------------------------------

 ---------
 b3lyp opt
 ---------
 Symbolic Z-matrix:
 Charge =  0 Multiplicity = 3

                         Standard orientation:
 ---------------------------------------------------------------------
 Center     Atomic      Atomic             Coordinates (Angstroms)
 Number     Number       Type             X           Y           Z
 ---------------------------------------------------------------------
      1          6           0       -1.088971   -0.142678   -0.000027
      2          1           0       -1.624090    0.218803    0.881090
      3          1           0       -1.623595    0.220570   -0.880794
      4          1           0       -1.112907   -1.229797   -0.001182
      5          6           0        0.326137    0.381909    0.000441
      6          6           0        1.415058   -0.352392   -0.000124
      7          1           0        0.447255    1.469385   -0.000856
 ---------------------------------------------------------------------

 SCF Done:  E(UB3LYP) =  -116.549386790     A.U. after   17 cycles

 The electronic state is 3-A.
 Alpha  occ. eigenvalues --  -10.23305 -10.20501 -10.17897  -0.80863  -0.69780
 Alpha  occ. eigenvalues --   -0.53585  -0.44806  -0.42750  -0.40377  -0.36992
 Alpha  occ. eigenvalues --   -0.28920  -0.22020
 Alpha virt. eigenvalues --   -0.00712  -0.00377   0.01645   0.03169   0.03387
 Alpha virt. eigenvalues --    0.06140   0.07068   0.08293   0.08461   0.09104
 Alpha virt. eigenvalues --    0.11570   0.12538   0.12998   0.13745   0.14464

  Beta  occ. eigenvalues --  -10.20496 -10.20015 -10.17702  -0.78898  -0.67157
  Beta  occ. eigenvalues --   -0.50552  -0.42786  -0.42537  -0.38737  -0.26982
  Beta virt. eigenvalues --   -0.17426  -0.05074   0.00116   0.01361   0.01807
  Beta virt. eigenvalues --    0.03327   0.04010   0.06831   0.07487   0.08680
  Beta virt. eigenvalues --    0.08968   0.09190   0.11896   0.12875   0.13574

 Mulliken charges and spin densities:
               1          2
     1  C   -0.353471   0.082778
     2  H    0.141519  -0.001231
     3  H    0.141443  -0.001276
     4  H    0.147053   0.003461
     5  C    0.061275  -0.322850
     6  C   -0.274916   2.150819
     7  H    0.137097   0.088300
 Sum of Mulliken charges =  -0.00000   2.00000

 Dipole moment (field-independent basis, Debye):
    X=             -1.0412    Y=              0.3753    Z=              0.0012  Tot=              1.1067
 Quadrupole moment (field-independent basis, Debye-Ang):
   XX=            -19.5898   YY=            -18.5911   ZZ=            -20.3807
   XY=             -0.0887   XZ=              0.0030   YZ=             -0.0026

  Exact polarizability:  47.884  -4.090  36.123  -0.107   0.056  41.599
 Approx polarizability:  66.529 -11.888  51.498  -0.056   0.029  43.050

                      1                      2                      3
                      A                      A                      A
 Frequencies --    157.7722               464.4450               526.3915
 Red. masses --      1.3629                 3.3353                 1.3589
 Frc consts  --      0.0200                 0.4239                 0.2218
 IR Inten    --      4.0201                 1.9029                41.2493

                      4                      5                      6
                      A                      A                      A
 Frequencies --    914.0423               933.9814              1064.0487
 Red. masses --      2.2846                 1.2524                 1.8804
 Frc consts  --      1.1246                 0.6437                 1.2544
 IR Inten    --      1.8152                67.4301                 0.2916

                      7                      8                      9
                      A                      A                      A
 Frequencies --   1278.5683              1394.2871              1478.1209
 Red. masses --      1.1588                 1.2169                 1.0709
 Frc consts  --      1.1161                 1.3938                 1.3785
 IR Inten    --      1.1752                 1.2871                11.7151

                     10                     11                     12
                      A                      A                      A
 Frequencies --   1479.5298              1597.1028              3008.4466
 Red. masses --      1.0484                 7.6395                 1.0747
 Frc consts  --      1.3521                11.4811                 5.7306
 IR Inten    --      1.0234                33.1848                11.8685

                     13                     14                     15
                      A                      A                      A
 Frequencies --   3018.0611              3064.3942              3119.2566
 Red. masses --      1.0425                 1.0992                 1.0995
 Frc consts  --      5.5946                 6.0818                 6.3031
 IR Inten    --     17.7622                 2.6282                11.8721

 - Thermochemistry -
 -------------------
 Temperature   298.150 Kelvin.  Pressure   1.00000 Atm.
 Atom     1 has atomic number  6 and mass  12.00000

 Molecular mass:    40.03130 amu.
 Principal axes and moments of inertia in atomic units:
                           1         2         3
     Eigenvalues --    31.40966 169.72345 189.96091
           X            0.99949   0.03195  -0.00000
           Y           -0.03195   0.99949  -0.00023
           Z           -0.00001   0.00023   1.00000
 This molecule is an asymmetric top.
 Rotational symmetry number  1.
 Rotational temperatures (Kelvin)      2.75755     0.51032     0.45596
 Rotational constants (GHZ):          57.45815    10.63342     9.50059
 Zero-point vibrational energy     140551.9 (Joules/Mol)
                                   33.59272 (Kcal/Mol)
 Warning -- explicit consideration of   3 degrees of freedom as
           vibrations may cause significant error
 Vibrational temperatures:    227.00   668.23   757.36  1315.10  1343.79
          (Kelvin)           1530.93  1839.57  2006.07  2126.68  2128.71
                             2297.87  4328.48  4342.31  4408.97  4487.91

 Zero-point correction=                           0.053533 (Hartree/Particle)
 Thermal correction to Energy=                    0.057614
 Thermal correction to Enthalpy=                  0.058558
 Thermal correction to Gibbs Free Energy=         0.027652
 Sum of electronic and zero-point Energies=           -116.495853
 Sum of electronic and thermal Energies=              -116.491773
 Sum of electronic and thermal Enthalpies=            -116.490828
 Sum of electronic and thermal Free Energies=         -116.521735

                     E (Thermal)             CV                S
                      KCal/Mol        Cal/Mol-Kelvin    Cal/Mol-Kelvin
 Total                   36.153             12.107             65.048
 Electronic               0.000              0.000              2.183
 Translational            0.889              2.981             36.989
 Rotational               0.889              2.981             21.543
 Vibrational             34.376              6.145              4.333
 Vibration     1          0.621              1.894              2.576
 Vibration     2          0.822              1.329              0.753
 Vibration     3          0.881              1.192              0.595

 Normal termination of Gaussian 09 at Tue Jun 21 20:26:56 2016.
