 Gaussian 09, Revision E.01,
 Gaussian 09:  EM64L-G09RevE.01 30-Nov-2015

 ---------------------------------------------
 #p b3lyp/6-311++G(3df,2p) freq symmetry=Loose
 ---------------------------------------------

 ---------
 b3lyp opt
 ---------
 Symbolic Z-matrix:
 Charge =  3 Multiplicity = 4

                         Standard orientation:
 ---------------------------------------------------------------------
 Center     Atomic      Atomic             Coordinates (Angstroms)
 Number     Number       Type             X           Y           Z
 ---------------------------------------------------------------------
      1          6           0        1.322950   -0.577251   -0.000879
      2          6           0        0.238504    0.354897    0.000440
      3          6           0       -1.153191   -0.162068   -0.000045
      4          1           0        0.488547    1.567568    0.523066
      5          1           0        0.487683    1.569017   -0.519784
      6          1           0       -1.711187   -0.419436    0.972421
      7          1           0       -1.714620   -0.410621   -0.972799
 ---------------------------------------------------------------------

 SCF Done:  E(UB3LYP) =  -114.583506201     A.U. after   16 cycles

 The electronic state is 4-A.
 Alpha  occ. eigenvalues --  -11.18357 -11.14975 -11.11131  -1.67871  -1.50541
 Alpha  occ. eigenvalues --   -1.42834  -1.28795  -1.25018  -1.20541  -1.14364
 Alpha  occ. eigenvalues --   -1.07811
 Alpha virt. eigenvalues --   -0.93477  -0.91383  -0.75824  -0.68024  -0.59424
 Alpha virt. eigenvalues --   -0.56092  -0.54242  -0.51447  -0.49076  -0.46677
 Alpha virt. eigenvalues --   -0.45585  -0.43703  -0.41399  -0.40182  -0.37498

  Beta  occ. eigenvalues --  -11.14160 -11.13858 -11.10849  -1.63188  -1.46350
  Beta  occ. eigenvalues --   -1.38684  -1.26517  -1.21239
  Beta virt. eigenvalues --   -1.01811  -0.96170  -0.93144  -0.84590  -0.82155
  Beta virt. eigenvalues --   -0.72232  -0.64278  -0.57720  -0.54353  -0.51563
  Beta virt. eigenvalues --   -0.49603  -0.47655  -0.44587  -0.44032  -0.42144

 Mulliken charges and spin densities:
               1          2
     1  C    0.806610   1.972233
     2  C    0.361407   0.611781
     3  C    0.398063   0.137835
     4  H    0.337254   0.079136
     5  H    0.337360   0.079751
     6  H    0.379663   0.059628
     7  H    0.379641   0.059637
 Sum of Mulliken charges =   3.00000   3.00000

 Dipole moment (field-independent basis, Debye):
    X=             -0.3541    Y=              2.5657    Z=              0.0030  Tot=              2.5900
 Quadrupole moment (field-independent basis, Debye-Ang):
   XX=              8.8192   YY=             -0.0300   ZZ=             -8.5661
   XY=              2.0426   XZ=              0.0060   YZ=              0.0000

  Exact polarizability:  39.717   0.031  25.125   0.002  -0.003  18.374
 Approx polarizability:  71.031  -6.789  40.875  -0.010   0.006  26.062

                      1                      2                      3
                      A                      A                      A
 Frequencies --    163.7840               291.4972               534.7753
 Red. masses --      1.0319                 4.2739                 1.4532
 Frc consts  --      0.0163                 0.2140                 0.2449
 IR Inten    --     22.7573                13.1022                98.9388

                      4                      5                      6
                      A                      A                      A
 Frequencies --    598.0046               723.3878               809.0550
 Red. masses --      1.0634                 1.9673                 1.5419
 Frc consts  --      0.2241                 0.6065                 0.5946
 IR Inten    --     23.3299               106.5076               163.6391

                      7                      8                      9
                      A                      A                      A
 Frequencies --    820.7939               965.5364               993.7490
 Red. masses --      1.5787                 1.7742                 1.0208
 Frc consts  --      0.6266                 0.9745                 0.5939
 IR Inten    --      4.5678                62.0683               281.1692

                     10                     11                     12
                      A                      A                      A
 Frequencies --   1099.0330              1190.6131              1349.9604
 Red. masses --      1.4555                 1.1157                 2.8046
 Frc consts  --      1.0358                 0.9318                 3.0114
 IR Inten    --     45.3848               247.1613               117.3317

                     13                     14                     15
                      A                      A                      A
 Frequencies --   1955.3011              2466.0157              2545.9430
 Red. masses --      1.0454                 1.0354                 1.1147
 Frc consts  --      2.3548                 3.7097                 4.2568
 IR Inten    --    412.6016               959.9492               508.6411

 - Thermochemistry -
 -------------------
 Temperature   298.150 Kelvin.  Pressure   1.00000 Atm.
 Atom     1 has atomic number  6 and mass  12.00000

 Molecular mass:    40.03130 amu.
 Principal axes and moments of inertia in atomic units:
                           1         2         3
     Eigenvalues --    47.20551 166.33930 196.01244
           X            0.99647   0.08395   0.00011
           Y           -0.08395   0.99647  -0.00041
           Z           -0.00015   0.00040   1.00000
 This molecule is an asymmetric top.
 Rotational symmetry number  1.
 Rotational temperatures (Kelvin)      1.83482     0.52071     0.44188
 Rotational constants (GHZ):          38.23158    10.84976     9.20728
 Zero-point vibrational energy      98736.5 (Joules/Mol)
                                   23.59858 (Kcal/Mol)
 Warning -- explicit consideration of   4 degrees of freedom as
           vibrations may cause significant error
 Vibrational temperatures:    235.65   419.40   769.42   860.39  1040.79
          (Kelvin)           1164.05  1180.94  1389.19  1429.78  1581.26
                             1713.02  1942.29  2813.24  3548.04  3663.04

 Zero-point correction=                           0.037607 (Hartree/Particle)
 Thermal correction to Energy=                    0.042235
 Thermal correction to Enthalpy=                  0.043179
 Thermal correction to Gibbs Free Energy=         0.011009
 Sum of electronic and zero-point Energies=           -114.545899
 Sum of electronic and thermal Energies=              -114.541271
 Sum of electronic and thermal Enthalpies=            -114.540327
 Sum of electronic and thermal Free Energies=         -114.572497

                     E (Thermal)             CV                S
                      KCal/Mol        Cal/Mol-Kelvin    Cal/Mol-Kelvin
 Total                   26.503             15.221             67.707
 Electronic               0.000              0.000              2.755
 Translational            0.889              2.981             36.989
 Rotational               0.889              2.981             21.958
 Vibrational             24.725              9.259              6.004
 Vibration     1          0.623              1.887              2.506
 Vibration     2          0.687              1.690              1.465
 Vibration     3          0.890              1.173              0.577
 Vibration     4          0.956              1.036              0.453

 Normal termination of Gaussian 09 at Tue Jun 21 20:56:53 2016.
