 Gaussian 09, Revision E.01,
 Gaussian 09:  EM64L-G09RevE.01 30-Nov-2015

 ---------------------------------------------
 #p b3lyp/6-311++G(3df,2p) freq symmetry=Loose
 ---------------------------------------------

 ---------
 b3lyp opt
 ---------
 Symbolic Z-matrix:
 Charge =  3 Multiplicity = 2

                         Standard orientation:
 ---------------------------------------------------------------------
 Center     Atomic      Atomic             Coordinates (Angstroms)
 Number     Number       Type             X           Y           Z
 ---------------------------------------------------------------------
      1          6           0        0.093026    0.326342   -0.000155
      2          6           0        1.359154   -0.198801   -0.000124
      3          6           0       -1.272752   -0.174268    0.000048
      4          1           0        0.148936    1.518049    0.000236
      5          1           0        2.459315   -0.557486    0.000869
      6          1           0       -1.842310   -0.340316   -0.984398
      7          1           0       -1.842507   -0.339881    0.984679
 ---------------------------------------------------------------------

 SCF Done:  E(UB3LYP) =  -114.781364843     A.U. after   13 cycles

 The electronic state is 2-A.
 Alpha  occ. eigenvalues --  -11.20147 -11.11937 -11.11753  -1.67729  -1.53124
 Alpha  occ. eigenvalues --   -1.36163  -1.29431  -1.26448  -1.24417  -1.14941
 Alpha virt. eigenvalues --   -0.95731  -0.92316  -0.86920  -0.66076  -0.59440
 Alpha virt. eigenvalues --   -0.58000  -0.52125  -0.52062  -0.49405  -0.45749
 Alpha virt. eigenvalues --   -0.45477  -0.45088  -0.44673  -0.42084  -0.38488

  Beta  occ. eigenvalues --  -11.19034 -11.11718 -11.11428  -1.64962  -1.51581
  Beta  occ. eigenvalues --   -1.34795  -1.28796  -1.25898  -1.22045
  Beta virt. eigenvalues --   -1.01655  -0.94407  -0.92169  -0.80234  -0.64430
  Beta virt. eigenvalues --   -0.59094  -0.57458  -0.51744  -0.51424  -0.48692
  Beta virt. eigenvalues --   -0.45584  -0.44489  -0.44452  -0.44414  -0.41566

 Mulliken charges and spin densities:
               1          2
     1  C    0.256482   0.344933
     2  C    0.736909   0.580358
     3  C    0.301738   0.032576
     4  H    0.375569  -0.011714
     5  H    0.548120  -0.015881
     6  H    0.390579   0.034866
     7  H    0.390603   0.034861
 Sum of Mulliken charges =   3.00000   1.00000

 Dipole moment (field-independent basis, Debye):
    X=              0.8842    Y=             -0.0462    Z=              0.0016  Tot=              0.8854
 Quadrupole moment (field-independent basis, Debye-Ang):
   XX=             21.5279   YY=             -6.1553   ZZ=             -9.8889
   XY=             -0.6919   XZ=              0.0013   YZ=              0.0001

  Exact polarizability:  40.604  -0.218  19.152  -0.002   0.000  16.503
 Approx polarizability:  62.176  -1.544  29.906  -0.006   0.001  22.526

                      1                      2                      3
                      A                      A                      A
 Frequencies --    346.7618               414.6606               579.6606
 Red. masses --      2.5180                 1.2966                 1.1831
 Frc consts  --      0.1784                 0.1314                 0.2342
 IR Inten    --     29.5478                25.0863                78.6465

                      4                      5                      6
                      A                      A                      A
 Frequencies --    662.5137               778.4564               809.6041
 Red. masses --      1.1295                 1.2011                 3.6169
 Frc consts  --      0.2921                 0.4289                 1.3968
 IR Inten    --     23.6044                27.0139                33.3363

                      7                      8                      9
                      A                      A                      A
 Frequencies --    871.8900              1014.1677              1127.2314
 Red. masses --      1.6621                 1.5760                 1.4260
 Frc consts  --      0.7444                 0.9551                 1.0675
 IR Inten    --      3.4088                 4.1592                35.9111

                     10                     11                     12
                      A                      A                      A
 Frequencies --   1174.8913              1434.9904              2182.7740
 Red. masses --      1.0915                 4.2327                 1.0718
 Frc consts  --      0.8877                 5.1353                 3.0087
 IR Inten    --    127.0825               274.4694               813.3391

                     13                     14                     15
                      A                      A                      A
 Frequencies --   2486.2837              2566.4805              2579.7059
 Red. masses --      1.0501                 1.1228                 1.1195
 Frc consts  --      3.8247                 4.3573                 4.3894
 IR Inten    --   1468.0235               301.6074               544.1142

 - Thermochemistry -
 -------------------
 Temperature   298.150 Kelvin.  Pressure   1.00000 Atm.
 Atom     1 has atomic number  6 and mass  12.00000

 Molecular mass:    40.03130 amu.
 Principal axes and moments of inertia in atomic units:
                           1         2         3
     Eigenvalues --    24.77330 202.10691 212.92589
           X            1.00000   0.00201   0.00003
           Y           -0.00201   1.00000   0.00007
           Z           -0.00003  -0.00007   1.00000
 This molecule is an asymmetric top.
 Rotational symmetry number  1.
 Rotational temperatures (Kelvin)      3.49626     0.42855     0.40678
 Rotational constants (GHZ):          72.85026     8.92964     8.47591
 Zero-point vibrational energy     113825.1 (Joules/Mol)
                                   27.20485 (Kcal/Mol)
 Warning -- explicit consideration of   3 degrees of freedom as
           vibrations may cause significant error
 Vibrational temperatures:    498.91   596.60   834.00   953.21  1120.02
          (Kelvin)           1164.84  1254.45  1459.16  1621.83  1690.40
                             2064.63  3140.52  3577.20  3692.59  3711.62

 Zero-point correction=                           0.043354 (Hartree/Particle)
 Thermal correction to Energy=                    0.047450
 Thermal correction to Enthalpy=                  0.048394
 Thermal correction to Gibbs Free Energy=         0.018138
 Sum of electronic and zero-point Energies=           -114.738011
 Sum of electronic and thermal Energies=              -114.733915
 Sum of electronic and thermal Enthalpies=            -114.732971
 Sum of electronic and thermal Free Energies=         -114.763227

                     E (Thermal)             CV                S
                      KCal/Mol        Cal/Mol-Kelvin    Cal/Mol-Kelvin
 Total                   29.775             13.767             63.679
 Electronic               0.000              0.000              1.377
 Translational            0.889              2.981             36.989
 Rotational               0.889              2.981             21.594
 Vibrational             27.998              7.805              3.719
 Vibration     1          0.725              1.582              1.181
 Vibration     2          0.778              1.438              0.910
 Vibration     3          0.936              1.075              0.486

 Optimization completed.
    -- Stationary point found.
 Normal termination of Gaussian 09 at Tue Jun 21 20:50:16 2016.
