 Gaussian 09, Revision E.01,
 Gaussian 09:  EM64L-G09RevE.01 30-Nov-2015

 ---------------------------------------------
 #p b3lyp/6-311++G(3df,2p) freq symmetry=Loose
 ---------------------------------------------

 ---------
 b3lyp opt
 ---------
 Symbolic Z-matrix:
 Charge =  0 Multiplicity = 1

                         Standard orientation:
 ---------------------------------------------------------------------
 Center     Atomic      Atomic             Coordinates (Angstroms)
 Number     Number       Type             X           Y           Z
 ---------------------------------------------------------------------
      1          6           0        0.000000    0.000000    1.300094
      2          1           0       -0.000000    0.925071    1.863643
      3          1           0       -0.000000   -0.925071    1.863643
      4          6           0        0.000000    0.000000    0.000000
      5          6           0        0.000000    0.000000   -1.300094
      6          1           0        0.925071   -0.000000   -1.863643
      7          1           0       -0.925071    0.000000   -1.863643
 ---------------------------------------------------------------------

 SCF Done:  E(RB3LYP) =  -116.703985044     A.U. after    9 cycles

 The electronic state is 1-A1.
 Alpha  occ. eigenvalues --  -10.19700 -10.17849 -10.17837  -0.79898  -0.71213
 Alpha  occ. eigenvalues --   -0.52918  -0.46179  -0.45064  -0.45064  -0.27656
 Alpha  occ. eigenvalues --   -0.27656
 Alpha virt. eigenvalues --   -0.00476  -0.00476  -0.00448   0.01643   0.03766
 Alpha virt. eigenvalues --    0.03766   0.05986   0.08354   0.08354   0.08934
 Alpha virt. eigenvalues --    0.11700   0.12135   0.14322   0.14322   0.15699

 Mulliken charges:
               1
     1  C   -0.598575
     2  H    0.167185
     3  H    0.167185
     4  C    0.528412
     5  C   -0.598575
     6  H    0.167185
     7  H    0.167185
 Sum of Mulliken charges =  -0.00000

 Dipole moment (field-independent basis, Debye):
    X=              0.0000    Y=             -0.0000    Z=              0.0000  Tot=              0.0000
 Quadrupole moment (field-independent basis, Debye-Ang):
   XX=            -19.6424   YY=            -19.6424   ZZ=            -15.8490
   XY=              0.0000   XZ=              0.0000   YZ=             -0.0000

  Exact polarizability:  29.064  -0.000  29.064  -0.000   0.000  63.512
 Approx polarizability:  39.266  -0.000  39.266   0.000   0.000  99.180

                      1                      2                      3
                      E                      E                      E
 Frequencies --    371.9188               371.9188               874.2886
 Red. masses --      2.5097                 2.5097                 1.3067
 Frc consts  --      0.2045                 0.2045                 0.5885
 IR Inten    --      7.4606                 7.4606                56.9472

                      4                      5                      6
                      E                     B1                      E
 Frequencies --    874.2886               882.1019              1018.7882
 Red. masses --      1.3067                 1.0078                 1.5297
 Frc consts  --      0.5885                 0.4620                 0.9355
 IR Inten    --     56.9472                 0.0000                 1.0744

                      7                      8                      9
                      E                     A1                     B2
 Frequencies --   1018.7882              1110.4488              1428.2068
 Red. masses --      1.5297                 2.4438                 1.0801
 Frc consts  --      0.9355                 1.7755                 1.2980
 IR Inten    --      1.0744                 0.0000                 3.9948

                     10                     11                     12
                     A1                     B2                     B2
 Frequencies --   1484.2058              2041.7931              3118.1557
 Red. masses --      1.4013                 9.4852                 1.0582
 Frc consts  --      1.8188                23.2982                 6.0621
 IR Inten    --      0.0000                90.9843                 1.8274

                     13                     14                     15
                     A1                      E                      E
 Frequencies --   3122.3540              3191.4468              3191.4468
 Red. masses --      1.0582                 1.1147                 1.1147
 Frc consts  --      6.0783                 6.6892                 6.6892
 IR Inten    --      0.0000                 0.6517                 0.6517

 - Thermochemistry -
 -------------------
 Temperature   298.150 Kelvin.  Pressure   1.00000 Atm.
 Atom     1 has atomic number  6 and mass  12.00000

 Molecular mass:    40.03130 amu.
 Principal axes and moments of inertia in atomic units:
                           1         2         3
     Eigenvalues --    12.31950 201.02276 201.02276
           X           -0.00000   0.58449   0.81140
           Y           -0.00000   0.81140  -0.58449
           Z            1.00000   0.00000   0.00000
 This molecule is a prolate symmetric top.
 Rotational symmetry number  4.
 Rotational temperatures (Kelvin)      7.03063     0.43087     0.43087
 Rotational constants (GHZ):         146.49470     8.97780     8.97780
 Zero-point vibrational energy     144150.9 (Joules/Mol)
                                   34.45290 (Kcal/Mol)
 Warning -- explicit consideration of   2 degrees of freedom as
           vibrations may cause significant error
 Vibrational temperatures:    535.11   535.11  1257.90  1257.90  1269.15
          (Kelvin)           1465.81  1465.81  1597.69  2054.87  2135.44
                             2937.68  4486.32  4492.37  4591.77  4591.77

 Zero-point correction=                           0.054904 (Hartree/Particle)
 Thermal correction to Energy=                    0.058694
 Thermal correction to Enthalpy=                  0.059638
 Thermal correction to Gibbs Free Energy=         0.032110
 Sum of electronic and zero-point Energies=           -116.649081
 Sum of electronic and thermal Energies=              -116.645291
 Sum of electronic and thermal Enthalpies=            -116.644347
 Sum of electronic and thermal Free Energies=         -116.671875

                     E (Thermal)             CV                S
                      KCal/Mol        Cal/Mol-Kelvin    Cal/Mol-Kelvin
 Total                   36.831             11.790             57.937
 Electronic               0.000              0.000              0.000
 Translational            0.889              2.981             36.989
 Rotational               0.889              2.981             18.082
 Vibrational             35.053              5.828              2.866
 Vibration     1          0.744              1.530              1.072
 Vibration     2          0.744              1.530              1.072

 Optimization completed.
    -- Stationary point found.
 Normal termination of Gaussian 09 at Tue Jul 19 18:06:15 2016.
