 Gaussian 09, Revision E.01,
 Gaussian 09:  EM64L-G09RevE.01 30-Nov-2015

 ---------------------------------------------
 #p b3lyp/6-311++G(3df,2p) freq symmetry=Loose
 ---------------------------------------------

 ---------
 b3lyp opt
 ---------
 Symbolic Z-matrix:
 Charge =  2 Multiplicity = 3

                         Standard orientation:
 ---------------------------------------------------------------------
 Center     Atomic      Atomic             Coordinates (Angstroms)
 Number     Number       Type             X           Y           Z
 ---------------------------------------------------------------------
      1          6           0       -1.707345    0.194178   -0.000037
      2          1           0       -2.619324   -0.405363    0.000606
      3          1           0       -1.803635    1.279166   -0.000628
      4          6           0       -0.454174   -0.472649   -0.000034
      5          1           0       -0.406030   -1.560469   -0.000139
      6          6           0        2.038496   -0.088272   -0.000075
      7          6           0        0.781085    0.250903    0.000102
      8          1           0        0.880617    1.381707    0.000424
 ---------------------------------------------------------------------

 SCF Done:  E(UB3LYP) =  -153.746415710     A.U. after   17 cycles

 The electronic state is 3-A.
 Alpha  occ. eigenvalues --  -10.87840 -10.74314 -10.73273 -10.71811  -1.36418
 Alpha  occ. eigenvalues --   -1.27448  -1.11652  -1.03208  -0.96190  -0.94638
 Alpha  occ. eigenvalues --   -0.89458  -0.87544  -0.86083  -0.78197
 Alpha virt. eigenvalues --   -0.64573  -0.56792  -0.44521  -0.34903  -0.32046
 Alpha virt. eigenvalues --   -0.30666  -0.28099  -0.26174  -0.25355  -0.23961
 Alpha virt. eigenvalues --   -0.22956  -0.22302  -0.21364  -0.20271  -0.19885

  Beta  occ. eigenvalues --  -10.85013 -10.74324 -10.72628 -10.71254  -1.34204
  Beta  occ. eigenvalues --   -1.24223  -1.09778  -1.01858  -0.95532  -0.90508
  Beta  occ. eigenvalues --   -0.85719  -0.83760
  Beta virt. eigenvalues --   -0.70168  -0.66261  -0.60273  -0.51264  -0.40935
  Beta virt. eigenvalues --   -0.34808  -0.31672  -0.30179  -0.27906  -0.25868
  Beta virt. eigenvalues --   -0.24543  -0.23247  -0.22587  -0.21745  -0.20707

 Mulliken charges and spin densities:
               1          2
     1  C   -0.152770   0.356189
     2  H    0.285783  -0.005521
     3  H    0.263037  -0.009013
     4  C    0.374826   0.430368
     5  H    0.261137  -0.012022
     6  C    0.278470   1.330607
     7  C    0.425945  -0.087005
     8  H    0.263572  -0.003602
 Sum of Mulliken charges =   2.00000   2.00000

 Dipole moment (field-independent basis, Debye):
    X=              1.2391    Y=              0.6632    Z=              0.0000  Tot=              1.4054
 Quadrupole moment (field-independent basis, Debye-Ang):
   XX=             11.0911   YY=            -11.6922   ZZ=            -20.5720
   XY=              0.2398   XZ=             -0.0007   YZ=              0.0007

  Exact polarizability:  67.102  -1.587  30.731   0.000  -0.000  21.899
 Approx polarizability: 116.660  -6.864  46.281  -0.002   0.002  30.217

                      1                      2                      3
                      A                      A                      A
 Frequencies --    178.7785               239.1180               251.7279
 Red. masses --      2.2374                 5.3509                 1.2585
 Frc consts  --      0.0421                 0.1803                 0.0470
 IR Inten    --      4.1286                 7.8744                 0.0016

                      4                      5                      6
                      A                      A                      A
 Frequencies --    411.3142               642.6444               850.5246
 Red. masses --      2.7536                 1.5614                 1.3807
 Frc consts  --      0.2745                 0.3799                 0.5885
 IR Inten    --      3.0746                31.2499                20.0309

                      7                      8                      9
                      A                      A                      A
 Frequencies --    883.7523               925.5203              1115.0808
 Red. masses --      2.4466                 1.1677                 1.3924
 Frc consts  --      1.1259                 0.5893                 1.0201
 IR Inten    --     20.4811                 2.0469                 8.0021

                     10                     11                     12
                      A                      A                      A
 Frequencies --   1140.5001              1260.1523              1408.4433
 Red. masses --      1.8187                 1.9727                 1.5093
 Frc consts  --      1.3938                 1.8457                 1.7640
 IR Inten    --      7.2093                58.7784                52.2071

                     13                     14                     15
                      A                      A                      A
 Frequencies --   1483.3124              1504.6859              2709.8532
 Red. masses --      4.0643                 1.6369                 1.0738
 Frc consts  --      5.2687                 2.1836                 4.6458
 IR Inten    --     67.4043                11.9477               255.4474

                     16                     17                     18
                      A                      A                      A
 Frequencies --   3078.2036              3137.2095              3194.0635
 Red. masses --      1.0561                 1.0945                 1.1246
 Frc consts  --      5.8957                 6.3467                 6.7600
 IR Inten    --    112.8690                65.3423                81.2271

 - Thermochemistry -
 -------------------
 Temperature   298.150 Kelvin.  Pressure   1.00000 Atm.
 Atom     1 has atomic number  6 and mass  12.00000

 Molecular mass:    52.03130 amu.
 Principal axes and moments of inertia in atomic units:
                           1         2         3
     Eigenvalues --    36.29170 376.71641 413.00810
           X            0.99998   0.00575  -0.00000
           Y           -0.00575   0.99998  -0.00002
           Z            0.00000   0.00002   1.00000
 This molecule is an asymmetric top.
 Rotational symmetry number  1.
 Rotational temperatures (Kelvin)      2.38660     0.22992     0.20971
 Rotational constants (GHZ):          49.72876     4.79072     4.36975
 Zero-point vibrational energy     146033.4 (Joules/Mol)
                                   34.90283 (Kcal/Mol)
 Warning -- explicit consideration of   4 degrees of freedom as
           vibrations may cause significant error
 Vibrational temperatures:    257.22   344.04   362.18   591.79   924.62
          (Kelvin)           1223.71  1271.52  1331.62  1604.35  1640.92
                             1813.08  2026.43  2134.15  2164.90  3898.87
                             4428.84  4513.74  4595.54

 Zero-point correction=                           0.055621 (Hartree/Particle)
 Thermal correction to Energy=                    0.060718
 Thermal correction to Enthalpy=                  0.061662
 Thermal correction to Gibbs Free Energy=         0.027924
 Sum of electronic and zero-point Energies=           -153.690795
 Sum of electronic and thermal Energies=              -153.685698
 Sum of electronic and thermal Enthalpies=            -153.684754
 Sum of electronic and thermal Free Energies=         -153.718492

                     E (Thermal)             CV                S
                      KCal/Mol        Cal/Mol-Kelvin    Cal/Mol-Kelvin
 Total                   38.101             16.259             71.007
 Electronic               0.000              0.000              2.183
 Translational            0.889              2.981             37.771
 Rotational               0.889              2.981             23.250
 Vibrational             36.323             10.297              7.803
 Vibration     1          0.629              1.868              2.341
 Vibration     2          0.657              1.781              1.809
 Vibration     3          0.664              1.760              1.718
 Vibration     4          0.775              1.446              0.922

 Optimization completed.
    -- Stationary point found.
 Normal termination of Gaussian 09 at Tue Jun 21 23:28:46 2016.
