 Gaussian 09, Revision E.01,
 Gaussian 09:  EM64L-G09RevE.01 30-Nov-2015

 ---------------------------------------------
 #p b3lyp/6-311++G(3df,2p) freq symmetry=Loose
 ---------------------------------------------

 ---------
 b3lyp opt
 ---------
 Symbolic Z-matrix:
 Charge =  1 Multiplicity = 2

                         Standard orientation:
 ---------------------------------------------------------------------
 Center     Atomic      Atomic             Coordinates (Angstroms)
 Number     Number       Type             X           Y           Z
 ---------------------------------------------------------------------
      1          6           0        0.125459   -0.838237   -0.383555
      2          1           0        0.242401   -1.621686   -1.114239
      3          6           0       -0.838417   -0.125432    0.383510
      4          1           0       -1.622129   -0.242413    1.114290
      5          6           0       -0.125422    0.838284   -0.383424
      6          1           0       -0.242490    1.621624   -1.114576
      7          6           0        0.838448    0.125403    0.383444
      8          1           0        1.621809    0.242366    1.114674
 ---------------------------------------------------------------------

 SCF Done:  E(UB3LYP) =  -154.401514097     A.U. after   11 cycles

 The electronic state is 2-A.
 Alpha  occ. eigenvalues --  -10.48907 -10.48858 -10.48855 -10.48821  -1.26449
 Alpha  occ. eigenvalues --   -0.89091  -0.89087  -0.84145  -0.79014  -0.68702
 Alpha  occ. eigenvalues --   -0.68697  -0.62766  -0.59994  -0.44652
 Alpha virt. eigenvalues --   -0.22638  -0.22625  -0.15584  -0.14402  -0.13223
 Alpha virt. eigenvalues --   -0.13222  -0.10288  -0.09217  -0.08588  -0.08586
 Alpha virt. eigenvalues --   -0.07237  -0.07007  -0.05431  -0.05075  -0.02724

  Beta  occ. eigenvalues --  -10.48513 -10.48464 -10.48461 -10.48422  -1.25467
  Beta  occ. eigenvalues --   -0.87746  -0.87743  -0.82379  -0.78402  -0.67924
  Beta  occ. eigenvalues --   -0.67919  -0.60307  -0.59217
  Beta virt. eigenvalues --   -0.35093  -0.20370  -0.20359  -0.15009  -0.14312
  Beta virt. eigenvalues --   -0.12614  -0.12613  -0.09922  -0.09073  -0.08427
  Beta virt. eigenvalues --   -0.08426  -0.07113  -0.06993  -0.04875  -0.04190

 Mulliken charges and spin densities:
               1          2
     1  C   -0.051241   0.252152
     2  H    0.301551  -0.002295
     3  C   -0.051409   0.252427
     4  H    0.301477  -0.002285
     5  C   -0.051483   0.252131
     6  H    0.301398  -0.002267
     7  C   -0.051685   0.252395
     8  H    0.301393  -0.002258
 Sum of Mulliken charges =   1.00000   1.00000

 Dipole moment (field-independent basis, Debye):
    X=             -0.0003    Y=              0.0001    Z=              0.0004  Tot=              0.0005
 Quadrupole moment (field-independent basis, Debye-Ang):
   XX=            -16.3113   YY=            -16.3156   ZZ=            -17.0060
   XY=              0.0001   XZ=              0.0003   YZ=             -0.0004

  Exact polarizability:  35.965  -0.001  35.952   0.001  -0.001  30.885
 Approx polarizability:  59.014   0.002  58.987  -0.003   0.001  45.005

                      1                      2                      3
                      A                      A                      A
 Frequencies --    489.5157               617.6653               650.7866
 Red. masses --     11.6117                 8.0819                 1.0466
 Frc consts  --      1.6394                 1.8166                 0.2612
 IR Inten    --      0.0000                13.7389                46.0838

                      4                      5                      6
                      A                      A                      A
 Frequencies --    705.5901               761.1222               767.9301
 Red. masses --     11.3934                 1.0119                 1.2785
 Frc consts  --      3.3420                 0.3454                 0.4442
 IR Inten    --      0.0002                 0.1891                45.6273

                      7                      8                      9
                      A                      A                      A
 Frequencies --    768.2977               933.0700              1001.5166
 Red. masses --      1.2797                 1.0124                 1.2401
 Frc consts  --      0.4451                 0.5193                 0.7329
 IR Inten    --     45.8880                 0.0004                23.6268

                     10                     11                     12
                      A                      A                      A
 Frequencies --   1001.8149              1048.3997              1307.5877
 Red. masses --      1.2402                 1.2905                 4.5146
 Frc consts  --      0.7334                 0.8357                 4.5479
 IR Inten    --     23.7011                 0.0011                 3.2865

                     13                     14                     15
                      A                      A                      A
 Frequencies --   1307.7804              1446.6565              3247.8820
 Red. masses --      4.5160                 5.1599                 1.0896
 Frc consts  --      4.5507                 6.3625                 6.7719
 IR Inten    --      3.2784                 0.0000               101.1695

                     16                     17                     18
                      A                      A                      A
 Frequencies --   3250.7364              3252.2959              3281.0158
 Red. masses --      1.1018                 1.1014                 1.1337
 Frc consts  --      6.8598                 6.8639                 7.1903
 IR Inten    --    113.7385               113.0995                 0.1505

 - Thermochemistry -
 -------------------
 Temperature   298.150 Kelvin.  Pressure   1.00000 Atm.
 Atom     1 has atomic number  6 and mass  12.00000

 Molecular mass:    52.03130 amu.
 Principal axes and moments of inertia in atomic units:
                           1         2         3
     Eigenvalues --   124.01107 124.04380 161.88026
           X            1.00000  -0.00312   0.00004
           Y            0.00312   1.00000  -0.00004
           Z           -0.00004   0.00004   1.00000
 This molecule is an asymmetric top.
 Rotational symmetry number  1.
 Rotational temperatures (Kelvin)      0.69844     0.69825     0.53505
 Rotational constants (GHZ):          14.55306    14.54923    11.14862
 Zero-point vibrational energy     154555.5 (Joules/Mol)
                                   36.93965 (Kcal/Mol)
 Warning -- explicit consideration of   2 degrees of freedom as
           vibrations may cause significant error
 Vibrational temperatures:    704.30   888.68   936.34  1015.19  1095.08
          (Kelvin)           1104.88  1105.41  1342.48  1440.96  1441.39
                             1508.41  1881.32  1881.60  2081.41  4672.97
                             4677.08  4679.32  4720.64

 Zero-point correction=                           0.058867 (Hartree/Particle)
 Thermal correction to Energy=                    0.062772
 Thermal correction to Enthalpy=                  0.063717
 Thermal correction to Gibbs Free Energy=         0.033060
 Sum of electronic and zero-point Energies=           -154.342647
 Sum of electronic and thermal Energies=              -154.338742
 Sum of electronic and thermal Enthalpies=            -154.337797
 Sum of electronic and thermal Free Energies=         -154.368455

                     E (Thermal)             CV                S
                      KCal/Mol        Cal/Mol-Kelvin    Cal/Mol-Kelvin
 Total                   39.390             14.014             64.523
 Electronic               0.000              0.000              1.377
 Translational            0.889              2.981             37.771
 Rotational               0.889              2.981             22.437
 Vibrational             37.613              8.053              2.939
 Vibration     1          0.845              1.273              0.685
 Vibration     2          0.977              0.995              0.420

 Optimization completed.
    -- Stationary point found.
 Normal termination of Gaussian 09 at Tue Jun 21 22:07:00 2016.
