 Gaussian 09, Revision E.01,
 Gaussian 09:  EM64L-G09RevE.01 30-Nov-2015

 ---------------------------------------------
 #p b3lyp/6-311++G(3df,2p) freq symmetry=Loose
 ---------------------------------------------

 ---------
 b3lyp opt
 ---------
 Symbolic Z-matrix:
 Charge =  3 Multiplicity = 2

                         Standard orientation:
 ---------------------------------------------------------------------
 Center     Atomic      Atomic             Coordinates (Angstroms)
 Number     Number       Type             X           Y           Z
 ---------------------------------------------------------------------
      1          6           0       -1.796251   -0.282597   -0.023062
      2          1           0       -2.861393   -0.663033   -0.018756
      3          6           0       -0.626781    0.328450   -0.099430
      4          1           0       -0.911757    1.320096   -0.630809
      5          6           0        0.763432    0.106095    0.340584
      6          1           0        0.939125   -0.669453    1.193199
      7          1           0        1.322453    1.090423    0.664467
      8          6           0        1.911529   -0.331619   -0.419442
 ---------------------------------------------------------------------

 SCF Done:  E(UB3LYP) =  -152.875227271     A.U. after   22 cycles

 The electronic state is 2-A.
 Alpha  occ. eigenvalues --  -11.15021 -11.09050 -11.01363 -10.99194  -1.61088
 Alpha  occ. eigenvalues --   -1.55040  -1.36329  -1.26923  -1.23120  -1.20404
 Alpha  occ. eigenvalues --   -1.14924  -1.10677  -1.06470
 Alpha virt. eigenvalues --   -0.88264  -0.85027  -0.84812  -0.77353  -0.58788
 Alpha virt. eigenvalues --   -0.57708  -0.55223  -0.50743  -0.49697  -0.46337
 Alpha virt. eigenvalues --   -0.44571  -0.43358  -0.41901  -0.40585  -0.37557

  Beta  occ. eigenvalues --  -11.14314 -11.08251 -11.01143 -10.99064  -1.59766
  Beta  occ. eigenvalues --   -1.53005  -1.35209  -1.26064  -1.22811  -1.19801
  Beta  occ. eigenvalues --   -1.14534  -1.04823
  Beta virt. eigenvalues --   -0.95763  -0.87358  -0.83964  -0.83753  -0.73316
  Beta virt. eigenvalues --   -0.58370  -0.56978  -0.54743  -0.50050  -0.49359
  Beta virt. eigenvalues --   -0.46092  -0.44293  -0.43163  -0.41324  -0.40211

 Mulliken charges and spin densities:
               1          2
     1  C    0.518955   0.420838
     2  H    0.507653  -0.011532
     3  C    0.316149   0.170117
     4  H    0.318334  -0.009671
     5  C    0.030462   0.034111
     6  H    0.359745   0.011128
     7  H    0.386905   0.021828
     8  C    0.561797   0.363182
 Sum of Mulliken charges =   3.00000   1.00000

 Dipole moment (field-independent basis, Debye):
    X=             -1.5944    Y=             -0.0908    Z=              0.2694  Tot=              1.6195
 Quadrupole moment (field-independent basis, Debye-Ang):
   XX=             26.2151   YY=            -10.3105   ZZ=            -13.6497
   XY=              2.2865   XZ=              1.7273   YZ=             -1.3683

  Exact polarizability:  99.417  -4.567  28.498  -2.586  -0.163  25.274
 Approx polarizability: 219.329 -13.980  49.663 -24.664   2.773  44.961

                      1                      2                      3
                      A                      A                      A
 Frequencies --    160.0698               287.4847               346.3403
 Red. masses --      2.7220                 2.2456                 3.2790
 Frc consts  --      0.0411                 0.1093                 0.2317
 IR Inten    --      3.1923                31.0869                 7.9072

                      4                      5                      6
                      A                      A                      A
 Frequencies --    533.8461               641.0979               704.6857
 Red. masses --      1.5742                 1.2620                 3.3600
 Frc consts  --      0.2643                 0.3056                 0.9831
 IR Inten    --      7.6932                91.1776                54.6865

                      7                      8                      9
                      A                      A                      A
 Frequencies --    737.4668               842.3433               945.6370
 Red. masses --      1.6532                 1.3486                 1.4140
 Frc consts  --      0.5297                 0.5638                 0.7450
 IR Inten    --      0.6329                31.4656                 5.2568

                     10                     11                     12
                      A                      A                      A
 Frequencies --   1021.9201              1071.2200              1088.0762
 Red. masses --      1.4615                 1.2350                 1.4267
 Frc consts  --      0.8993                 0.8349                 0.9952
 IR Inten    --     42.5027                37.7660                99.8805

                     13                     14                     15
                      A                      A                      A
 Frequencies --   1274.9329              1566.5735              2343.8845
 Red. masses --      1.7956                 4.8138                 1.0773
 Frc consts  --      1.7196                 6.9605                 3.4871
 IR Inten    --    191.7323               829.0106               522.7022

                     16                     17                     18
                      A                      A                      A
 Frequencies --   2432.6435              2474.2037              2797.6187
 Red. masses --      1.0765                 1.0742                 1.1442
 Frc consts  --      3.7535                 3.8745                 5.2762
 IR Inten    --    557.0345               545.7577               639.0929

 - Thermochemistry -
 -------------------
 Temperature   298.150 Kelvin.  Pressure   1.00000 Atm.
 Atom     1 has atomic number  6 and mass  12.00000

 Molecular mass:    52.03130 amu.
 Principal axes and moments of inertia in atomic units:
                           1         2         3
     Eigenvalues --    47.59600 398.31882 406.77049
           X            0.99955   0.02368   0.01824
           Y           -0.01508   0.92644  -0.37614
           Z           -0.02580   0.37569   0.92638
 This molecule is an asymmetric top.
 Rotational symmetry number  1.
 Rotational temperatures (Kelvin)      1.81977     0.21745     0.21293
 Rotational constants (GHZ):          37.91792     4.53090     4.43676
 Zero-point vibrational energy     127223.1 (Joules/Mol)
                                   30.40706 (Kcal/Mol)
 Warning -- explicit consideration of   4 degrees of freedom as
           vibrations may cause significant error
 Vibrational temperatures:    230.30   413.63   498.31   768.08   922.40
          (Kelvin)           1013.88  1061.05  1211.94  1360.56  1470.31
                             1541.24  1565.50  1834.34  2253.95  3372.32
                             3500.03  3559.82  4025.14

 Zero-point correction=                           0.048457 (Hartree/Particle)
 Thermal correction to Energy=                    0.053482
 Thermal correction to Enthalpy=                  0.054426
 Thermal correction to Gibbs Free Energy=         0.021162
 Sum of electronic and zero-point Energies=           -152.826771
 Sum of electronic and thermal Energies=              -152.821746
 Sum of electronic and thermal Enthalpies=            -152.820801
 Sum of electronic and thermal Free Energies=         -152.854065

                     E (Thermal)             CV                S
                      KCal/Mol        Cal/Mol-Kelvin    Cal/Mol-Kelvin
 Total                   33.560             17.035             70.009
 Electronic               0.000              0.000              1.377
 Translational            0.889              2.981             37.771
 Rotational               0.889              2.981             23.560
 Vibrational             31.783             11.073              7.301
 Vibration     1          0.622              1.891              2.549
 Vibration     2          0.685              1.697              1.489
 Vibration     3          0.724              1.583              1.183
 Vibration     4          0.889              1.175              0.579

 Optimization completed.
    -- Stationary point found.
 Normal termination of Gaussian 09 at Tue Jun 21 23:54:58 2016.
