 Gaussian 09, Revision E.01,
 Gaussian 09:  EM64L-G09RevE.01 30-Nov-2015

 ---------------------------------------------
 #p b3lyp/6-311++G(3df,2p) freq symmetry=Loose
 ---------------------------------------------

 ---------
 b3lyp opt
 ---------
 Symbolic Z-matrix:
 Charge =  1 Multiplicity = 2

                         Standard orientation:
 ---------------------------------------------------------------------
 Center     Atomic      Atomic             Coordinates (Angstroms)
 Number     Number       Type             X           Y           Z
 ---------------------------------------------------------------------
      1          6           0        1.128230   -0.127853    0.143876
      2          1           0        2.205279   -0.162598    0.145828
      3          6           0        0.117543    0.814495   -0.000564
      4          1           0        0.168133    1.784206   -0.496346
      5          6           0       -1.133547   -0.069585    0.099838
      6          1           0       -1.914397    0.076752   -0.639616
      7          1           0       -1.495070   -0.224864    1.111404
      8          6           0        0.060449   -0.862639   -0.263361
 ---------------------------------------------------------------------

 SCF Done:  E(UB3LYP) =  -154.418500130     A.U. after   15 cycles

 The electronic state is 2-A.
 Alpha  occ. eigenvalues --  -10.52317 -10.50965 -10.47891 -10.45655  -1.21655
 Alpha  occ. eigenvalues --   -0.96262  -0.88004  -0.79883  -0.74605  -0.68640
 Alpha  occ. eigenvalues --   -0.68026  -0.65752  -0.57926  -0.51097
 Alpha virt. eigenvalues --   -0.29620  -0.27467  -0.16103  -0.14642  -0.13127
 Alpha virt. eigenvalues --   -0.12535  -0.10981  -0.08835  -0.08307  -0.07078
 Alpha virt. eigenvalues --   -0.06163  -0.05496  -0.04563  -0.03268  -0.01551

  Beta  occ. eigenvalues --  -10.50946 -10.50561 -10.47930 -10.45563  -1.20565
  Beta  occ. eigenvalues --   -0.95939  -0.86116  -0.79724  -0.72130  -0.67655
  Beta  occ. eigenvalues --   -0.67454  -0.64298  -0.57216
  Beta virt. eigenvalues --   -0.37286  -0.27345  -0.26167  -0.15879  -0.14219
  Beta virt. eigenvalues --   -0.13085  -0.12352  -0.10725  -0.08663  -0.08226
  Beta virt. eigenvalues --   -0.07082  -0.05801  -0.04943  -0.04181  -0.03159

 Mulliken charges and spin densities:
               1          2
     1  C    0.002380  -0.107139
     2  H    0.285126   0.004329
     3  C    0.124214   0.235491
     4  H    0.235723   0.038728
     5  C   -0.389793   0.014815
     6  H    0.192873   0.006961
     7  H    0.245501  -0.000406
     8  C    0.303976   0.807220
 Sum of Mulliken charges =   1.00000   1.00000

 Dipole moment (field-independent basis, Debye):
    X=              0.3944    Y=              0.9815    Z=             -0.0607  Tot=              1.0596
 Quadrupole moment (field-independent basis, Debye-Ang):
   XX=            -12.1241   YY=            -17.9739   ZZ=            -20.6503
   XY=             -0.0171   XZ=              0.1052   YZ=             -1.1860

  Exact polarizability:  41.864  -0.369  36.862   0.416   0.537  26.278
 Approx polarizability:  63.060  -0.815  68.874   2.313   4.077  39.314

                      1                      2                      3
                      A                      A                      A
 Frequencies --    482.0521               654.4098               697.2568
 Red. masses --      2.3918                 2.7617                 2.4948
 Frc consts  --      0.3275                 0.6968                 0.7146
 IR Inten    --      6.3119                14.9465                 8.0358

                      4                      5                      6
                      A                      A                      A
 Frequencies --    890.5338               904.6490               992.3431
 Red. masses --      1.3913                 1.8483                 1.2200
 Frc consts  --      0.6501                 0.8912                 0.7078
 IR Inten    --     21.6267                36.1961                 5.8336

                      7                      8                      9
                      A                      A                      A
 Frequencies --   1041.4775              1044.2558              1074.0926
 Red. masses --      1.4317                 1.6358                 1.3710
 Frc consts  --      0.9150                 1.0510                 0.9319
 IR Inten    --      4.1674                 3.9595                14.1217

                     10                     11                     12
                      A                      A                      A
 Frequencies --   1138.3645              1192.4994              1249.3559
 Red. masses --      1.8706                 1.8293                 2.2900
 Frc consts  --      1.4282                 1.5327                 2.1060
 IR Inten    --      0.2972                 9.8346                39.8335

                     13                     14                     15
                      A                      A                      A
 Frequencies --   1474.1822              1531.0222              3106.7027
 Red. masses --      1.3059                 3.5549                 1.0578
 Frc consts  --      1.6721                 4.9095                 6.0155
 IR Inten    --      3.2054                12.4799                26.7138

                     16                     17                     18
                      A                      A                      A
 Frequencies --   3111.6069              3188.5988              3271.7037
 Red. masses --      1.0905                 1.1174                 1.1134
 Frc consts  --      6.2207                 6.6934                 7.0217
 IR Inten    --     43.3309                19.1267                68.6887

 - Thermochemistry -
 -------------------
 Temperature   298.150 Kelvin.  Pressure   1.00000 Atm.
 Atom     1 has atomic number  6 and mass  12.00000

 Molecular mass:    52.03130 amu.
 Principal axes and moments of inertia in atomic units:
                           1         2         3
     Eigenvalues --    83.99542 159.99937 222.25775
           X            0.99998   0.00408  -0.00533
           Y           -0.00443   0.99762  -0.06876
           Z            0.00503   0.06878   0.99762
 This molecule is an asymmetric top.
 Rotational symmetry number  1.
 Rotational temperatures (Kelvin)      1.03117     0.54134     0.38970
 Rotational constants (GHZ):          21.48618    11.27968     8.12004
 Zero-point vibrational energy     161765.7 (Joules/Mol)
                                   38.66292 (Kcal/Mol)
 Warning -- explicit consideration of   1 degrees of freedom as
           vibrations may cause significant error
 Vibrational temperatures:    693.56   941.55  1003.20  1281.28  1301.59
          (Kelvin)           1427.76  1498.45  1502.45  1545.38  1637.85
                             1715.74  1797.54  2121.02  2202.80  4469.85
                             4476.90  4587.68  4707.25

 Zero-point correction=                           0.061613 (Hartree/Particle)
 Thermal correction to Energy=                    0.065229
 Thermal correction to Enthalpy=                  0.066173
 Thermal correction to Gibbs Free Energy=         0.035811
 Sum of electronic and zero-point Energies=           -154.356887
 Sum of electronic and thermal Energies=              -154.353271
 Sum of electronic and thermal Enthalpies=            -154.352327
 Sum of electronic and thermal Free Energies=         -154.382689

                     E (Thermal)             CV                S
                      KCal/Mol        Cal/Mol-Kelvin    Cal/Mol-Kelvin
 Total                   40.932             12.148             63.902
 Electronic               0.000              0.000              1.377
 Translational            0.889              2.981             37.771
 Rotational               0.889              2.981             22.617
 Vibrational             39.154              6.187              2.137
 Vibration     1          0.838              1.290              0.705

 Normal termination of Gaussian 09 at Tue Jun 21 22:06:43 2016.
