 Gaussian 09, Revision E.01,
 Gaussian 09:  EM64L-G09RevE.01 30-Nov-2015

 ---------------------------------------------
 #p b3lyp/6-311++G(3df,2p) freq symmetry=Loose
 ---------------------------------------------

 ---------
 b3lyp opt
 ---------
 Symbolic Z-matrix:
 Charge =  0 Multiplicity = 1

                         Standard orientation:
 ---------------------------------------------------------------------
 Center     Atomic      Atomic             Coordinates (Angstroms)
 Number     Number       Type             X           Y           Z
 ---------------------------------------------------------------------
      1          6           0       -1.673824    0.193032   -0.000113
      2          1           0       -2.604789   -0.354965   -0.000782
      3          1           0       -1.738336    1.273436   -0.000285
      4          6           0       -0.504482   -0.444462    0.000246
      5          1           0       -0.475578   -1.526608    0.000410
      6          6           0        2.048989   -0.080574   -0.000354
      7          6           0        0.788879    0.213303    0.000195
      8          1           0        0.861333    1.320341    0.000817
 ---------------------------------------------------------------------

 SCF Done:  E(RB3LYP) =  -154.718831250     A.U. after   12 cycles

 The electronic state is 1-A.
 Alpha  occ. eigenvalues --  -10.23499 -10.21557 -10.19399 -10.19307  -0.84022
 Alpha  occ. eigenvalues --   -0.76783  -0.62276  -0.54571  -0.47868  -0.45037
 Alpha  occ. eigenvalues --   -0.39357  -0.35957  -0.30301  -0.26636
 Alpha virt. eigenvalues --   -0.10060  -0.05191  -0.00533   0.00396   0.02022
 Alpha virt. eigenvalues --    0.03535   0.04423   0.05528   0.06261   0.08183
 Alpha virt. eigenvalues --    0.08446   0.09164   0.10689   0.11198   0.12159

 Mulliken charges:
               1
     1  C   -0.499852
     2  H    0.160327
     3  H    0.139348
     4  C    0.155740
     5  H    0.152460
     6  C   -0.603736
     7  C    0.350193
     8  H    0.145520
 Sum of Mulliken charges =  -0.00000

 Dipole moment (field-independent basis, Debye):
    X=             -2.7601    Y=              0.4986    Z=              0.0006  Tot=              2.8047
 Quadrupole moment (field-independent basis, Debye-Ang):
   XX=            -31.0147   YY=            -21.0207   ZZ=            -27.7059
   XY=              0.9846   XZ=              0.0040   YZ=              0.0014

  Exact polarizability:  78.631  -4.407  42.635  -0.002   0.001  35.017
 Approx polarizability: 124.391 -14.092  65.538  -0.006   0.004  48.954

                      1                      2                      3
                      A                      A                      A
 Frequencies --    127.9032               177.6083               418.9738
 Red. masses --      5.4520                 3.2986                 2.2673
 Frc consts  --      0.0525                 0.0613                 0.2345
 IR Inten    --     22.5680                 6.2667                 0.0183

                      4                      5                      6
                      A                      A                      A
 Frequencies --    533.5594               744.3972               840.6794
 Red. masses --      1.1536                 2.0150                 2.1015
 Frc consts  --      0.1935                 0.6579                 0.8751
 IR Inten    --     19.3822                 0.0477                 1.4589

                      7                      8                      9
                      A                      A                      A
 Frequencies --    929.7542               954.8277              1020.0301
 Red. masses --      1.3251                 1.3518                 1.1106
 Frc consts  --      0.6749                 0.7261                 0.6808
 IR Inten    --      0.1170                44.2712                17.7984

                     10                     11                     12
                      A                      A                      A
 Frequencies --   1164.0541              1332.2206              1447.8092
 Red. masses --      1.7810                 1.2564                 1.2143
 Frc consts  --      1.4219                 1.3138                 1.4997
 IR Inten    --      1.9865                 0.2671                 3.8708

                     13                     14                     15
                      A                      A                      A
 Frequencies --   1665.9746              1785.6293              2942.5198
 Red. masses --      4.0162                 9.4963                 1.0763
 Frc consts  --      6.5675                17.8396                 5.4908
 IR Inten    --      7.4792                80.9728                22.7177

                     16                     17                     18
                      A                      A                      A
 Frequencies --   3141.9115              3168.3458              3230.5174
 Red. masses --      1.0596                 1.0912                 1.1158
 Frc consts  --      6.1631                 6.4537                 6.8611
 IR Inten    --      2.7496                 1.5677                 5.3689

 - Thermochemistry -
 -------------------
 Temperature   298.150 Kelvin.  Pressure   1.00000 Atm.
 Atom     1 has atomic number  6 and mass  12.00000

 Molecular mass:    52.03130 amu.
 Principal axes and moments of inertia in atomic units:
                           1         2         3
     Eigenvalues --    33.19743 375.27646 408.47386
           X            0.99999   0.00539   0.00003
           Y           -0.00539   0.99999   0.00004
           Z           -0.00003  -0.00004   1.00000
 This molecule is an asymmetric top.
 Rotational symmetry number  1.
 Rotational temperatures (Kelvin)      2.60905     0.23080     0.21204
 Rotational constants (GHZ):          54.36389     4.80910     4.41825
 Zero-point vibrational energy     153281.8 (Joules/Mol)
                                   36.63523 (Kcal/Mol)
 Warning -- explicit consideration of   4 degrees of freedom as
           vibrations may cause significant error
 Vibrational temperatures:    184.02   255.54   602.81   767.67  1071.02
          (Kelvin)           1209.55  1337.71  1373.78  1467.59  1674.81
                             1916.77  2083.07  2396.96  2569.12  4233.62
                             4520.50  4558.54  4647.99

 Zero-point correction=                           0.058382 (Hartree/Particle)
 Thermal correction to Energy=                    0.063314
 Thermal correction to Enthalpy=                  0.064259
 Thermal correction to Gibbs Free Energy=         0.031676
 Sum of electronic and zero-point Energies=           -154.660449
 Sum of electronic and thermal Energies=              -154.655517
 Sum of electronic and thermal Enthalpies=            -154.654573
 Sum of electronic and thermal Free Energies=         -154.687155

                     E (Thermal)             CV                S
                      KCal/Mol        Cal/Mol-Kelvin    Cal/Mol-Kelvin
 Total                   39.730             15.461             68.575
 Electronic               0.000              0.000              0.000
 Translational            0.889              2.981             37.771
 Rotational               0.889              2.981             23.147
 Vibrational             37.953              9.500              7.658
 Vibration     1          0.611              1.925              2.977
 Vibration     2          0.628              1.870              2.353
 Vibration     3          0.782              1.429              0.895
 Vibration     4          0.889              1.176              0.579

 Normal termination of Gaussian 09 at Tue Jun 21 20:57:54 2016.
