 Gaussian 09, Revision E.01,
 Gaussian 09:  EM64L-G09RevE.01 30-Nov-2015

 ---------------------------------------------
 #p b3lyp/6-311++G(3df,2p) freq symmetry=Loose
 ---------------------------------------------

 ---------
 b3lyp opt
 ---------
 Symbolic Z-matrix:
 Charge =  0 Multiplicity = 1

                         Standard orientation:
 ---------------------------------------------------------------------
 Center     Atomic      Atomic             Coordinates (Angstroms)
 Number     Number       Type             X           Y           Z
 ---------------------------------------------------------------------
      1          6           0        0.521252    0.521252    0.521252
      2          1           0        1.138019    1.138019    1.138019
      3          6           0       -0.521252   -0.521252    0.521252
      4          1           0       -1.138019   -1.138019    1.138019
      5          6           0        0.521252   -0.521252   -0.521252
      6          1           0        1.138019   -1.138019   -1.138019
      7          6           0       -0.521252    0.521252   -0.521252
      8          1           0       -1.138019    1.138019   -1.138019
 ---------------------------------------------------------------------

 SCF Done:  E(RB3LYP) =  -154.693520326     A.U. after    8 cycles

 The electronic state is 1-A1.
 Alpha  occ. eigenvalues --  -10.19195 -10.19134 -10.19134 -10.19134  -0.99568
 Alpha  occ. eigenvalues --   -0.59649  -0.59649  -0.59649  -0.53612  -0.39844
 Alpha  occ. eigenvalues --   -0.39844  -0.39844  -0.23562  -0.23562
 Alpha virt. eigenvalues --    0.00224   0.01447   0.01447   0.01447   0.05884
 Alpha virt. eigenvalues --    0.05884   0.05884   0.08927   0.08927   0.10234
 Alpha virt. eigenvalues --    0.10270   0.10270   0.10270   0.10851   0.12832

 Mulliken charges:
               1
     1  C   -0.247988
     2  H    0.247988
     3  C   -0.247988
     4  H    0.247988
     5  C   -0.247988
     6  H    0.247988
     7  C   -0.247988
     8  H    0.247988
 Sum of Mulliken charges =  -0.00000

 Dipole moment (field-independent basis, Debye):
    X=              0.0000    Y=             -0.0000    Z=             -0.0000  Tot=              0.0000
 Quadrupole moment (field-independent basis, Debye-Ang):
   XX=            -23.1912   YY=            -23.1912   ZZ=            -23.1912
   XY=             -0.0000   XZ=             -0.0000   YZ=              0.0000

  Exact polarizability:  41.032  -0.000  41.032  -0.000  -0.000  41.032
 Approx polarizability:  61.289  -0.000  61.289  -0.000   0.000  61.289

                      1                      2                      3
                      E                      E                     T2
 Frequencies --    572.4637               572.4637               775.0340
 Red. masses --      1.5747                 1.5747                 1.1076
 Frc consts  --      0.3040                 0.3040                 0.3920
 IR Inten    --      0.0000                 0.0000                65.6902

                      4                      5                      6
                     T2                     T2                      E
 Frequencies --    775.0340               775.0340               839.1799
 Red. masses --      1.1076                 1.1076                 2.2700
 Frc consts  --      0.3920                 0.3920                 0.9419
 IR Inten    --     65.6902                65.6902                 0.0000

                      7                      8                      9
                      E                     T1                     T1
 Frequencies --    839.1799               892.4925               892.4925
 Red. masses --      2.2700                 1.3654                 1.3654
 Frc consts  --      0.9419                 0.6408                 0.6408
 IR Inten    --      0.0000                 0.0000                 0.0000

                     10                     11                     12
                     T1                     T2                     T2
 Frequencies --    892.4925              1148.3787              1148.3787
 Red. masses --      1.3654                 5.5492                 5.5492
 Frc consts  --      0.6408                 4.3117                 4.3117
 IR Inten    --      0.0000                 3.4967                 3.4967

                     13                     14                     15
                     T2                     A1                     T2
 Frequencies --   1148.3787              1456.3591              3326.8516
 Red. masses --      5.5492                 5.1351                 1.0937
 Frc consts  --      4.3117                 6.4170                 7.1322
 IR Inten    --      3.4967                 0.0000                13.4987

                     16                     17                     18
                     T2                     T2                     A1
 Frequencies --   3326.8516              3326.8516              3363.6875
 Red. masses --      1.0937                 1.0937                 1.1353
 Frc consts  --      7.1322                 7.1322                 7.5681
 IR Inten    --     13.4987                13.4987                 0.0000

 - Thermochemistry -
 -------------------
 Temperature   298.150 Kelvin.  Pressure   1.00000 Atm.
 Atom     1 has atomic number  6 and mass  12.00000

 Molecular mass:    52.03130 amu.
 Principal axes and moments of inertia in atomic units:
                           1         2         3
     Eigenvalues --   130.43449 130.43449 130.43449
           X            0.02581   0.04588   0.99861
           Y            0.48963   0.87034  -0.05264
           Z            0.87155  -0.49031   0.00000
 This molecule is a spherical top.
 Rotational symmetry number 12.
 Rotational temperatures (Kelvin)      0.66404     0.66404     0.66404
 Rotational constants (GHZ):          13.83638    13.83638    13.83638
 Zero-point vibrational energy     155942.8 (Joules/Mol)
                                   37.27123 (Kcal/Mol)
 Warning -- explicit consideration of   2 degrees of freedom as
           vibrations may cause significant error
 Vibrational temperatures:    823.65   823.65  1115.10  1115.10  1115.10
          (Kelvin)           1207.39  1207.39  1284.10  1284.10  1284.10
                             1652.26  1652.26  1652.26  2095.37  4786.59
                             4786.59  4786.59  4839.59

 Zero-point correction=                           0.059395 (Hartree/Particle)
 Thermal correction to Energy=                    0.063207
 Thermal correction to Enthalpy=                  0.064151
 Thermal correction to Gibbs Free Energy=         0.036692
 Sum of electronic and zero-point Energies=           -154.634125
 Sum of electronic and thermal Energies=              -154.630313
 Sum of electronic and thermal Enthalpies=            -154.629369
 Sum of electronic and thermal Free Energies=         -154.656829

                     E (Thermal)             CV                S
                      KCal/Mol        Cal/Mol-Kelvin    Cal/Mol-Kelvin
 Total                   39.663             13.740             57.794
 Electronic               0.000              0.000              0.000
 Translational            0.889              2.981             37.771
 Rotational               0.889              2.981             17.384
 Vibrational             37.886              7.778              2.639
 Vibration     1          0.929              1.091              0.500
 Vibration     2          0.929              1.091              0.500

 Optimization completed.
    -- Stationary point found.
 Normal termination of Gaussian 09 at Tue Jul 19 18:45:32 2016.
