 Gaussian 09, Revision E.01,
 Gaussian 09:  EM64L-G09RevE.01 30-Nov-2015

 ---------------------------------------------
 #p b3lyp/6-311++G(3df,2p) freq symmetry=Loose
 ---------------------------------------------

 ---------
 b3lyp opt
 ---------
 Symbolic Z-matrix:
 Charge =  1 Multiplicity = 2

                         Standard orientation:
 ---------------------------------------------------------------------
 Center     Atomic      Atomic             Coordinates (Angstroms)
 Number     Number       Type             X           Y           Z
 ---------------------------------------------------------------------
      1          6           0       -1.002139    0.674230    0.000254
      2          6           0        0.202644   -0.000273   -0.000494
      3          1           0       -1.556453    1.600412    0.000386
      4          1           0        2.147923   -0.934701    0.001440
      5          6           0        1.605223   -0.000086   -0.000053
      6          1           0        2.146985    0.935130   -0.000552
      7          6           0       -1.002609   -0.674007    0.000160
      8          1           0       -1.557174   -1.600030   -0.000469
 ---------------------------------------------------------------------

 SCF Done:  E(UB3LYP) =  -154.465045190     A.U. after   13 cycles

 The electronic state is 2-A.
 Alpha  occ. eigenvalues --  -10.48337 -10.47915 -10.47844 -10.44413  -1.19399
 Alpha  occ. eigenvalues --   -0.98824  -0.83661  -0.80636  -0.74009  -0.68588
 Alpha  occ. eigenvalues --   -0.65779  -0.62268  -0.58402  -0.49379
 Alpha virt. eigenvalues --   -0.27645  -0.22050  -0.15284  -0.13570  -0.13347
 Alpha virt. eigenvalues --   -0.11328  -0.10621  -0.09843  -0.09530  -0.05867
 Alpha virt. eigenvalues --   -0.05611  -0.05160  -0.04459  -0.03841  -0.03027

  Beta  occ. eigenvalues --  -10.48310 -10.47739 -10.47669 -10.43282  -1.18945
  Beta  occ. eigenvalues --   -0.95743  -0.83335  -0.80200  -0.73076  -0.67955
  Beta  occ. eigenvalues --   -0.63747  -0.61809  -0.58229
  Beta virt. eigenvalues --   -0.37216  -0.26388  -0.18607  -0.15053  -0.13483
  Beta virt. eigenvalues --   -0.13260  -0.11196  -0.10437  -0.09393  -0.09132
  Beta virt. eigenvalues --   -0.05803  -0.04807  -0.04800  -0.04386  -0.03643

 Mulliken charges and spin densities:
               1          2
     1  C    0.154440   0.146313
     2  C    0.106429   0.020871
     3  H    0.313454  -0.002590
     4  H    0.231545  -0.021859
     5  C   -0.505820   0.735424
     6  H    0.231449  -0.021876
     7  C    0.155020   0.146310
     8  H    0.313484  -0.002593
 Sum of Mulliken charges =   1.00000   1.00000

 Dipole moment (field-independent basis, Debye):
    X=             -0.6115    Y=              0.0003    Z=              0.0004  Tot=              0.6115
 Quadrupole moment (field-independent basis, Debye-Ang):
   XX=             -9.4687   YY=            -14.6722   ZZ=            -22.0509
   XY=              0.0001   XZ=              0.0012   YZ=             -0.0005

  Exact polarizability:  52.114   0.006  35.758  -0.001   0.002  23.389
 Approx polarizability:  72.816   0.003  54.729  -0.009  -0.002  34.075

                      1                      2                      3
                      A                      A                      A
 Frequencies --    231.6358               359.4093               415.5896
 Red. masses --      1.0601                 2.3175                 2.9889
 Frc consts  --      0.0335                 0.1764                 0.3042
 IR Inten    --      0.0000                 4.3586                18.7835

                      4                      5                      6
                      A                      A                      A
 Frequencies --    815.0012               837.2972               877.1973
 Red. masses --      1.2444                 2.2014                 1.4847
 Frc consts  --      0.4870                 0.9093                 0.6731
 IR Inten    --      5.8733                 0.0918                55.1715

                      7                      8                      9
                      A                      A                      A
 Frequencies --    953.6377               989.9248              1002.4603
 Red. masses --      1.3545                 1.4529                 1.4422
 Frc consts  --      0.7257                 0.8389                 0.8539
 IR Inten    --      2.0883                 0.0000                27.5411

                     10                     11                     12
                      A                      A                      A
 Frequencies --   1083.4514              1268.2050              1441.3180
 Red. masses --      1.5359                 4.5100                 3.3917
 Frc consts  --      1.0623                 4.2737                 4.1513
 IR Inten    --      7.8852                25.2280                47.5080

                     13                     14                     15
                      A                      A                      A
 Frequencies --   1476.9151              1743.4017              3151.9167
 Red. masses --      1.3546                 7.1639                 1.0509
 Frc consts  --      1.7408                12.8290                 6.1514
 IR Inten    --     31.0196                18.7115                18.4672

                     16                     17                     18
                      A                      A                      A
 Frequencies --   3236.6413              3268.3576              3269.6190
 Red. masses --      1.0959                 1.1232                 1.1407
 Frc consts  --      6.7640                 7.0691                 7.1846
 IR Inten    --     76.1741                10.5788                39.1411

 - Thermochemistry -
 -------------------
 Temperature   298.150 Kelvin.  Pressure   1.00000 Atm.
 Atom     1 has atomic number  6 and mass  12.00000

 Molecular mass:    52.03130 amu.
 Principal axes and moments of inertia in atomic units:
                           1         2         3
     Eigenvalues --    63.67126 248.83855 312.50976
           X            1.00000   0.00001   0.00007
           Y           -0.00001   1.00000  -0.00001
           Z           -0.00007   0.00001   1.00000
 This molecule is an asymmetric top.
 Rotational symmetry number  1.
 Rotational temperatures (Kelvin)      1.36033     0.34807     0.27716
 Rotational constants (GHZ):          28.34468     7.25266     5.77499
 Zero-point vibrational energy     158038.5 (Joules/Mol)
                                   37.77212 (Kcal/Mol)
 Warning -- explicit consideration of   3 degrees of freedom as
           vibrations may cause significant error
 Vibrational temperatures:    333.27   517.11   597.94  1172.60  1204.68
          (Kelvin)           1262.09  1372.07  1424.28  1442.31  1558.84
                             1824.66  2073.73  2124.95  2508.36  4534.90
                             4656.80  4702.43  4704.25

 Zero-point correction=                           0.060194 (Hartree/Particle)
 Thermal correction to Energy=                    0.064558
 Thermal correction to Enthalpy=                  0.065502
 Thermal correction to Gibbs Free Energy=         0.033608
 Sum of electronic and zero-point Energies=           -154.404851
 Sum of electronic and thermal Energies=              -154.400488
 Sum of electronic and thermal Enthalpies=            -154.399543
 Sum of electronic and thermal Free Energies=         -154.431437

                     E (Thermal)             CV                S
                      KCal/Mol        Cal/Mol-Kelvin    Cal/Mol-Kelvin
 Total                   40.510             14.353             67.126
 Electronic               0.000              0.000              1.377
 Translational            0.889              2.981             37.771
 Rotational               0.889              2.981             23.119
 Vibrational             38.733              8.391              4.858
 Vibration     1          0.653              1.793              1.866
 Vibration     2          0.734              1.556              1.125
 Vibration     3          0.779              1.436              0.907

 Normal termination of Gaussian 09 at Tue Jun 21 22:19:26 2016.
