 Gaussian 09, Revision E.01,
 Gaussian 09:  EM64L-G09RevE.01 30-Nov-2015

 ---------------------------------------------
 #p b3lyp/6-311++G(3df,2p) freq symmetry=Loose
 ---------------------------------------------

 ---------
 b3lyp opt
 ---------
 Symbolic Z-matrix:
 Charge =  3 Multiplicity = 4

                         Standard orientation:
 ---------------------------------------------------------------------
 Center     Atomic      Atomic             Coordinates (Angstroms)
 Number     Number       Type             X           Y           Z
 ---------------------------------------------------------------------
      1          6           0        1.011805   -0.000000    0.000122
      2          1           0        1.857136   -0.000091    0.838527
      3          1           0        1.857338    0.000091   -0.838079
      4          6           0       -1.259813    0.000000   -0.000152
      5          6           0       -0.158238   -0.938516   -0.000121
      6          1           0       -0.163786   -2.151124   -0.000253
      7          6           0       -0.158238    0.938516    0.000083
      8          1           0       -0.163786    2.151124    0.000214
 ---------------------------------------------------------------------

 SCF Done:  E(UB3LYP) =  -152.789880738     A.U. after   13 cycles

 The electronic state is 4-A.
 Alpha  occ. eigenvalues --  -11.10996 -11.10995 -11.10087 -11.03509  -1.75215
 Alpha  occ. eigenvalues --   -1.49535  -1.44293  -1.30044  -1.28996  -1.23104
 Alpha  occ. eigenvalues --   -1.22398  -1.13753  -1.10515  -1.09394
 Alpha virt. eigenvalues --   -0.90477  -0.80282  -0.64914  -0.60916  -0.58673
 Alpha virt. eigenvalues --   -0.56189  -0.55763  -0.52639  -0.50861  -0.50320
 Alpha virt. eigenvalues --   -0.44501  -0.43794  -0.42583  -0.40713  -0.39509

  Beta  occ. eigenvalues --  -11.10445 -11.10443 -11.07074 -11.02696  -1.71322
  Beta  occ. eigenvalues --   -1.44907  -1.40849  -1.24707  -1.24027  -1.19870
  Beta  occ. eigenvalues --   -1.17644
  Beta virt. eigenvalues --   -1.02078  -0.97507  -0.89062  -0.88387  -0.72913
  Beta virt. eigenvalues --   -0.61826  -0.57662  -0.57197  -0.54851  -0.52815
  Beta virt. eigenvalues --   -0.49448  -0.49318  -0.45700  -0.43613  -0.42983

 Mulliken charges and spin densities:
               1          2
     1  C   -0.166015   0.400772
     2  H    0.361997   0.142963
     3  H    0.361997   0.142963
     4  C    0.420318   1.503192
     5  C    0.562189   0.215899
     6  H    0.448663   0.189156
     7  C    0.562189   0.215899
     8  H    0.448663   0.189156
 Sum of Mulliken charges =   3.00000   3.00000

 Dipole moment (field-independent basis, Debye):
    X=              2.2874    Y=             -0.0000    Z=              0.0003  Tot=              2.2874
 Quadrupole moment (field-independent basis, Debye-Ang):
   XX=              1.0077   YY=              5.2403   ZZ=            -15.1532
   XY=              0.0000   XZ=              0.0019   YZ=              0.0022

  Exact polarizability:  40.801  -0.000  44.766   0.003   0.003  20.284
 Approx polarizability:  80.272  -0.000  91.774   0.006   0.007  31.365

                      1                      2                      3
                      A                      A                      A
 Frequencies --    179.9194               400.6886               417.9619
 Red. masses --      1.5836                 1.3721                 1.4552
 Frc consts  --      0.0302                 0.1298                 0.1498
 IR Inten    --     15.9335               153.7370                 0.0000

                      4                      5                      6
                      A                      A                      A
 Frequencies --    521.0277               553.6747               763.8384
 Red. masses --      6.7288                 1.2076                 1.0091
 Frc consts  --      1.0762                 0.2181                 0.3469
 IR Inten    --      6.7677               175.3749                 0.0000

                      7                      8                      9
                      A                      A                      A
 Frequencies --    769.6170               781.1506               812.6819
 Red. masses --      3.5863                 1.1595                 2.5612
 Frc consts  --      1.2515                 0.4169                 0.9966
 IR Inten    --    109.3184                 3.4660                 4.1180

                     10                     11                     12
                      A                      A                      A
 Frequencies --    886.9835               922.5568               950.8047
 Red. masses --      1.4139                 2.5227                 2.0379
 Frc consts  --      0.6554                 1.2650                 1.0855
 IR Inten    --    543.2022                49.7139                 3.2557

                     13                     14                     15
                      A                      A                      A
 Frequencies --   1034.5266              1146.5205              1727.8367
 Red. masses --      2.4203                 4.0808                 1.0668
 Frc consts  --      1.5262                 3.1605                 1.8764
 IR Inten    --     48.0399                 0.3062              3796.4671

                     16                     17                     18
                      A                      A                      A
 Frequencies --   1990.4534              2174.5417              2307.1487
 Red. masses --      1.0655                 1.1445                 1.0888
 Frc consts  --      2.4871                 3.1887                 3.4146
 IR Inten    --    587.4411                21.6982              1080.7980

 - Thermochemistry -
 -------------------
 Temperature   298.150 Kelvin.  Pressure   1.00000 Atm.
 Atom     1 has atomic number  6 and mass  12.00000

 Molecular mass:    52.03130 amu.
 Principal axes and moments of inertia in atomic units:
                           1         2         3
     Eigenvalues --   113.85662 143.33426 247.07404
           X            1.00000   0.00000  -0.00012
           Y           -0.00000   1.00000  -0.00011
           Z            0.00012   0.00011   1.00000
 This molecule is an asymmetric top.
 Rotational symmetry number  1.
 Rotational temperatures (Kelvin)      0.76073     0.60428     0.35056
 Rotational constants (GHZ):          15.85100    12.59114     7.30446
 Zero-point vibrational energy     109709.1 (Joules/Mol)
                                   26.22111 (Kcal/Mol)
 Warning -- explicit consideration of   5 degrees of freedom as
           vibrations may cause significant error
 Vibrational temperatures:    258.86   576.50   601.35   749.64   796.61
          (Kelvin)           1098.99  1107.31  1123.90  1169.27  1276.17
                             1327.35  1367.99  1488.45  1649.59  2485.97
                             2863.81  3128.68  3319.47

 Zero-point correction=                           0.041786 (Hartree/Particle)
 Thermal correction to Energy=                    0.046751
 Thermal correction to Enthalpy=                  0.047696
 Thermal correction to Gibbs Free Energy=         0.014344
 Sum of electronic and zero-point Energies=           -152.748095
 Sum of electronic and thermal Energies=              -152.743129
 Sum of electronic and thermal Enthalpies=            -152.742185
 Sum of electronic and thermal Free Energies=         -152.775537

                     E (Thermal)             CV                S
                      KCal/Mol        Cal/Mol-Kelvin    Cal/Mol-Kelvin
 Total                   29.337             17.851             70.195
 Electronic               0.000              0.000              2.755
 Translational            0.889              2.981             37.771
 Rotational               0.889              2.981             22.915
 Vibrational             27.560             11.889              6.754
 Vibration     1          0.629              1.867              2.329
 Vibration     2          0.767              1.469              0.960
 Vibration     3          0.781              1.431              0.899
 Vibration     4          0.876              1.203              0.608
 Vibration     5          0.909              1.132              0.537

 Optimization completed.
    -- Stationary point found.
 Normal termination of Gaussian 09 at Tue Jul 19 22:44:51 2016.
