 Gaussian 09, Revision E.01,
 Gaussian 09:  EM64L-G09RevE.01 30-Nov-2015

 ---------------------------------------------
 #p b3lyp/6-311++G(3df,2p) freq symmetry=Loose
 ---------------------------------------------

 ---------
 b3lyp opt
 ---------
 Symbolic Z-matrix:
 Charge =  1 Multiplicity = 4

                         Standard orientation:
 ---------------------------------------------------------------------
 Center     Atomic      Atomic             Coordinates (Angstroms)
 Number     Number       Type             X           Y           Z
 ---------------------------------------------------------------------
      1          6           0        0.010802    0.020500    0.077009
      2          6           0       -1.469153   -0.098646   -0.007274
      3          1           0       -1.792430   -0.571373    0.927255
      4          1           0       -1.938381    0.876927   -0.101057
      5          1           0       -1.731607   -0.738702   -0.849167
      6          6           0        0.896156    1.054308   -0.011398
      7          6           0        1.144308   -0.714821   -0.127633
      8          1           0        1.969738   -1.134898    0.438747
 ---------------------------------------------------------------------

 SCF Done:  E(UB3LYP) =  -154.257201354     A.U. after   17 cycles

 The electronic state is 4-A.
 Alpha  occ. eigenvalues --  -10.55985 -10.51911 -10.51537 -10.41419  -1.17548
 Alpha  occ. eigenvalues --   -0.98060  -0.89300  -0.78480  -0.71969  -0.68116
 Alpha  occ. eigenvalues --   -0.66841  -0.61961  -0.60483  -0.56140  -0.47789
 Alpha virt. eigenvalues --   -0.27800  -0.26124  -0.15993  -0.13506  -0.10905
 Alpha virt. eigenvalues --   -0.10219  -0.10070  -0.09578  -0.08300  -0.07530
 Alpha virt. eigenvalues --   -0.06483  -0.05216  -0.03753  -0.02905  -0.02474

  Beta  occ. eigenvalues --  -10.52532 -10.51914 -10.49710 -10.41223  -1.13999
  Beta  occ. eigenvalues --   -0.96692  -0.83081  -0.74623  -0.70278  -0.66537
  Beta  occ. eigenvalues --   -0.62586  -0.57467
  Beta virt. eigenvalues --   -0.44451  -0.41383  -0.31743  -0.24029  -0.18352
  Beta virt. eigenvalues --   -0.15497  -0.12964  -0.10567  -0.09834  -0.09241
  Beta virt. eigenvalues --   -0.08697  -0.07800  -0.06939  -0.05965  -0.04540

 Mulliken charges and spin densities:
               1          2
     1  C    0.680996  -0.235927
     2  C   -0.377580   0.142117
     3  H    0.218680   0.012297
     4  H    0.196569   0.010988
     5  H    0.216226  -0.005648
     6  C    0.053478   1.926267
     7  C   -0.280743   1.128429
     8  H    0.292374   0.021479
 Sum of Mulliken charges =   1.00000   3.00000

 Dipole moment (field-independent basis, Debye):
    X=              0.6921    Y=             -0.3636    Z=              0.7156  Tot=              1.0598
 Quadrupole moment (field-independent basis, Debye-Ang):
   XX=            -10.6701   YY=            -17.3088   ZZ=            -21.9564
   XY=             -0.8801   XZ=              1.2381   YZ=             -0.5991

  Exact polarizability:  51.819   0.743  42.125  -2.074  -0.329  29.052
 Approx polarizability:  74.103   4.157  80.129  -5.173   0.568  41.354

                      1                      2                      3
                      A                      A                      A
 Frequencies --     70.8065               233.5240               355.1905
 Red. masses --      1.1322                 4.2252                 3.4739
 Frc consts  --      0.0033                 0.1358                 0.2582
 IR Inten    --      0.0063                72.0955                 2.2150

                      4                      5                      6
                      A                      A                      A
 Frequencies --    377.8122               604.1338               761.2759
 Red. masses --      2.2310                 2.0937                 1.2764
 Frc consts  --      0.1876                 0.4502                 0.4358
 IR Inten    --     45.3411                39.8416                28.3874

                      7                      8                      9
                      A                      A                      A
 Frequencies --    809.7337               945.3911               983.7386
 Red. masses --      4.5252                 1.5370                 1.7590
 Frc consts  --      1.7481                 0.8094                 1.0030
 IR Inten    --     18.0849                 6.3159                10.9037

                     10                     11                     12
                      A                      A                      A
 Frequencies --   1098.7898              1355.2774              1407.8668
 Red. masses --      2.1535                 1.2955                 1.0446
 Frc consts  --      1.5319                 1.4020                 1.2199
 IR Inten    --     13.9538                17.5036                23.1907

                     13                     14                     15
                      A                      A                      A
 Frequencies --   1452.6638              1511.6167              3008.1908
 Red. masses --      1.0495                 4.7340                 1.0424
 Frc consts  --      1.3048                 6.3733                 5.5575
 IR Inten    --     19.7583                36.0121                79.4848

                     16                     17                     18
                      A                      A                      A
 Frequencies --   3099.2187              3151.1053              3173.5410
 Red. masses --      1.0878                 1.1045                 1.0974
 Frc consts  --      6.1560                 6.4615                 6.5119
 IR Inten    --     13.9120                 6.0572               104.2300

 - Thermochemistry -
 -------------------
 Temperature   298.150 Kelvin.  Pressure   1.00000 Atm.
 Atom     1 has atomic number  6 and mass  12.00000

 Molecular mass:    52.03130 amu.
 Principal axes and moments of inertia in atomic units:
                           1         2         3
     Eigenvalues --    87.47797 239.55528 312.47083
           X            0.99929  -0.03510   0.01386
           Y            0.03545   0.99905  -0.02534
           Z           -0.01296   0.02581   0.99958
 This molecule is an asymmetric top.
 Rotational symmetry number  1.
 Rotational temperatures (Kelvin)      0.99012     0.36156     0.27719
 Rotational constants (GHZ):          20.63081     7.53372     5.77571
 Zero-point vibrational energy     145943.7 (Joules/Mol)
                                   34.88137 (Kcal/Mol)
 Warning -- explicit consideration of   5 degrees of freedom as
           vibrations may cause significant error
 Vibrational temperatures:    101.87   335.99   511.04   543.59   869.21
          (Kelvin)           1095.30  1165.02  1360.21  1415.38  1580.91
                             1949.94  2025.60  2090.06  2174.88  4328.11
                             4459.08  4533.73  4566.01

 Zero-point correction=                           0.055587 (Hartree/Particle)
 Thermal correction to Energy=                    0.060869
 Thermal correction to Enthalpy=                  0.061813
 Thermal correction to Gibbs Free Energy=         0.026975
 Sum of electronic and zero-point Energies=           -154.201614
 Sum of electronic and thermal Energies=              -154.196332
 Sum of electronic and thermal Enthalpies=            -154.195388
 Sum of electronic and thermal Free Energies=         -154.230226

                     E (Thermal)             CV                S
                      KCal/Mol        Cal/Mol-Kelvin    Cal/Mol-Kelvin
 Total                   38.196             16.680             73.323
 Electronic               0.000              0.000              2.755
 Translational            0.889              2.981             37.771
 Rotational               0.889              2.981             23.397
 Vibrational             36.418             10.718              9.401
 Vibration     1          0.598              1.968              4.131
 Vibration     2          0.654              1.790              1.852
 Vibration     3          0.731              1.565              1.143
 Vibration     4          0.748              1.517              1.048
 Vibration     5          0.963              1.023              0.443

 Normal termination of Gaussian 09 at Tue Jun 21 22:57:35 2016.
