 Gaussian 09, Revision E.01,
 Gaussian 09:  EM64L-G09RevE.01 30-Nov-2015

 ------------------------------------------------------
 #p b3lyp/6-311++G(3df,2p) freq IOp(2/17=3) IOp(2/18=3)
 ------------------------------------------------------

 ---------
 b3lyp opt
 ---------
 Symbolic Z-matrix:
 Charge =  1 Multiplicity = 4

                         Standard orientation:
 ---------------------------------------------------------------------
 Center     Atomic      Atomic             Coordinates (Angstroms)
 Number     Number       Type             X           Y           Z
 ---------------------------------------------------------------------
      1          6           0       -0.000000    0.863605   -0.000000
      2          6           0        0.129541   -0.039867    1.174122
      3          6           0       -0.485043   -0.713881    0.000000
      4          6           0        0.129541   -0.039867   -1.174122
      5          1           0       -0.477891    0.146480    2.057835
      6          1           0        1.155248   -0.356293    1.410136
      7          1           0       -0.477891    0.146480   -2.057835
      8          1           0        1.155248   -0.356293   -1.410136
 ---------------------------------------------------------------------

 SCF Done:  E(UB3LYP) =  -154.284505852     A.U. after   12 cycles

 The electronic state is 4-A'.
 Alpha  occ. eigenvalues --  -10.53972 -10.53957 -10.46775 -10.46772  -1.21746
 Alpha  occ. eigenvalues --   -0.97800  -0.83966  -0.82586  -0.75710  -0.70109
 Alpha  occ. eigenvalues --   -0.65880  -0.64548  -0.62048  -0.51669  -0.49719
 Alpha virt. eigenvalues --   -0.28192  -0.16255  -0.14443  -0.13539  -0.13055
 Alpha virt. eigenvalues --   -0.10150  -0.09471  -0.09359  -0.07166  -0.05616
 Alpha virt. eigenvalues --   -0.05546  -0.04567  -0.03739  -0.03315  -0.02872

  Beta  occ. eigenvalues --  -10.51432 -10.51420 -10.46737 -10.46734  -1.18349
  Beta  occ. eigenvalues --   -0.96820  -0.80374  -0.75841  -0.72203  -0.68139
  Beta  occ. eigenvalues --   -0.64683  -0.62760
  Beta virt. eigenvalues --   -0.43462  -0.37508  -0.31039  -0.20944  -0.15793
  Beta virt. eigenvalues --   -0.13377  -0.13243  -0.12699  -0.09837  -0.09247
  Beta virt. eigenvalues --   -0.08686  -0.06094  -0.05142  -0.04226  -0.03875

 Mulliken charges and spin densities:
               1          2
     1  C    0.304551   1.479898
     2  C   -0.249644  -0.123210
     3  C    0.304030   1.479985
     4  C   -0.249644  -0.123210
     5  H    0.204220   0.045470
     6  H    0.241133   0.097798
     7  H    0.204220   0.045470
     8  H    0.241133   0.097798
 Sum of Mulliken charges =   1.00000   3.00000

 Dipole moment (field-independent basis, Debye):
    X=              0.6962    Y=             -0.2159    Z=              0.0000  Tot=              0.7290
 Quadrupole moment (field-independent basis, Debye-Ang):
   XX=            -19.5673   YY=            -20.4111   ZZ=            -12.1031
   XY=             -0.2914   XZ=              0.0000   YZ=             -0.0000

  Exact polarizability:  29.752   0.912  32.451   0.000  -0.000  43.813
 Approx polarizability:  44.099   5.259  59.614  -0.000   0.000  61.573

                      1                      2                      3
                     A'                     A'                     A"
 Frequencies --    390.0858               652.0699               681.0633
 Red. masses --      1.8947                 3.0219                 6.5884
 Frc consts  --      0.1699                 0.7570                 1.8006
 IR Inten    --      3.0782                 8.9765                 0.0000

                      4                      5                      6
                     A"                     A"                     A'
 Frequencies --    853.4693               860.5002               866.2053
 Red. masses --      1.2608                 1.0716                 7.1163
 Frc consts  --      0.5411                 0.4675                 3.1459
 IR Inten    --      0.3435                 0.0000                 0.5271

                      7                      8                      9
                     A'                     A'                     A"
 Frequencies --   1033.5639              1083.2148              1107.8800
 Red. masses --      2.0019                 1.2275                 1.2517
 Frc consts  --      1.2600                 0.8486                 0.9052
 IR Inten    --      0.7121                18.6134                 0.0001

                     10                     11                     12
                     A'                     A'                     A"
 Frequencies --   1136.6228              1165.1034              1193.7960
 Red. masses --      3.9776                 1.4201                 8.1170
 Frc consts  --      3.0276                 1.1358                 6.8156
 IR Inten    --      0.0064                49.2048                 5.2534

                     13                     14                     15
                     A"                     A'                     A"
 Frequencies --   1394.2715              1424.4311              2955.5443
 Red. masses --      1.0844                 1.1322                 1.0615
 Frc consts  --      1.2421                 1.3535                 5.4630
 IR Inten    --     51.1723                12.1452                63.3101

                     16                     17                     18
                     A'                     A"                     A'
 Frequencies --   2977.7668              3115.8671              3123.2552
 Red. masses --      1.0667                 1.0930                 1.1006
 Frc consts  --      5.5728                 6.2520                 6.3255
 IR Inten    --     28.5770                43.9541                21.3919

 - Thermochemistry -
 -------------------
 Temperature   298.150 Kelvin.  Pressure   1.00000 Atm.
 Atom     1 has atomic number  6 and mass  12.00000

 Molecular mass:    52.03130 amu.
 Principal axes and moments of inertia in atomic units:
                           1         2         3
     Eigenvalues --    77.63751 182.22282 221.30460
           X            0.00000   0.29357   0.95594
           Y            0.00000   0.95594  -0.29357
           Z            1.00000   0.00000   0.00000
 This molecule is an asymmetric top.
 Rotational symmetry number  1.
 Rotational temperatures (Kelvin)      1.11562     0.47532     0.39138
 Rotational constants (GHZ):          23.24574     9.90404     8.15501
 Zero-point vibrational energy     155602.5 (Joules/Mol)
                                   37.18990 (Kcal/Mol)
 Warning -- explicit consideration of   1 degrees of freedom as
           vibrations may cause significant error
 Vibrational temperatures:    561.25   938.18   979.90  1227.95  1238.07
          (Kelvin)           1246.27  1487.07  1558.50  1593.99  1635.34
                             1676.32  1717.60  2006.04  2049.44  4252.36
                             4284.34  4483.03  4493.66

 Zero-point correction=                           0.059266 (Hartree/Particle)
 Thermal correction to Energy=                    0.063015
 Thermal correction to Enthalpy=                  0.063960
 Thermal correction to Gibbs Free Energy=         0.032712
 Sum of electronic and zero-point Energies=           -154.225240
 Sum of electronic and thermal Energies=              -154.221491
 Sum of electronic and thermal Enthalpies=            -154.220546
 Sum of electronic and thermal Free Energies=         -154.251794

                     E (Thermal)             CV                S
                      KCal/Mol        Cal/Mol-Kelvin    Cal/Mol-Kelvin
 Total                   39.543             12.717             65.765
 Electronic               0.000              0.000              2.755
 Translational            0.889              2.981             37.771
 Rotational               0.889              2.981             22.664
 Vibrational             37.765              6.755              2.576
 Vibration     1          0.758              1.491              1.000

 Optimization completed.
    -- Stationary point found.
 Normal termination of Gaussian 09 at Thu Jan 31 06:25:31 2019.
