 Gaussian 09, Revision E.01,
 Gaussian 09:  EM64L-G09RevE.01 30-Nov-2015

 ---------------------------------------------
 #p b3lyp/6-311++G(3df,2p) freq symmetry=Loose
 ---------------------------------------------

 ---------
 b3lyp opt
 ---------
 Symbolic Z-matrix:
 Charge =  3 Multiplicity = 4

                         Standard orientation:
 ---------------------------------------------------------------------
 Center     Atomic      Atomic             Coordinates (Angstroms)
 Number     Number       Type             X           Y           Z
 ---------------------------------------------------------------------
      1          6           0        0.091225   -0.104228   -0.000113
      2          1           0       -2.042537   -1.297675    0.000188
      3          6           0        1.535489   -0.114917   -0.000307
      4          1           0        2.179560    0.758491    0.594996
      5          1           0        2.018665   -1.131199   -0.000962
      6          1           0        2.178061    0.761130   -0.592547
      7          6           0       -1.168620    0.893742   -0.000115
      8          6           0       -1.180385   -0.523055    0.000256
 ---------------------------------------------------------------------

 SCF Done:  E(UB3LYP) =  -152.821390664     A.U. after   15 cycles

 The electronic state is 4-A.
 Alpha  occ. eigenvalues --  -11.14228 -11.08108 -11.04958 -11.02334  -1.72653
 Alpha  occ. eigenvalues --   -1.54531  -1.35777  -1.32524  -1.27079  -1.20386
 Alpha  occ. eigenvalues --   -1.17228  -1.14579  -1.08897  -1.08017
 Alpha virt. eigenvalues --   -0.84492  -0.76126  -0.69991  -0.63649  -0.58652
 Alpha virt. eigenvalues --   -0.57200  -0.52945  -0.51240  -0.50354  -0.47596
 Alpha virt. eigenvalues --   -0.43820  -0.43025  -0.40866  -0.40168  -0.38758

  Beta  occ. eigenvalues --  -11.10999 -11.07810 -11.04449 -11.01178  -1.69153
  Beta  occ. eigenvalues --   -1.50558  -1.31822  -1.27002  -1.23189  -1.17442
  Beta  occ. eigenvalues --   -1.14217
  Beta virt. eigenvalues --   -0.97690  -0.94614  -0.91433  -0.79209  -0.73742
  Beta virt. eigenvalues --   -0.64113  -0.59840  -0.55798  -0.54050  -0.51183
  Beta virt. eigenvalues --   -0.49431  -0.48921  -0.45951  -0.43376  -0.41457

 Mulliken charges and spin densities:
               1          2
     1  C    0.404980   0.078531
     2  H    0.475495   0.118369
     3  C   -0.064879   0.605842
     4  H    0.349124   0.112793
     5  H    0.372198   0.031693
     6  H    0.348739   0.112458
     7  C    0.500976   1.557519
     8  C    0.613366   0.382796
 Sum of Mulliken charges =   3.00000   3.00000

 Dipole moment (field-independent basis, Debye):
    X=              2.9049    Y=              0.9053    Z=              0.0035  Tot=              3.0427
 Quadrupole moment (field-independent basis, Debye-Ang):
   XX=             24.2581   YY=             -5.9807   ZZ=            -16.7654
   XY=              5.1670   XZ=              0.0102   YZ=              0.0018

  Exact polarizability:  56.444   0.947  30.383   0.003  -0.000  20.068
 Approx polarizability:  98.063  -4.634  55.999   0.002  -0.004  29.574

                      1                      2                      3
                      A                      A                      A
 Frequencies --    233.6969               242.0154               343.8045
 Red. masses --      4.6068                 1.2412                 2.5548
 Frc consts  --      0.1482                 0.0428                 0.1779
 IR Inten    --     32.8414                43.2166                 9.1610

                      4                      5                      6
                      A                      A                      A
 Frequencies --    387.6284               511.1401               682.1600
 Red. masses --      2.9087                 1.1828                 1.3901
 Frc consts  --      0.2575                 0.1821                 0.3811
 IR Inten    --     59.2414                97.6002                49.0229

                      7                      8                      9
                      A                      A                      A
 Frequencies --    753.6640               770.9947               780.0611
 Red. masses --      2.2958                 1.3303                 1.5315
 Frc consts  --      0.7683                 0.4659                 0.5491
 IR Inten    --     17.3996                37.2835                77.9556

                     10                     11                     12
                      A                      A                      A
 Frequencies --    906.2606               991.1228              1087.8982
 Red. masses --      1.7900                 1.9457                 1.8787
 Frc consts  --      0.8662                 1.1261                 1.3100
 IR Inten    --    128.2585               205.8662                65.4528

                     13                     14                     15
                      A                      A                      A
 Frequencies --   1309.6613              1536.1907              1716.1334
 Red. masses --      1.1164                 6.0076                 1.0285
 Frc consts  --      1.1282                 8.3530                 1.7847
 IR Inten    --     28.5768               129.8353               346.9238

                     16                     17                     18
                      A                      A                      A
 Frequencies --   2198.8549              2455.7226              2744.0326
 Red. masses --      1.1085                 1.1478                 1.0909
 Frc consts  --      3.1577                 4.0781                 4.8398
 IR Inten    --    867.7433               995.5562               587.8819

 - Thermochemistry -
 -------------------
 Temperature   298.150 Kelvin.  Pressure   1.00000 Atm.
 Atom     1 has atomic number  6 and mass  12.00000

 Molecular mass:    52.03130 amu.
 Principal axes and moments of inertia in atomic units:
                           1         2         3
     Eigenvalues --    63.55178 285.47884 343.95504
           X            0.99834   0.05762   0.00005
           Y           -0.05762   0.99834   0.00008
           Z           -0.00005  -0.00008   1.00000
 This molecule is an asymmetric top.
 Rotational symmetry number  1.
 Rotational temperatures (Kelvin)      1.36289     0.30340     0.25182
 Rotational constants (GHZ):          28.39797     6.32180     5.24703
 Zero-point vibrational energy     117539.3 (Joules/Mol)
                                   28.09258 (Kcal/Mol)
 Warning -- explicit consideration of   5 degrees of freedom as
           vibrations may cause significant error
 Vibrational temperatures:    336.24   348.21   494.66   557.71   735.42
          (Kelvin)            981.47  1084.35  1109.29  1122.33  1303.91
                             1426.00  1565.24  1884.31  2210.23  2469.13
                             3163.66  3533.23  3948.05

 Zero-point correction=                           0.044768 (Hartree/Particle)
 Thermal correction to Energy=                    0.050033
 Thermal correction to Enthalpy=                  0.050977
 Thermal correction to Gibbs Free Energy=         0.016900
 Sum of electronic and zero-point Energies=           -152.776622
 Sum of electronic and thermal Energies=              -152.771358
 Sum of electronic and thermal Enthalpies=            -152.770413
 Sum of electronic and thermal Free Energies=         -152.804490

                     E (Thermal)             CV                S
                      KCal/Mol        Cal/Mol-Kelvin    Cal/Mol-Kelvin
 Total                   31.396             18.236             71.721
 Electronic               0.000              0.000              2.755
 Translational            0.889              2.981             37.771
 Rotational               0.889              2.981             23.349
 Vibrational             29.619             12.274              7.846
 Vibration     1          0.654              1.789              1.850
 Vibration     2          0.658              1.776              1.788
 Vibration     3          0.723              1.588              1.194
 Vibration     4          0.756              1.497              1.009
 Vibration     5          0.866              1.225              0.631

 Normal termination of Gaussian 09 at Wed Jun 22 00:58:19 2016.
