 Gaussian 09, Revision E.01,
 Gaussian 09:  EM64L-G09RevE.01 30-Nov-2015

 ---------------------------------------------
 #p b3lyp/6-311++G(3df,2p) freq symmetry=Loose
 ---------------------------------------------

 ---------
 b3lyp opt
 ---------
 Symbolic Z-matrix:
 Charge =  1 Multiplicity = 4

                         Standard orientation:
 ---------------------------------------------------------------------
 Center     Atomic      Atomic             Coordinates (Angstroms)
 Number     Number       Type             X           Y           Z
 ---------------------------------------------------------------------
      1          6           0       -0.338374    0.617749    0.000000
      2          1           0       -1.429078    0.623045    0.000000
      3          6           0        0.338374   -0.617749    0.000000
      4          1           0        1.429078   -0.623045    0.000000
      5          6           0        0.338374    1.798522    0.000000
      6          6           0       -0.338374   -1.798522    0.000000
      7          1           0       -0.117036   -2.857925    0.000000
      8          1           0        0.117036    2.857925    0.000000
 ---------------------------------------------------------------------

 SCF Done:  E(UB3LYP) =  -154.347700165     A.U. after   11 cycles

 The electronic state is 4-AU.
 Alpha  occ. eigenvalues --  -10.48295 -10.48293 -10.45845 -10.45801  -1.08796
 Alpha  occ. eigenvalues --   -1.00558  -0.86496  -0.79330  -0.74718  -0.69004
 Alpha  occ. eigenvalues --   -0.67254  -0.60737  -0.51968  -0.50273  -0.49956
 Alpha virt. eigenvalues --   -0.31465  -0.19814  -0.14413  -0.14304  -0.12257
 Alpha virt. eigenvalues --   -0.10223  -0.09691  -0.08602  -0.08420  -0.06321
 Alpha virt. eigenvalues --   -0.05898  -0.03743  -0.03647  -0.02841  -0.02256

  Beta  occ. eigenvalues --  -10.46056 -10.46054 -10.45709 -10.45663  -1.06524
  Beta  occ. eigenvalues --   -0.95843  -0.82512  -0.76967  -0.72847  -0.66947
  Beta  occ. eigenvalues --   -0.65102  -0.57133
  Beta virt. eigenvalues --   -0.40618  -0.32585  -0.31719  -0.25354  -0.17247
  Beta virt. eigenvalues --   -0.13964  -0.13826  -0.11614  -0.09783  -0.09197
  Beta virt. eigenvalues --   -0.08219  -0.07562  -0.05415  -0.05140  -0.03062

 Mulliken charges and spin densities:
               1          2
     1  C    0.148830   0.041742
     2  H    0.210748   0.052199
     3  C    0.148830   0.041742
     4  H    0.210748   0.052199
     5  C   -0.145713   1.398281
     6  C   -0.145713   1.398281
     7  H    0.286135   0.007779
     8  H    0.286135   0.007779
 Sum of Mulliken charges =   1.00000   3.00000

 Dipole moment (field-independent basis, Debye):
    X=             -0.0000    Y=             -0.0000    Z=              0.0000  Tot=              0.0000
 Quadrupole moment (field-independent basis, Debye-Ang):
   XX=            -19.5640   YY=             -1.8177   ZZ=            -22.8621
   XY=             -0.6635   XZ=              0.0000   YZ=              0.0000

  Exact polarizability:  35.049   4.778  80.629  -0.000   0.000  25.788
 Approx polarizability:  50.868  11.325 122.970  -0.000  -0.000  36.811

                      1                      2                      3
                     AU                     BU                     AG
 Frequencies --    196.7049               297.8366               507.1803
 Red. masses --      3.0168                 2.6026                 3.2211
 Frc consts  --      0.0688                 0.1360                 0.4882
 IR Inten    --      3.1411                 7.9547                 0.0000

                      4                      5                      6
                     AU                     BG                     AG
 Frequencies --    686.3200               704.1263               791.8817
 Red. masses --      1.1633                 1.3129                 1.4060
 Frc consts  --      0.3228                 0.3835                 0.5195
 IR Inten    --     68.2509                 0.0000                 0.0000

                      7                      8                      9
                     BU                     BG                     AU
 Frequencies --    824.4300               959.7616               979.8291
 Red. masses --      1.2473                 1.6098                 1.2402
 Frc consts  --      0.4995                 0.8737                 0.7016
 IR Inten    --     51.7600                 0.0000                13.6356

                     10                     11                     12
                     AG                     BU                     AG
 Frequencies --   1214.3446              1242.2430              1273.2094
 Red. masses --      4.9414                 1.2671                 1.2640
 Frc consts  --      4.2932                 1.1520                 1.2072
 IR Inten    --      0.0000                 0.4382                 0.0000

                     13                     14                     15
                     BU                     AG                     AG
 Frequencies --   1378.0848              1592.2696              3087.5452
 Red. masses --      5.3326                 4.8829                 1.0886
 Frc consts  --      5.9668                 7.2939                 6.1142
 IR Inten    --    180.1942                 0.0000                 0.0000

                     16                     17                     18
                     BU                     BU                     AG
 Frequencies --   3090.7374              3218.8290              3220.4936
 Red. masses --      1.0846                 1.0989                 1.0998
 Frc consts  --      6.1043                 6.7080                 6.7203
 IR Inten    --     28.8916               107.7278                 0.0000

 - Thermochemistry -
 -------------------
 Temperature   298.150 Kelvin.  Pressure   1.00000 Atm.
 Atom     1 has atomic number  6 and mass  12.00000

 Molecular mass:    52.03130 amu.
 Principal axes and moments of inertia in atomic units:
                           1         2         3
     Eigenvalues --    31.73335 374.21380 405.94715
           X            0.08865   0.99606   0.00000
           Y            0.99606  -0.08865   0.00000
           Z            0.00000  -0.00000   1.00000
 This molecule is an asymmetric top.
 Rotational symmetry number  2.
 Rotational temperatures (Kelvin)      2.72943     0.23146     0.21336
 Rotational constants (GHZ):          56.87207     4.82275     4.44575
 Zero-point vibrational energy     151123.2 (Joules/Mol)
                                   36.11931 (Kcal/Mol)
 Warning -- explicit consideration of   3 degrees of freedom as
           vibrations may cause significant error
 Vibrational temperatures:    283.01   428.52   729.72   987.46  1013.08
          (Kelvin)           1139.34  1186.17  1380.88  1409.75  1747.17
                             1787.31  1831.86  1982.75  2290.92  4442.28
                             4446.88  4631.17  4633.57

 Zero-point correction=                           0.057560 (Hartree/Particle)
 Thermal correction to Energy=                    0.062118
 Thermal correction to Enthalpy=                  0.063063
 Thermal correction to Gibbs Free Energy=         0.030828
 Sum of electronic and zero-point Energies=           -154.290140
 Sum of electronic and thermal Energies=              -154.285582
 Sum of electronic and thermal Enthalpies=            -154.284638
 Sum of electronic and thermal Free Energies=         -154.316872

                     E (Thermal)             CV                S
                      KCal/Mol        Cal/Mol-Kelvin    Cal/Mol-Kelvin
 Total                   38.980             15.198             67.844
 Electronic               0.000              0.000              2.755
 Translational            0.889              2.981             37.771
 Rotational               0.889              2.981             21.715
 Vibrational             37.202              9.237              5.603
 Vibration     1          0.636              1.844              2.164
 Vibration     2          0.691              1.678              1.429
 Vibration     3          0.862              1.234              0.640

 Optimization completed.
    -- Stationary point found.
 Normal termination of Gaussian 09 at Tue Jun 21 22:51:16 2016.
