 Gaussian 09, Revision E.01,
 Gaussian 09:  EM64L-G09RevE.01 30-Nov-2015

 ---------------------------------------------
 #p b3lyp/6-311++G(3df,2p) freq symmetry=Loose
 ---------------------------------------------

 ---------
 b3lyp opt
 ---------
 Symbolic Z-matrix:
 Charge =  3 Multiplicity = 2

                         Standard orientation:
 ---------------------------------------------------------------------
 Center     Atomic      Atomic             Coordinates (Angstroms)
 Number     Number       Type             X           Y           Z
 ---------------------------------------------------------------------
      1          6           0        0.559572    0.405586   -0.000149
      2          6           0       -2.022112   -0.179111   -0.000029
      3          6           0       -0.747445    0.048912   -0.000119
      4          1           0       -3.129051   -0.385405    0.000573
      5          1           0        0.752153    1.547536    0.000388
      6          6           0        1.821530   -0.294113    0.000031
      7          1           0        2.353443   -0.524695    0.970717
      8          1           0        2.354184   -0.525083   -0.970080
 ---------------------------------------------------------------------

 SCF Done:  E(UB3LYP) =  -153.004503672     A.U. after   15 cycles

 The electronic state is 2-A.
 Alpha  occ. eigenvalues --  -11.06508 -11.04230 -11.03935 -11.02546  -1.60221
 Alpha  occ. eigenvalues --   -1.53195  -1.41396  -1.26130  -1.23397  -1.20369
 Alpha  occ. eigenvalues --   -1.17516  -1.08063  -1.07341
 Alpha virt. eigenvalues --   -0.88093  -0.86077  -0.76547  -0.67312  -0.57588
 Alpha virt. eigenvalues --   -0.53031  -0.52209  -0.49481  -0.46510  -0.44327
 Alpha virt. eigenvalues --   -0.42615  -0.41861  -0.41258  -0.39968  -0.39409

  Beta  occ. eigenvalues --  -11.05524 -11.04167 -11.04048 -11.01813  -1.58747
  Beta  occ. eigenvalues --   -1.50533  -1.40633  -1.25265  -1.22607  -1.19166
  Beta  occ. eigenvalues --   -1.17608  -1.07080
  Beta virt. eigenvalues --   -0.93418  -0.87675  -0.85815  -0.70116  -0.66399
  Beta virt. eigenvalues --   -0.55974  -0.52589  -0.51851  -0.48938  -0.46473
  Beta virt. eigenvalues --   -0.44075  -0.41966  -0.41741  -0.40760  -0.39960

 Mulliken charges and spin densities:
               1          2
     1  C    0.098005  -0.132108
     2  C    0.637069   0.551288
     3  C    0.549699   0.529507
     4  H    0.515944  -0.016033
     5  H    0.337652   0.031362
     6  C    0.110943   0.038536
     7  H    0.375339  -0.001275
     8  H    0.375350  -0.001276
 Sum of Mulliken charges =   3.00000   1.00000

 Dipole moment (field-independent basis, Debye):
    X=              0.5022    Y=             -0.2801    Z=              0.0014  Tot=              0.5750
 Quadrupole moment (field-independent basis, Debye-Ang):
   XX=             38.9639   YY=            -11.1871   ZZ=            -15.2693
   XY=              0.6326   XZ=             -0.0013   YZ=              0.0008

  Exact polarizability:  66.456   1.651  23.477   0.001   0.000  20.510
 Approx polarizability: 121.528   7.963  36.245   0.003   0.000  28.207

                      1                      2                      3
                      A                      A                      A
 Frequencies --    217.3441               254.8822               467.9527
 Red. masses --      3.2838                 2.3048                 3.5173
 Frc consts  --      0.0914                 0.0882                 0.4538
 IR Inten    --     24.3731                47.7370                 4.7449

                      4                      5                      6
                      A                      A                      A
 Frequencies --    479.2223               679.1124               702.7645
 Red. masses --      1.4742                 1.0772                 1.3485
 Frc consts  --      0.1995                 0.2927                 0.3924
 IR Inten    --      0.6898                30.8232                22.4028

                      7                      8                      9
                      A                      A                      A
 Frequencies --    786.3599               836.1400               958.8133
 Red. masses --      4.0064                 1.3433                 1.7195
 Frc consts  --      1.4596                 0.5533                 0.9313
 IR Inten    --     14.2562                17.4848                 3.6486

                     10                     11                     12
                      A                      A                      A
 Frequencies --    972.9850              1149.7606              1259.2184
 Red. masses --      1.4007                 1.6583                 1.2265
 Frc consts  --      0.7813                 1.2916                 1.1458
 IR Inten    --     12.6669                13.2797                71.7971

                     13                     14                     15
                      A                      A                      A
 Frequencies --   1337.7597              1798.9008              2465.9947
 Red. masses --      2.3549                 6.0384                 1.0733
 Frc consts  --      2.4830                11.5130                 3.8454
 IR Inten    --     98.1452               793.7550               580.9710

                     16                     17                     18
                      A                      A                      A
 Frequencies --   2690.1643              2782.9030              2856.9426
 Red. masses --      1.0455                 1.1214                 1.1726
 Frc consts  --      4.4579                 5.1168                 5.6392
 IR Inten    --    773.6888               380.4574               495.8315

 - Thermochemistry -
 -------------------
 Temperature   298.150 Kelvin.  Pressure   1.00000 Atm.
 Atom     1 has atomic number  6 and mass  12.00000

 Molecular mass:    52.03130 amu.
 Principal axes and moments of inertia in atomic units:
                           1         2         3
     Eigenvalues --    30.14734 438.33085 454.92181
           X            1.00000  -0.00083  -0.00001
           Y            0.00083   1.00000   0.00009
           Z            0.00001  -0.00009   1.00000
 This molecule is an asymmetric top.
 Rotational symmetry number  1.
 Rotational temperatures (Kelvin)      2.87302     0.19760     0.19039
 Rotational constants (GHZ):          59.86403     4.11730     3.96715
 Zero-point vibrational energy     135759.5 (Joules/Mol)
                                   32.44731 (Kcal/Mol)
 Warning -- explicit consideration of   4 degrees of freedom as
           vibrations may cause significant error
 Vibrational temperatures:    312.71   366.72   673.28   689.49   977.09
          (Kelvin)           1011.12  1131.40  1203.02  1379.52  1399.91
                             1654.25  1811.73  1924.74  2588.21  3548.01
                             3870.54  4003.97  4110.50

 Zero-point correction=                           0.051708 (Hartree/Particle)
 Thermal correction to Energy=                    0.056556
 Thermal correction to Enthalpy=                  0.057500
 Thermal correction to Gibbs Free Energy=         0.024739
 Sum of electronic and zero-point Energies=           -152.952796
 Sum of electronic and thermal Energies=              -152.947948
 Sum of electronic and thermal Enthalpies=            -152.947004
 Sum of electronic and thermal Free Energies=         -152.979765

                     E (Thermal)             CV                S
                      KCal/Mol        Cal/Mol-Kelvin    Cal/Mol-Kelvin
 Total                   35.489             16.510             68.951
 Electronic               0.000              0.000              1.377
 Translational            0.889              2.981             37.771
 Rotational               0.889              2.981             23.312
 Vibrational             33.712             10.548              6.491
 Vibration     1          0.646              1.815              1.981
 Vibration     2          0.665              1.755              1.697
 Vibration     3          0.825              1.321              0.743
 Vibration     4          0.836              1.296              0.712

 Optimization completed.
    -- Stationary point found.
 Normal termination of Gaussian 09 at Wed Jun 22 00:19:18 2016.
