 Gaussian 09, Revision E.01,
 Gaussian 09:  EM64L-G09RevE.01 30-Nov-2015

 ---------------------------------------------
 #p b3lyp/6-311++G(3df,2p) freq symmetry=Loose
 ---------------------------------------------

 ---------
 b3lyp opt
 ---------
 Symbolic Z-matrix:
 Charge =  1 Multiplicity = 4

                         Standard orientation:
 ---------------------------------------------------------------------
 Center     Atomic      Atomic             Coordinates (Angstroms)
 Number     Number       Type             X           Y           Z
 ---------------------------------------------------------------------
      1          6           0       -1.879726   -0.004127    0.000538
      2          1           0       -2.302078   -0.481152   -0.891918
      3          1           0       -2.197585    1.057647   -0.041132
      4          1           0       -2.306199   -0.421690    0.919095
      5          6           0       -0.464521   -0.056390    0.002006
      6          6           0        0.817779   -0.000968    0.000556
      7          6           0        2.149416    0.110975    0.000156
      8          1           0        3.068178   -0.451746   -0.005579
 ---------------------------------------------------------------------

 SCF Done:  E(UB3LYP) =  -154.327183080     A.U. after   19 cycles

 The electronic state is 4-A.
 Alpha  occ. eigenvalues --  -10.51869 -10.49540 -10.48077 -10.41820  -1.09719
 Alpha  occ. eigenvalues --   -1.01492  -0.94135  -0.76292  -0.71736  -0.68321
 Alpha  occ. eigenvalues --   -0.67799  -0.62021  -0.60069  -0.48834  -0.46108
 Alpha virt. eigenvalues --   -0.23677  -0.19174  -0.16534  -0.13593  -0.10886
 Alpha virt. eigenvalues --   -0.10511  -0.09865  -0.07567  -0.06986  -0.06769
 Alpha virt. eigenvalues --   -0.06138  -0.05776  -0.04789  -0.02635  -0.02547

  Beta  occ. eigenvalues --  -10.51414 -10.47897 -10.45638 -10.41841  -1.04945
  Beta  occ. eigenvalues --   -0.98438  -0.90016  -0.73699  -0.70228  -0.65851
  Beta  occ. eigenvalues --   -0.64439  -0.56603
  Beta virt. eigenvalues --   -0.47722  -0.32635  -0.32363  -0.16406  -0.16063
  Beta virt. eigenvalues --   -0.15107  -0.12695  -0.10498  -0.10402  -0.09396
  Beta virt. eigenvalues --   -0.06661  -0.05897  -0.05743  -0.05212  -0.05181

 Mulliken charges and spin densities:
               1          2
     1  C   -0.342989  -0.011943
     2  H    0.214840   0.047200
     3  H    0.224114   0.079689
     4  H    0.213837   0.044163
     5  C    0.185495   1.006096
     6  C    0.404529   0.443218
     7  C   -0.195707   1.409075
     8  H    0.295880  -0.017497
 Sum of Mulliken charges =   1.00000   3.00000

 Dipole moment (field-independent basis, Debye):
    X=              0.1287    Y=             -0.2592    Z=             -0.0218  Tot=              0.2902
 Quadrupole moment (field-independent basis, Debye-Ang):
   XX=              0.0701   YY=            -20.2384   ZZ=            -22.2060
   XY=             -1.7615   XZ=              0.0221   YZ=              0.0116

  Exact polarizability:  86.795   0.100  27.921   0.103   0.011  28.488
 Approx polarizability: 134.117   2.696  39.862   0.184  -0.004  38.834

                      1                      2                      3
                      A                      A                      A
 Frequencies --     68.6245               157.5876               178.2329
 Red. masses --      1.1648                 3.3237                 3.0692
 Frc consts  --      0.0032                 0.0486                 0.0574
 IR Inten    --     69.6842                 5.9184                 7.2916

                      4                      5                      6
                      A                      A                      A
 Frequencies --    349.9330               400.5619               581.7550
 Red. masses --      8.5154                 2.0805                 2.0834
 Frc consts  --      0.6144                 0.1967                 0.4154
 IR Inten    --      0.8125                22.2585                91.5669

                      7                      8                      9
                      A                      A                      A
 Frequencies --    775.9679               812.6769               885.2152
 Red. masses --      4.8154                 1.3238                 1.3938
 Frc consts  --      1.7083                 0.5151                 0.6435
 IR Inten    --     14.4168                14.1827                12.7419

                     10                     11                     12
                      A                      A                      A
 Frequencies --   1251.7724              1295.7388              1326.3349
 Red. masses --      1.0409                 1.1106                 4.4225
 Frc consts  --      0.9610                 1.0986                 4.5838
 IR Inten    --     17.3271                74.6943                93.7162

                     13                     14                     15
                      A                      A                      A
 Frequencies --   1415.5252              1897.8655              2874.4349
 Red. masses --      1.2318                10.7307                 1.0590
 Frc consts  --      1.4542                22.7725                 5.1554
 IR Inten    --     13.7831                36.4174               187.5635

                     16                     17                     18
                      A                      A                      A
 Frequencies --   2989.6838              3011.9568              3266.0625
 Red. masses --      1.0649                 1.0857                 1.0999
 Frc consts  --      5.6078                 5.8032                 6.9125
 IR Inten    --     44.3659                23.8568               182.0332

 - Thermochemistry -
 -------------------
 Temperature   298.150 Kelvin.  Pressure   1.00000 Atm.
 Atom     1 has atomic number  6 and mass  12.00000

 Molecular mass:    52.03130 amu.
 Principal axes and moments of inertia in atomic units:
                           1         2         3
     Eigenvalues --    12.73276 481.80997 482.72342
           X            0.99993  -0.01215   0.00003
           Y            0.01215   0.99992   0.00233
           Z           -0.00006  -0.00233   1.00000
 This molecule is an asymmetric top.
 Rotational symmetry number  1.
 Rotational temperatures (Kelvin)      6.80244     0.17977     0.17943
 Rotational constants (GHZ):         141.74003     3.74575     3.73867
 Zero-point vibrational energy     140800.0 (Joules/Mol)
                                   33.65202 (Kcal/Mol)
 Warning -- explicit consideration of   6 degrees of freedom as
           vibrations may cause significant error
 Vibrational temperatures:     98.74   226.73   256.44   503.47   576.32
          (Kelvin)            837.01  1116.44  1169.26  1273.63  1801.02
                             1864.28  1908.30  2036.62  2730.60  4135.67
                             4301.48  4333.53  4699.13

 Zero-point correction=                           0.053628 (Hartree/Particle)
 Thermal correction to Energy=                    0.059584
 Thermal correction to Enthalpy=                  0.060528
 Thermal correction to Gibbs Free Energy=         0.024637
 Sum of electronic and zero-point Energies=           -154.273555
 Sum of electronic and thermal Energies=              -154.267599
 Sum of electronic and thermal Enthalpies=            -154.266655
 Sum of electronic and thermal Free Energies=         -154.302546

                     E (Thermal)             CV                S
                      KCal/Mol        Cal/Mol-Kelvin    Cal/Mol-Kelvin
 Total                   37.389             18.229             75.539
 Electronic               0.000              0.000              2.755
 Translational            0.889              2.981             37.771
 Rotational               0.889              2.981             22.609
 Vibrational             35.612             12.267             12.405
 Vibration     1          0.598              1.969              4.192
 Vibration     2          0.621              1.894              2.579
 Vibration     3          0.629              1.869              2.347
 Vibration     4          0.727              1.575              1.166
 Vibration     5          0.766              1.469              0.961
 Vibration     6          0.939              1.071              0.482

 Normal termination of Gaussian 09 at Tue Jun 21 22:44:58 2016.
