 Gaussian 09, Revision E.01,
 Gaussian 09:  EM64L-G09RevE.01 30-Nov-2015

 ---------------------------------------------
 #p b3lyp/6-311++G(3df,2p) freq symmetry=Loose
 ---------------------------------------------

 ---------
 b3lyp opt
 ---------
 Symbolic Z-matrix:
 Charge =  1 Multiplicity = 4

                         Standard orientation:
 ---------------------------------------------------------------------
 Center     Atomic      Atomic             Coordinates (Angstroms)
 Number     Number       Type             X           Y           Z
 ---------------------------------------------------------------------
      1          6           0       -1.667769    0.125190    0.000184
      2          1           0       -2.556577   -0.493600    0.001131
      3          1           0       -1.803579    1.200257    0.000062
      4          6           0       -0.407225   -0.442245   -0.000354
      5          1           0       -0.291888   -1.519024   -0.000545
      6          6           0        2.005081   -0.162846    0.000466
      7          6           0        0.737369    0.372005   -0.000395
      8          1           0        0.647307    1.459742   -0.000059
 ---------------------------------------------------------------------

 SCF Done:  E(UB3LYP) =  -154.318590515     A.U. after   14 cycles

 The electronic state is 4-A.
 Alpha  occ. eigenvalues --  -10.52213 -10.47791 -10.46253 -10.45306  -1.09191
 Alpha  occ. eigenvalues --   -1.00728  -0.86048  -0.79996  -0.71560  -0.69586
 Alpha  occ. eigenvalues --   -0.62759  -0.62302  -0.60980  -0.52074  -0.48249
 Alpha virt. eigenvalues --   -0.32291  -0.20540  -0.15102  -0.14279  -0.12418
 Alpha virt. eigenvalues --   -0.09882  -0.09394  -0.08530  -0.07800  -0.06104
 Alpha virt. eigenvalues --   -0.05693  -0.04117  -0.03872  -0.03167  -0.01789

  Beta  occ. eigenvalues --  -10.48136 -10.47499 -10.45587 -10.45079  -1.06950
  Beta  occ. eigenvalues --   -0.96417  -0.82960  -0.77550  -0.70147  -0.66678
  Beta  occ. eigenvalues --   -0.62196  -0.57363
  Beta virt. eigenvalues --   -0.40721  -0.40534  -0.28157  -0.25698  -0.17663
  Beta virt. eigenvalues --   -0.14782  -0.14107  -0.11725  -0.09418  -0.09074
  Beta virt. eigenvalues --   -0.08074  -0.07166  -0.05367  -0.05260  -0.03023

 Mulliken charges and spin densities:
               1          2
     1  C   -0.266916   0.456488
     2  H    0.231091  -0.009498
     3  H    0.201493  -0.009736
     4  C    0.201146   0.104405
     5  H    0.207822  -0.004419
     6  C    0.065511   2.324854
     7  C    0.155701   0.082140
     8  H    0.204152   0.055767
 Sum of Mulliken charges =   1.00000   3.00000

 Dipole moment (field-independent basis, Debye):
    X=             -0.7145    Y=              0.2661    Z=              0.0008  Tot=              0.7624
 Quadrupole moment (field-independent basis, Debye-Ang):
   XX=             -7.1255   YY=            -17.5335   ZZ=            -22.8040
   XY=             -0.2118   XZ=             -0.0007   YZ=             -0.0001

  Exact polarizability:  77.664  -1.416  35.474  -0.004   0.000  25.592
 Approx polarizability: 127.027  -4.634  50.283   0.005  -0.003  36.510

                      1                      2                      3
                      A                      A                      A
 Frequencies --    199.7334               318.8991               489.9359
 Red. masses --      3.9507                 3.0833                 1.1037
 Frc consts  --      0.0929                 0.1847                 0.1561
 IR Inten    --      1.5804                 0.0602                 1.2294

                      4                      5                      6
                      A                      A                      A
 Frequencies --    541.8715               891.2301               966.6531
 Red. masses --      4.4349                 1.6228                 1.4622
 Frc consts  --      0.7672                 0.7595                 0.8050
 IR Inten    --      0.3860                 4.2547                 0.3383

                      7                      8                      9
                      A                      A                      A
 Frequencies --    984.2931              1068.2796              1225.2150
 Red. masses --      1.1239                 1.4498                 2.5670
 Frc consts  --      0.6416                 0.9748                 2.2704
 IR Inten    --     39.5886                 9.6042                 0.5329

                     10                     11                     12
                      A                      A                      A
 Frequencies --   1273.8281              1284.6272              1320.4456
 Red. masses --      1.3509                 2.2500                 1.9808
 Frc consts  --      1.2915                 2.1877                 2.0349
 IR Inten    --     34.0421                34.5111                38.0918

                     13                     14                     15
                      A                      A                      A
 Frequencies --   1490.1600              1579.6892              3080.9735
 Red. masses --      1.3837                 2.7421                 1.0876
 Frc consts  --      1.8103                 4.0315                 6.0829
 IR Inten    --     14.5023                20.3806                11.8856

                     16                     17                     18
                      A                      A                      A
 Frequencies --   3138.0637              3186.7038              3243.9802
 Red. masses --      1.0565                 1.0940                 1.1205
 Frc consts  --      6.1299                 6.5456                 6.9472
 IR Inten    --     14.7756                 8.8065                13.5347

 - Thermochemistry -
 -------------------
 Temperature   298.150 Kelvin.  Pressure   1.00000 Atm.
 Atom     1 has atomic number  6 and mass  12.00000

 Molecular mass:    52.03130 amu.
 Principal axes and moments of inertia in atomic units:
                           1         2         3
     Eigenvalues --    38.11881 357.85135 395.97010
           X            0.99999   0.00483  -0.00003
           Y           -0.00483   0.99999   0.00002
           Z            0.00003  -0.00002   1.00000
 This molecule is an asymmetric top.
 Rotational symmetry number  1.
 Rotational temperatures (Kelvin)      2.27221     0.24204     0.21874
 Rotational constants (GHZ):          47.34517     5.04327     4.55777
 Zero-point vibrational energy     157216.7 (Joules/Mol)
                                   37.57570 (Kcal/Mol)
 Warning -- explicit consideration of   4 degrees of freedom as
           vibrations may cause significant error
 Vibrational temperatures:    287.37   458.82   704.91   779.63  1282.28
          (Kelvin)           1390.80  1416.18  1537.01  1762.81  1832.75
                             1848.29  1899.82  2144.01  2272.82  4432.83
                             4514.97  4584.95  4667.36

 Zero-point correction=                           0.059881 (Hartree/Particle)
 Thermal correction to Energy=                    0.064322
 Thermal correction to Enthalpy=                  0.065266
 Thermal correction to Gibbs Free Energy=         0.032485
 Sum of electronic and zero-point Energies=           -154.258710
 Sum of electronic and thermal Energies=              -154.254269
 Sum of electronic and thermal Enthalpies=            -154.253325
 Sum of electronic and thermal Free Energies=         -154.286105

                     E (Thermal)             CV                S
                      KCal/Mol        Cal/Mol-Kelvin    Cal/Mol-Kelvin
 Total                   40.362             14.278             68.992
 Electronic               0.000              0.000              2.755
 Translational            0.889              2.981             37.771
 Rotational               0.889              2.981             23.206
 Vibrational             38.585              8.317              5.261
 Vibration     1          0.638              1.840              2.136
 Vibration     2          0.705              1.637              1.316
 Vibration     3          0.846              1.272              0.684
 Vibration     4          0.897              1.158              0.561

 Optimization completed.
    -- Stationary point found.
 Normal termination of Gaussian 09 at Tue Jun 21 22:32:23 2016.
