 Gaussian 09, Revision E.01,
 Gaussian 09:  EM64L-G09RevE.01 30-Nov-2015

 ---------------------------------------------
 #p b3lyp/6-311++G(3df,2p) freq symmetry=Loose
 ---------------------------------------------

 ---------
 b3lyp opt
 ---------
 Symbolic Z-matrix:
 Charge =  1 Multiplicity = 4

                         Standard orientation:
 ---------------------------------------------------------------------
 Center     Atomic      Atomic             Coordinates (Angstroms)
 Number     Number       Type             X           Y           Z
 ---------------------------------------------------------------------
      1          6           0        0.000013    0.825665   -0.253162
      2          6           0       -1.174122   -0.000141    0.135537
      3          6           0        0.000013   -0.824706   -0.254463
      4          6           0        1.174108   -0.000141    0.135659
      5          1           0       -2.057835   -0.000047   -0.499836
      6          1           0       -1.410136   -0.001984    1.208941
      7          1           0        2.057887   -0.000047   -0.499622
      8          1           0        1.410010   -0.001984    1.209088
 ---------------------------------------------------------------------

 SCF Done:  E(UB3LYP) =  -154.284504822     A.U. after   12 cycles

 The electronic state is 4-A.
 Alpha  occ. eigenvalues --  -10.53973 -10.53957 -10.46775 -10.46772  -1.21746
 Alpha  occ. eigenvalues --   -0.97800  -0.83966  -0.82586  -0.75710  -0.70109
 Alpha  occ. eigenvalues --   -0.65879  -0.64547  -0.62049  -0.51670  -0.49719
 Alpha virt. eigenvalues --   -0.28191  -0.16255  -0.14443  -0.13539  -0.13055
 Alpha virt. eigenvalues --   -0.10151  -0.09471  -0.09359  -0.07167  -0.05616
 Alpha virt. eigenvalues --   -0.05546  -0.04567  -0.03739  -0.03316  -0.02872

  Beta  occ. eigenvalues --  -10.51432 -10.51421 -10.46736 -10.46733  -1.18348
  Beta  occ. eigenvalues --   -0.96820  -0.80374  -0.75841  -0.72202  -0.68139
  Beta  occ. eigenvalues --   -0.64683  -0.62759
  Beta virt. eigenvalues --   -0.43462  -0.37508  -0.31040  -0.20943  -0.15793
  Beta virt. eigenvalues --   -0.13377  -0.13243  -0.12700  -0.09837  -0.09246
  Beta virt. eigenvalues --   -0.08687  -0.06095  -0.05142  -0.04227  -0.03876

 Mulliken charges and spin densities:
               1          2
     1  C    0.304549   1.480001
     2  C   -0.249725  -0.123200
     3  C    0.304182   1.479891
     4  C   -0.249726  -0.123200
     5  H    0.204217   0.045458
     6  H    0.241143   0.097796
     7  H    0.204217   0.045458
     8  H    0.241143   0.097796
 Sum of Mulliken charges =   1.00000   3.00000

 Dipole moment (field-independent basis, Debye):
    X=             -0.0000    Y=             -0.0023    Z=              0.7292  Tot=              0.7292
 Quadrupole moment (field-independent basis, Debye-Ang):
   XX=            -12.1033   YY=            -20.5020   ZZ=            -19.4763
   XY=              0.0000   XZ=              0.0004   YZ=             -0.0048

  Exact polarizability:  43.813   0.000  32.732   0.001  -0.000  29.473
 Approx polarizability:  61.573  -0.000  61.229   0.001   0.007  42.485

                      1                      2                      3
                      A                      A                      A
 Frequencies --    386.4547               651.7649               681.4562
 Red. masses --      1.8891                 3.0215                 6.5746
 Frc consts  --      0.1662                 0.7562                 1.7988
 IR Inten    --      3.0669                 8.9778                 0.0000

                      4                      5                      6
                      A                      A                      A
 Frequencies --    852.9435               860.0295               866.6241
 Red. masses --      1.2606                 1.0719                 7.1078
 Frc consts  --      0.5403                 0.4671                 3.1452
 IR Inten    --      0.3326                 0.0001                 0.5290

                      7                      8                      9
                      A                      A                      A
 Frequencies --   1033.1643              1083.3026              1107.5362
 Red. masses --      2.0069                 1.2275                 1.2519
 Frc consts  --      1.2622                 0.8487                 0.9048
 IR Inten    --      0.6967                18.5916                 0.0001

                     10                     11                     12
                      A                      A                      A
 Frequencies --   1136.5133              1164.6333              1193.9216
 Red. masses --      3.9823                 1.4202                 8.1336
 Frc consts  --      3.0306                 1.1349                 6.8310
 IR Inten    --      0.0047                49.2197                 5.2847

                     13                     14                     15
                      A                      A                      A
 Frequencies --   1393.6848              1423.1560              2955.0694
 Red. masses --      1.0842                 1.1324                 1.0614
 Frc consts  --      1.2408                 1.3513                 5.4611
 IR Inten    --     51.1863                12.1757                63.3419

                     16                     17                     18
                      A                      A                      A
 Frequencies --   2977.5242              3115.5371              3122.9340
 Red. masses --      1.0667                 1.0930                 1.1007
 Frc consts  --      5.5716                 6.2508                 6.3245
 IR Inten    --     28.5471                43.9167                21.4005

 - Thermochemistry -
 -------------------
 Temperature   298.150 Kelvin.  Pressure   1.00000 Atm.
 Atom     1 has atomic number  6 and mass  12.00000

 Molecular mass:    52.03130 amu.
 Principal axes and moments of inertia in atomic units:
                           1         2         3
     Eigenvalues --    77.63980 182.22317 221.30267
           X            1.00000  -0.00000  -0.00005
           Y            0.00000   1.00000  -0.00044
           Z            0.00005   0.00044   1.00000
 This molecule is an asymmetric top.
 Rotational symmetry number  1.
 Rotational temperatures (Kelvin)      1.11559     0.47532     0.39138
 Rotational constants (GHZ):          23.24505     9.90402     8.15508
 Zero-point vibrational energy     155551.9 (Joules/Mol)
                                   37.17780 (Kcal/Mol)
 Warning -- explicit consideration of   1 degrees of freedom as
           vibrations may cause significant error
 Vibrational temperatures:    556.02   937.74   980.46  1227.19  1237.39
          (Kelvin)           1246.88  1486.49  1558.63  1593.50  1635.19
                             1675.65  1717.78  2005.20  2047.60  4251.68
                             4283.99  4482.56  4493.20

 Zero-point correction=                           0.059247 (Hartree/Particle)
 Thermal correction to Energy=                    0.063000
 Thermal correction to Enthalpy=                  0.063944
 Thermal correction to Gibbs Free Energy=         0.032690
 Sum of electronic and zero-point Energies=           -154.225258
 Sum of electronic and thermal Energies=              -154.221505
 Sum of electronic and thermal Enthalpies=            -154.220561
 Sum of electronic and thermal Free Energies=         -154.251815

                     E (Thermal)             CV                S
                      KCal/Mol        Cal/Mol-Kelvin    Cal/Mol-Kelvin
 Total                   39.533             12.727             65.780
 Electronic               0.000              0.000              2.755
 Translational            0.889              2.981             37.771
 Rotational               0.889              2.981             22.664
 Vibrational             37.756              6.765              2.590
 Vibration     1          0.755              1.499              1.014

 Optimization completed.
    -- Stationary point found.
 Normal termination of Gaussian 09 at Wed Jul 20 01:38:10 2016.
