 Gaussian 09, Revision E.01,
 Gaussian 09:  EM64L-G09RevE.01 30-Nov-2015

 ---------------------------------------------
 #p b3lyp/6-311++G(3df,2p) freq symmetry=Loose
 ---------------------------------------------

 ---------
 b3lyp opt
 ---------
 Symbolic Z-matrix:
 Charge =  3 Multiplicity = 2

                         Standard orientation:
 ---------------------------------------------------------------------
 Center     Atomic      Atomic             Coordinates (Angstroms)
 Number     Number       Type             X           Y           Z
 ---------------------------------------------------------------------
      1          6           0       -0.710131    0.367986    0.000013
      2          1           0       -1.283460    1.387679    0.000082
      3          6           0        1.749621   -0.438374    0.000005
      4          1           0        2.748306   -0.967216   -0.000014
      5          6           0       -1.749665   -0.438319   -0.000076
      6          1           0       -2.748667   -0.966511   -0.000142
      7          6           0        0.710298    0.368350    0.000046
      8          1           0        1.283082    1.388188    0.000142
 ---------------------------------------------------------------------

 SCF Done:  E(UB3LYP) =  -152.987899961     A.U. after   14 cycles

 The electronic state is 2-A.
 Alpha  occ. eigenvalues --  -11.08463 -11.08457 -10.99957 -10.99916  -1.60517
 Alpha  occ. eigenvalues --   -1.54801  -1.38292  -1.27387  -1.24352  -1.22144
 Alpha  occ. eigenvalues --   -1.14625  -1.11720  -1.04642
 Alpha virt. eigenvalues --   -0.86294  -0.84461  -0.81715  -0.66309  -0.59076
 Alpha virt. eigenvalues --   -0.56710  -0.54580  -0.48632  -0.48227  -0.43707
 Alpha virt. eigenvalues --   -0.42759  -0.42054  -0.40369  -0.40056  -0.38955

  Beta  occ. eigenvalues --  -11.07653 -11.07647 -10.99874 -10.99831  -1.59162
  Beta  occ. eigenvalues --   -1.52471  -1.37318  -1.26443  -1.23780  -1.22031
  Beta  occ. eigenvalues --   -1.14270  -1.07664
  Beta virt. eigenvalues --   -0.93719  -0.85272  -0.83494  -0.76941  -0.63231
  Beta virt. eigenvalues --   -0.58819  -0.55923  -0.53852  -0.48487  -0.48038
  Beta virt. eigenvalues --   -0.43651  -0.42434  -0.41631  -0.40051  -0.39542

 Mulliken charges and spin densities:
               1          2
     1  C    0.230428   0.125888
     2  H    0.306881  -0.008992
     3  C    0.460281   0.394552
     4  H    0.502729  -0.011273
     5  C    0.460076   0.394316
     6  H    0.502690  -0.011272
     7  C    0.230015   0.125763
     8  H    0.306900  -0.008982
 Sum of Mulliken charges =   3.00000   1.00000

 Dipole moment (field-independent basis, Debye):
    X=              0.0003    Y=             -0.9296    Z=             -0.0001  Tot=              0.9296
 Quadrupole moment (field-independent basis, Debye-Ang):
   XX=             34.7287   YY=             -5.2591   ZZ=            -18.8512
   XY=             -0.0030   XZ=              0.0012   YZ=              0.0011

  Exact polarizability:  70.166  -0.001  30.476   0.001   0.001  18.357
 Approx polarizability: 121.877   0.005  55.828   0.002   0.002  25.443

                      1                      2                      3
                      A                      A                      A
 Frequencies --    214.5090               269.1505               310.6068
 Red. masses --      2.9091                 1.8692                 2.5430
 Frc consts  --      0.0789                 0.0798                 0.1446
 IR Inten    --     38.9209                 0.0000                 0.0078

                      4                      5                      6
                      A                      A                      A
 Frequencies --    498.0287               707.4591               734.3252
 Red. masses --      1.2018                 1.2355                 1.4384
 Frc consts  --      0.1756                 0.3643                 0.4570
 IR Inten    --    184.6187                 0.0001                16.4327

                      7                      8                      9
                      A                      A                      A
 Frequencies --    773.0142               797.3669               958.1103
 Red. masses --      1.7808                 2.2061                 1.6488
 Frc consts  --      0.6270                 0.8264                 0.8918
 IR Inten    --      0.0000                63.9877                 0.5100

                     10                     11                     12
                      A                      A                      A
 Frequencies --    962.4633               988.0681              1031.3426
 Red. masses --      1.4790                 1.3969                 1.2852
 Frc consts  --      0.8072                 0.8035                 0.8054
 IR Inten    --      3.1292                77.4240                 0.5586

                     13                     14                     15
                      A                      A                      A
 Frequencies --   1508.2549              1752.0775              2393.8128
 Red. masses --      3.5168                 5.9542                 1.0698
 Frc consts  --      4.7136                10.7691                 3.6119
 IR Inten    --    807.4742               166.6892               199.6979

                     16                     17                     18
                      A                      A                      A
 Frequencies --   2428.9023              2799.6962              2815.6812
 Red. masses --      1.0807                 1.1456                 1.1446
 Frc consts  --      3.7564                 5.2905                 5.3467
 IR Inten    --    932.6949              1017.4699               166.7387

 - Thermochemistry -
 -------------------
 Temperature   298.150 Kelvin.  Pressure   1.00000 Atm.
 Atom     1 has atomic number  6 and mass  12.00000

 Molecular mass:    52.03130 amu.
 Principal axes and moments of inertia in atomic units:
                           1         2         3
     Eigenvalues --    48.63229 371.82516 420.45744
           X            1.00000  -0.00002  -0.00002
           Y            0.00002   1.00000  -0.00008
           Z            0.00002   0.00008   1.00000
 This molecule is an asymmetric top.
 Rotational symmetry number  1.
 Rotational temperatures (Kelvin)      1.78099     0.23294     0.20600
 Rotational constants (GHZ):          37.10994     4.85374     4.29233
 Zero-point vibrational energy     131247.5 (Joules/Mol)
                                   31.36891 (Kcal/Mol)
 Warning -- explicit consideration of   4 degrees of freedom as
           vibrations may cause significant error
 Vibrational temperatures:    308.63   387.25   446.89   716.55  1017.87
          (Kelvin)           1056.53  1112.19  1147.23  1378.51  1384.77
                             1421.61  1483.87  2170.04  2520.85  3444.16
                             3494.64  4028.13  4051.13

 Zero-point correction=                           0.049990 (Hartree/Particle)
 Thermal correction to Energy=                    0.054992
 Thermal correction to Enthalpy=                  0.055936
 Thermal correction to Gibbs Free Energy=         0.022799
 Sum of electronic and zero-point Energies=           -152.937910
 Sum of electronic and thermal Energies=              -152.932908
 Sum of electronic and thermal Enthalpies=            -152.931964
 Sum of electronic and thermal Free Energies=         -152.965101

                     E (Thermal)             CV                S
                      KCal/Mol        Cal/Mol-Kelvin    Cal/Mol-Kelvin
 Total                   34.508             17.039             69.744
 Electronic               0.000              0.000              1.377
 Translational            0.889              2.981             37.771
 Rotational               0.889              2.981             23.546
 Vibrational             32.731             11.077              7.050
 Vibration     1          0.644              1.819              2.005
 Vibration     2          0.674              1.730              1.602
 Vibration     3          0.699              1.653              1.359
 Vibration     4          0.854              1.254              0.663

 Optimization completed.
    -- Stationary point found.
 Normal termination of Gaussian 09 at Tue Jul 19 21:10:09 2016.
