 Gaussian 09, Revision E.01,
 Gaussian 09:  EM64L-G09RevE.01 30-Nov-2015

 ---------------------------------------------
 #p b3lyp/6-311++G(3df,2p) freq symmetry=Loose
 ---------------------------------------------

 ---------
 b3lyp opt
 ---------
 Symbolic Z-matrix:
 Charge =  1 Multiplicity = 4

                         Standard orientation:
 ---------------------------------------------------------------------
 Center     Atomic      Atomic             Coordinates (Angstroms)
 Number     Number       Type             X           Y           Z
 ---------------------------------------------------------------------
      1          6           0        1.503629   -0.502414   -0.000286
      2          1           0        1.825228   -0.916907   -0.943604
      3          1           0        1.817434   -0.926718    0.941463
      4          6           0        0.502141    0.616779    0.001083
      5          1           0        0.621725    1.292493    0.878982
      6          1           0        0.624463    1.297599   -0.872341
      7          6           0       -0.862164    0.245169   -0.001421
      8          6           0       -1.958415   -0.483945   -0.000125
 ---------------------------------------------------------------------

 SCF Done:  E(UB3LYP) =  -154.256112033     A.U. after   17 cycles

 The electronic state is 4-A.
 Alpha  occ. eigenvalues --  -10.55569 -10.55279 -10.47117 -10.41427  -1.12502
 Alpha  occ. eigenvalues --   -1.03323  -0.89371  -0.76501  -0.73476  -0.68151
 Alpha  occ. eigenvalues --   -0.63270  -0.62439  -0.58451  -0.58405  -0.44824
 Alpha virt. eigenvalues --   -0.29411  -0.29026  -0.17888  -0.13588  -0.12964
 Alpha virt. eigenvalues --   -0.10852  -0.09189  -0.08548  -0.07836  -0.07332
 Alpha virt. eigenvalues --   -0.06263  -0.04982  -0.03233  -0.03089  -0.02959

  Beta  occ. eigenvalues --  -10.54228 -10.53438 -10.47125 -10.39901  -1.08446
  Beta  occ. eigenvalues --   -0.98795  -0.85610  -0.73747  -0.71125  -0.65805
  Beta  occ. eigenvalues --   -0.60706  -0.56212
  Beta virt. eigenvalues --   -0.46000  -0.45602  -0.29023  -0.23920  -0.22176
  Beta virt. eigenvalues --   -0.17370  -0.13145  -0.12429  -0.09979  -0.08735
  Beta virt. eigenvalues --   -0.08091  -0.07359  -0.06764  -0.04876  -0.04214

 Mulliken charges and spin densities:
               1          2
     1  C   -0.382119   1.073735
     2  H    0.221260  -0.019670
     3  H    0.221361  -0.019734
     4  C   -0.301582  -0.070112
     5  H    0.238869   0.092750
     6  H    0.238621   0.092161
     7  C    0.701127   0.856514
     8  C    0.062463   0.994355
 Sum of Mulliken charges =   1.00000   3.00000

 Dipole moment (field-independent basis, Debye):
    X=             -0.3820    Y=              1.6049    Z=             -0.0009  Tot=              1.6497
 Quadrupole moment (field-independent basis, Debye-Ang):
   XX=            -13.7647   YY=            -19.4606   ZZ=            -19.2104
   XY=             -1.1491   XZ=             -0.0001   YZ=              0.0016

  Exact polarizability:  81.857  11.742  39.839  -0.030   0.015  32.816
 Approx polarizability: 115.319  24.092  62.852  -0.037  -0.017  45.291

                      1                      2                      3
                      A                      A                      A
 Frequencies --     25.9519               204.3457               239.9706
 Red. masses --      1.5878                 4.5066                 1.4250
 Frc consts  --      0.0006                 0.1109                 0.0483
 IR Inten    --      3.5627                 4.5274                 0.0614

                      4                      5                      6
                      A                      A                      A
 Frequencies --    507.8363               567.9586               689.9778
 Red. masses --      1.9845                 2.5957                 1.4599
 Frc consts  --      0.3015                 0.4933                 0.4095
 IR Inten    --      5.6289                63.4832                16.4537

                      7                      8                      9
                      A                      A                      A
 Frequencies --    769.4766               968.5749               998.2187
 Red. masses --      5.5715                 1.2856                 4.1476
 Frc consts  --      1.9436                 0.7106                 2.4350
 IR Inten    --    107.1784                 2.1848                 9.5771

                     10                     11                     12
                      A                      A                      A
 Frequencies --   1113.4698              1152.3019              1230.8935
 Red. masses --      1.1691                 1.4683                 1.1403
 Frc consts  --      0.8540                 1.1487                 1.0179
 IR Inten    --      1.6343               200.1914                15.8258

                     13                     14                     15
                      A                      A                      A
 Frequencies --   1354.1966              1453.6822              2824.3027
 Red. masses --      2.0477                 1.5806                 1.0545
 Frc consts  --      2.2125                 1.9679                 4.9561
 IR Inten    --    605.6833               231.7925               220.7222

                     16                     17                     18
                      A                      A                      A
 Frequencies --   2828.5353              3146.9659              3280.9148
 Red. masses --      1.0878                 1.0456                 1.1245
 Frc consts  --      5.1278                 6.1012                 7.1315
 IR Inten    --     31.0518                21.3925                17.4575

 - Thermochemistry -
 -------------------
 Temperature   298.150 Kelvin.  Pressure   1.00000 Atm.
 Atom     1 has atomic number  6 and mass  12.00000

 Molecular mass:    52.03130 amu.
 Principal axes and moments of inertia in atomic units:
                           1         2         3
     Eigenvalues --    69.66621 341.00300 386.84114
           X            0.99976  -0.02187  -0.00010
           Y            0.02187   0.99976  -0.00022
           Z            0.00010   0.00022   1.00000
 This molecule is an asymmetric top.
 Rotational symmetry number  1.
 Rotational temperatures (Kelvin)      1.24327     0.25400     0.22390
 Rotational constants (GHZ):          25.90555     5.29245     4.66533
 Zero-point vibrational energy     139709.3 (Joules/Mol)
                                   33.39133 (Kcal/Mol)
 Warning -- explicit consideration of   5 degrees of freedom as
           vibrations may cause significant error
 Vibrational temperatures:     37.34   294.01   345.26   730.66   817.16
          (Kelvin)            992.72  1107.10  1393.56  1436.21  1602.03
                             1657.90  1770.98  1948.38  2091.52  4063.54
                             4069.63  4527.78  4720.50

 Zero-point correction=                           0.053212 (Hartree/Particle)
 Thermal correction to Energy=                    0.058740
 Thermal correction to Enthalpy=                  0.059684
 Thermal correction to Gibbs Free Energy=         0.023405
 Sum of electronic and zero-point Energies=           -154.202900
 Sum of electronic and thermal Energies=              -154.197372
 Sum of electronic and thermal Enthalpies=            -154.196428
 Sum of electronic and thermal Free Energies=         -154.232707

                     E (Thermal)             CV                S
                      KCal/Mol        Cal/Mol-Kelvin    Cal/Mol-Kelvin
 Total                   36.860             17.140             76.354
 Electronic               0.000              0.000              2.755
 Translational            0.889              2.981             37.771
 Rotational               0.889              2.981             23.734
 Vibrational             35.082             11.179             12.095
 Vibration     1          0.593              1.985              6.117
 Vibration     2          0.640              1.834              2.094
 Vibration     3          0.657              1.779              1.803
 Vibration     4          0.863              1.233              0.639
 Vibration     5          0.924              1.101              0.508

 Normal termination of Gaussian 09 at Tue Jun 21 22:33:15 2016.
