 Gaussian 09, Revision E.01,
 Gaussian 09:  EM64L-G09RevE.01 30-Nov-2015

 ---------------------------------------------
 #p b3lyp/6-311++G(3df,2p) freq symmetry=Loose
 ---------------------------------------------

 ---------
 b3lyp opt
 ---------
 Symbolic Z-matrix:
 Charge =  2 Multiplicity = 3

                         Standard orientation:
 ---------------------------------------------------------------------
 Center     Atomic      Atomic             Coordinates (Angstroms)
 Number     Number       Type             X           Y           Z
 ---------------------------------------------------------------------
      1          6           0       -1.737839   -0.358580   -0.000233
      2          1           0       -2.723907    0.105654    0.001828
      3          1           0       -1.656798   -1.444634   -0.000910
      4          6           0        0.712368    0.088374    0.000102
      5          6           0        1.959891   -0.180268    0.000305
      6          1           0        3.027549   -0.419859    0.001697
      7          6           0       -0.589440    0.479842   -0.000630
      8          1           0       -0.716727    1.582634    0.000133
 ---------------------------------------------------------------------

 SCF Done:  E(UB3LYP) =  -153.835187016     A.U. after   15 cycles

 The electronic state is 3-A.
 Alpha  occ. eigenvalues --  -10.79394 -10.77873 -10.73381 -10.72423  -1.35767
 Alpha  occ. eigenvalues --   -1.28383  -1.15048  -1.03818  -0.99611  -0.94741
 Alpha  occ. eigenvalues --   -0.87809  -0.87320  -0.83894  -0.77272
 Alpha virt. eigenvalues --   -0.57080  -0.52391  -0.41735  -0.35030  -0.33318
 Alpha virt. eigenvalues --   -0.30824  -0.28754  -0.26309  -0.25715  -0.24931
 Alpha virt. eigenvalues --   -0.23594  -0.21572  -0.21185  -0.20721  -0.19759

  Beta  occ. eigenvalues --  -10.77821 -10.77420 -10.72855 -10.71801  -1.32450
  Beta  occ. eigenvalues --   -1.24308  -1.13212  -1.02077  -0.98277  -0.93016
  Beta  occ. eigenvalues --   -0.86296  -0.84110
  Beta virt. eigenvalues --   -0.70424  -0.66314  -0.52077  -0.46188  -0.38337
  Beta virt. eigenvalues --   -0.33563  -0.32062  -0.30308  -0.28231  -0.25407
  Beta virt. eigenvalues --   -0.25224  -0.24409  -0.22953  -0.21004  -0.20919

 Mulliken charges and spin densities:
               1          2
     1  C   -0.181700   0.391794
     2  H    0.303097  -0.008602
     3  H    0.272572  -0.007276
     4  C    0.154900   0.401909
     5  C    0.532670   0.856475
     6  H    0.461628  -0.025517
     7  C    0.191296   0.356424
     8  H    0.265536   0.034795
 Sum of Mulliken charges =   2.00000   2.00000

 Dipole moment (field-independent basis, Debye):
    X=              1.4429    Y=             -0.3454    Z=              0.0025  Tot=              1.4837
 Quadrupole moment (field-independent basis, Debye-Ang):
   XX=             17.6275   YY=            -13.2889   ZZ=            -20.3652
   XY=             -1.2851   XZ=              0.0071   YZ=              0.0007

  Exact polarizability:  74.881  -0.804  28.706   0.005  -0.000  20.838
 Approx polarizability: 126.507  -5.428  41.914   0.010  -0.003  29.130

                      1                      2                      3
                      A                      A                      A
 Frequencies --    195.9223               219.7211               396.0368
 Red. masses --      3.0086                 1.4202                 2.0361
 Frc consts  --      0.0680                 0.0404                 0.1882
 IR Inten    --      9.1140                10.6749                11.1911

                      4                      5                      6
                      A                      A                      A
 Frequencies --    519.0817               664.8507               701.7374
 Red. masses --      3.1202                 1.3016                 1.4497
 Frc consts  --      0.4953                 0.3390                 0.4206
 IR Inten    --     11.5956                29.2695                12.5211

                      7                      8                      9
                      A                      A                      A
 Frequencies --    761.7428               891.2661              1021.9716
 Red. masses --      1.4982                 3.1580                 1.3326
 Frc consts  --      0.5122                 1.4780                 0.8200
 IR Inten    --     25.3774                 4.5405                 2.3157

                     10                     11                     12
                      A                      A                      A
 Frequencies --   1102.7939              1204.6287              1376.3421
 Red. masses --      1.3664                 1.4484                 3.1388
 Frc consts  --      0.9791                 1.2384                 3.5032
 IR Inten    --     10.5032                17.3413               208.3045

                     13                     14                     15
                      A                      A                      A
 Frequencies --   1480.0214              1825.3102              2887.1084
 Red. masses --      1.2080                 7.1368                 1.0766
 Frc consts  --      1.5591                14.0097                 5.2872
 IR Inten    --      9.0632                81.9972               263.1977

                     16                     17                     18
                      A                      A                      A
 Frequencies --   3085.5856              3143.6090              3205.2400
 Red. masses --      1.0552                 1.1404                 1.1266
 Frc consts  --      5.9192                 6.6402                 6.8191
 IR Inten    --    125.5080               429.0540                77.0583

 - Thermochemistry -
 -------------------
 Temperature   298.150 Kelvin.  Pressure   1.00000 Atm.
 Atom     1 has atomic number  6 and mass  12.00000

 Molecular mass:    52.03130 amu.
 Principal axes and moments of inertia in atomic units:
                           1         2         3
     Eigenvalues --    34.29917 401.79273 436.09183
           X            1.00000  -0.00282  -0.00017
           Y            0.00282   1.00000   0.00023
           Z            0.00017  -0.00023   1.00000
 This molecule is an asymmetric top.
 Rotational symmetry number  1.
 Rotational temperatures (Kelvin)      2.52524     0.21557     0.19861
 Rotational constants (GHZ):          52.61763     4.49172     4.13844
 Zero-point vibrational energy     147636.9 (Joules/Mol)
                                   35.28608 (Kcal/Mol)
 Warning -- explicit consideration of   4 degrees of freedom as
           vibrations may cause significant error
 Vibrational temperatures:    281.89   316.13   569.81   746.84   956.57
          (Kelvin)           1009.64  1095.98  1282.33  1470.39  1586.67
                             1733.19  1980.25  2129.42  2626.21  4153.90
                             4439.46  4522.95  4611.62

 Zero-point correction=                           0.056232 (Hartree/Particle)
 Thermal correction to Energy=                    0.061161
 Thermal correction to Enthalpy=                  0.062105
 Thermal correction to Gibbs Free Energy=         0.028727
 Sum of electronic and zero-point Energies=           -153.778955
 Sum of electronic and thermal Energies=              -153.774026
 Sum of electronic and thermal Enthalpies=            -153.773082
 Sum of electronic and thermal Free Energies=         -153.806460

                     E (Thermal)             CV                S
                      KCal/Mol        Cal/Mol-Kelvin    Cal/Mol-Kelvin
 Total                   38.379             16.308             70.251
 Electronic               0.000              0.000              2.183
 Translational            0.889              2.981             37.771
 Rotational               0.889              2.981             23.312
 Vibrational             36.602             10.347              6.985
 Vibration     1          0.636              1.846              2.171
 Vibration     2          0.647              1.811              1.961
 Vibration     3          0.763              1.479              0.977
 Vibration     4          0.874              1.208              0.612

 Normal termination of Gaussian 09 at Tue Jun 21 23:54:08 2016.
