 Gaussian 09, Revision E.01,
 Gaussian 09:  EM64L-G09RevE.01 30-Nov-2015

 ---------------------------------------------
 #p b3lyp/6-311++G(3df,2p) freq symmetry=Loose
 ---------------------------------------------

 ---------
 b3lyp opt
 ---------
 Symbolic Z-matrix:
 Charge =  2 Multiplicity = 1

                         Standard orientation:
 ---------------------------------------------------------------------
 Center     Atomic      Atomic             Coordinates (Angstroms)
 Number     Number       Type             X           Y           Z
 ---------------------------------------------------------------------
      1          6           0       -0.000000    0.000000    0.634030
      2          6           0        0.000000    0.000000   -0.634030
      3          6           0        0.000000   -0.000000   -1.957382
      4          1           0       -0.946208    0.000000   -2.527431
      5          1           0        0.946208    0.000000   -2.527431
      6          6           0       -0.000000   -0.000000    1.957382
      7          1           0       -0.000000    0.946208    2.527431
      8          1           0       -0.000000   -0.946208    2.527431
 ---------------------------------------------------------------------

 SCF Done:  E(RB3LYP) =  -153.908314229     A.U. after   10 cycles

 The electronic state is 1-A1.
 Alpha  occ. eigenvalues --  -10.75234 -10.75095 -10.73988 -10.73985  -1.33571
 Alpha  occ. eigenvalues --   -1.26977  -1.18320  -0.99702  -0.97588  -0.93941
 Alpha  occ. eigenvalues --   -0.93941  -0.82693  -0.82693
 Alpha virt. eigenvalues --   -0.61905  -0.61905  -0.40986  -0.40986  -0.34091
 Alpha virt. eigenvalues --   -0.31763  -0.26742  -0.26742  -0.26450  -0.24487
 Alpha virt. eigenvalues --   -0.22059  -0.22059  -0.21555  -0.21476  -0.21131

 Mulliken charges:
               1
     1  C    0.566252
     2  C    0.566252
     3  C   -0.211985
     4  H    0.322867
     5  H    0.322867
     6  C   -0.211985
     7  H    0.322867
     8  H    0.322867
 Sum of Mulliken charges =   2.00000

 Dipole moment (field-independent basis, Debye):
    X=              0.0000    Y=             -0.0000    Z=             -0.0000  Tot=              0.0000
 Quadrupole moment (field-independent basis, Debye-Ang):
   XX=            -17.3407   YY=            -17.3407   ZZ=             23.1531
   XY=              0.0000   XZ=             -0.0000   YZ=              0.0000

  Exact polarizability:  22.711   0.000  22.711   0.000   0.000  84.328
 Approx polarizability:  31.638  -0.000  31.638  -0.000  -0.000 170.380

                      1                      2                      3
                      E                      E                      E
 Frequencies --    193.2065               193.2065               431.7753
 Red. masses --      3.0781                 3.0781                 2.7276
 Frc consts  --      0.0677                 0.0677                 0.2996
 IR Inten    --     25.6496                25.6496                 0.1082

                      4                      5                      6
                      E                     B1                     A1
 Frequencies --    431.7753               708.4261               861.7440
 Red. masses --      2.7276                 1.0078                 3.8606
 Frc consts  --      0.2996                 0.2980                 1.6891
 IR Inten    --      0.1082                 0.0000                 0.0000

                      7                      8                      9
                      E                      E                      E
 Frequencies --    906.6805               906.6805              1062.2852
 Red. masses --      1.8114                 1.8114                 1.3531
 Frc consts  --      0.8773                 0.8773                 0.8996
 IR Inten    --      6.6978                 6.6978                22.9212

                     10                     11                     12
                      E                     B2                     A1
 Frequencies --   1062.2852              1304.8110              1333.4567
 Red. masses --      1.3531                 1.0808                 1.1741
 Frc consts  --      0.8996                 1.0841                 1.2300
 IR Inten    --     22.9212               234.3339                 0.0000

                     13                     14                     15
                     B2                     A1                     B2
 Frequencies --   1543.6247              1870.7108              2935.4698
 Red. masses --      7.8822                11.5287                 1.0579
 Frc consts  --     11.0657                23.7709                 5.3710
 IR Inten    --     64.4580                 0.0000               928.3090

                     16                     17                     18
                     A1                      E                      E
 Frequencies --   2945.1982              3023.0628              3023.0628
 Red. masses --      1.0486                 1.1156                 1.1156
 Frc consts  --      5.3592                 6.0068                 6.0068
 IR Inten    --      0.0000               217.7671               217.7671

 - Thermochemistry -
 -------------------
 Temperature   298.150 Kelvin.  Pressure   1.00000 Atm.
 Atom     1 has atomic number  6 and mass  12.00000

 Molecular mass:    52.03130 amu.
 Principal axes and moments of inertia in atomic units:
                           1         2         3
     Eigenvalues --    12.88890 461.22556 461.22556
           X           -0.00000   0.73480  -0.67828
           Y           -0.00000   0.67828   0.73480
           Z            1.00000   0.00000  -0.00000
 This molecule is a prolate symmetric top.
 Rotational symmetry number  4.
 Rotational temperatures (Kelvin)      6.72003     0.18779     0.18779
 Rotational constants (GHZ):         140.02292     3.91293     3.91293
 Zero-point vibrational energy     147962.9 (Joules/Mol)
                                   35.36398 (Kcal/Mol)
 Warning -- explicit consideration of   4 degrees of freedom as
           vibrations may cause significant error
 Vibrational temperatures:    277.98   277.98   621.23   621.23  1019.27
          (Kelvin)           1239.86  1304.51  1304.51  1528.39  1528.39
                             1877.33  1918.54  2220.93  2691.53  4223.48
                             4237.48  4349.51  4349.51

 Zero-point correction=                           0.056356 (Hartree/Particle)
 Thermal correction to Energy=                    0.061252
 Thermal correction to Enthalpy=                  0.062196
 Thermal correction to Gibbs Free Energy=         0.031509
 Sum of electronic and zero-point Energies=           -153.851958
 Sum of electronic and thermal Energies=              -153.847063
 Sum of electronic and thermal Enthalpies=            -153.846118
 Sum of electronic and thermal Free Energies=         -153.876805

                     E (Thermal)             CV                S
                      KCal/Mol        Cal/Mol-Kelvin    Cal/Mol-Kelvin
 Total                   38.436             15.802             64.586
 Electronic               0.000              0.000              0.000
 Translational            0.889              2.981             37.771
 Rotational               0.889              2.981             19.777
 Vibrational             36.659              9.841              7.038
 Vibration     1          0.635              1.849              2.197
 Vibration     2          0.635              1.849              2.197
 Vibration     3          0.793              1.401              0.853
 Vibration     4          0.793              1.401              0.853

 Optimization completed.
    -- Stationary point found.
 Normal termination of Gaussian 09 at Tue Jul 19 17:57:55 2016.
