 Gaussian 09, Revision E.01,
 Gaussian 09:  EM64L-G09RevE.01 30-Nov-2015

 ---------------------------------------------
 #p b3lyp/6-311++G(3df,2p) freq symmetry=Loose
 ---------------------------------------------

 ---------
 b3lyp opt
 ---------
 Symbolic Z-matrix:
 Charge =  3 Multiplicity = 2

                         Standard orientation:
 ---------------------------------------------------------------------
 Center     Atomic      Atomic             Coordinates (Angstroms)
 Number     Number       Type             X           Y           Z
 ---------------------------------------------------------------------
      1          6           0       -0.722684   -2.260088    0.000000
      2          1           0       -1.084537    2.015821    0.000000
      3          6           0        0.000000    1.797041    0.000000
      4          1           0        0.734069    2.629566    0.000000
      5          6           0       -0.248098   -0.756377    0.000000
      6          6           0        0.549912    0.373646    0.000000
      7          1           0        1.437824    0.214644    0.767671
      8          1           0        1.437824    0.214644   -0.767671
 ---------------------------------------------------------------------

 SCF Done:  E(UB3LYP) =  -152.830052971     A.U. after   17 cycles

 The electronic state is 2-A'.
 Alpha  occ. eigenvalues --  -11.14394 -11.10041 -11.01128 -10.97962  -1.59192
 Alpha  occ. eigenvalues --   -1.48299  -1.38760  -1.27604  -1.18003  -1.14909
 Alpha  occ. eigenvalues --   -1.12411  -1.08112  -1.05096
 Alpha virt. eigenvalues --   -0.94701  -0.83502  -0.83011  -0.78893  -0.65251
 Alpha virt. eigenvalues --   -0.56142  -0.53777  -0.50657  -0.48376  -0.47830
 Alpha virt. eigenvalues --   -0.44050  -0.43635  -0.42616  -0.39690  -0.37791

  Beta  occ. eigenvalues --  -11.13823 -11.08905 -11.01037 -10.98032  -1.57700
  Beta  occ. eigenvalues --   -1.45972  -1.37959  -1.26674  -1.16843  -1.14728
  Beta  occ. eigenvalues --   -1.12074  -1.06784
  Beta virt. eigenvalues --   -0.93553  -0.91792  -0.82841  -0.77735  -0.77220
  Beta virt. eigenvalues --   -0.63066  -0.55970  -0.53758  -0.50146  -0.48208
  Beta virt. eigenvalues --   -0.47330  -0.43768  -0.43480  -0.42433  -0.39544

 Mulliken charges and spin densities:
               1          2
     1  C    0.732917   0.355198
     2  H    0.329347   0.001816
     3  C    0.055259   0.053298
     4  H    0.357736   0.001571
     5  C    0.572286   0.687171
     6  C    0.211991  -0.117463
     7  H    0.370232   0.009205
     8  H    0.370232   0.009205
 Sum of Mulliken charges =   3.00000   1.00000

 Dipole moment (field-independent basis, Debye):
    X=              0.9459    Y=              0.3492    Z=              0.0000  Tot=              1.0083
 Quadrupole moment (field-independent basis, Debye-Ang):
   XX=             -6.3759   YY=             23.0908   ZZ=            -14.8577
   XY=              7.4809   XZ=              0.0000   YZ=              0.0000

  Exact polarizability:  33.393  11.634  62.001  -0.000  -0.000  22.772
 Approx polarizability:  53.630  21.539  95.572   0.000  -0.000  36.476

                      1                      2                      3
                     A'                     A"                     A"
 Frequencies --    155.7799               157.9855               256.2582
 Red. masses --      5.3599                 1.2998                 2.9369
 Frc consts  --      0.0766                 0.0191                 0.1136
 IR Inten    --      2.2296                 0.0663                 1.8578

                      4                      5                      6
                     A'                     A"                     A'
 Frequencies --    333.7858               512.6913               578.0432
 Red. masses --      3.7341                 1.8207                 2.6213
 Frc consts  --      0.2451                 0.2820                 0.5160
 IR Inten    --     33.9702               122.6387               376.5856

                      7                      8                      9
                     A'                     A'                     A"
 Frequencies --    717.9865               848.0090               851.3173
 Red. masses --      1.5817                 1.8297                 1.0148
 Frc consts  --      0.4804                 0.7752                 0.4333
 IR Inten    --    186.3717                67.2754                 0.3809

                     10                     11                     12
                     A'                     A'                     A"
 Frequencies --    988.8076              1102.5071              1220.1328
 Red. masses --      1.6805                 1.5050                 1.3559
 Frc consts  --      0.9681                 1.0779                 1.1893
 IR Inten    --     40.8267                60.2426                 5.1585

                     13                     14                     15
                     A'                     A'                     A"
 Frequencies --   1396.4159              1439.2561              2168.6325
 Red. masses --      2.1178                 1.6787                 1.0533
 Frc consts  --      2.4331                 2.0488                 2.9185
 IR Inten    --     26.5954                28.1630               408.2334

                     16                     17                     18
                     A'                     A'                     A'
 Frequencies --   2353.6432              2914.4617              3043.3845
 Red. masses --      1.0831                 1.0531                 1.1316
 Frc consts  --      3.5350                 5.2703                 6.1751
 IR Inten    --    823.1728               229.9642               190.3449

 - Thermochemistry -
 -------------------
 Temperature   298.150 Kelvin.  Pressure   1.00000 Atm.
 Atom     1 has atomic number  6 and mass  12.00000

 Molecular mass:    52.03130 amu.
 Principal axes and moments of inertia in atomic units:
                           1         2         3
     Eigenvalues --    43.15842 449.80535 484.47992
           X            0.22001   0.97550   0.00000
           Y            0.97550  -0.22001   0.00000
           Z           -0.00000  -0.00000   1.00000
 This molecule is an asymmetric top.
 Rotational symmetry number  1.
 Rotational temperatures (Kelvin)      2.00688     0.19256     0.17878
 Rotational constants (GHZ):          41.81666     4.01227     3.72511
 Zero-point vibrational energy     125841.8 (Joules/Mol)
                                   30.07690 (Kcal/Mol)
 Warning -- explicit consideration of   6 degrees of freedom as
           vibrations may cause significant error
 Vibrational temperatures:    224.13   227.31   368.70   480.24   737.65
          (Kelvin)            831.67  1033.02  1220.09  1224.85  1422.67
                             1586.26  1755.50  2009.13  2070.77  3120.17
                             3386.36  4193.26  4378.75

 Zero-point correction=                           0.047931 (Hartree/Particle)
 Thermal correction to Energy=                    0.053600
 Thermal correction to Enthalpy=                  0.054544
 Thermal correction to Gibbs Free Energy=         0.019867
 Sum of electronic and zero-point Energies=           -152.782122
 Sum of electronic and thermal Energies=              -152.776453
 Sum of electronic and thermal Enthalpies=            -152.775509
 Sum of electronic and thermal Free Energies=         -152.810185

                     E (Thermal)             CV                S
                      KCal/Mol        Cal/Mol-Kelvin    Cal/Mol-Kelvin
 Total                   33.634             18.421             72.983
 Electronic               0.000              0.000              1.377
 Translational            0.889              2.981             37.771
 Rotational               0.889              2.981             23.757
 Vibrational             31.857             12.460             10.078
 Vibration     1          0.620              1.896              2.600
 Vibration     2          0.621              1.894              2.574
 Vibration     3          0.666              1.752              1.687
 Vibration     4          0.715              1.608              1.242
 Vibration     5          0.868              1.222              0.627
 Vibration     6          0.935              1.079              0.489

 Optimization completed.
    -- Stationary point found.
 Normal termination of Gaussian 09 at Tue Jul 19 21:03:45 2016.
