 Gaussian 09, Revision E.01,
 Gaussian 09:  EM64L-G09RevE.01 30-Nov-2015

 ---------------------------------------------
 #p b3lyp/6-311++G(3df,2p) freq symmetry=Loose
 ---------------------------------------------

 ---------
 b3lyp opt
 ---------
 Symbolic Z-matrix:
 Charge =  1 Multiplicity = 4

                         Standard orientation:
 ---------------------------------------------------------------------
 Center     Atomic      Atomic             Coordinates (Angstroms)
 Number     Number       Type             X           Y           Z
 ---------------------------------------------------------------------
      1          6           0       -0.018931   -0.000451    0.446737
      2          1           0       -0.047678   -0.001130    1.551869
      3          6           0       -1.425014    0.000072   -0.186599
      4          1           0       -1.941820   -0.891013    0.171176
      5          1           0       -1.941413    0.890914    0.172757
      6          1           0       -1.368111    0.001215   -1.271523
      7          6           0        1.163685   -0.679643   -0.182535
      8          6           0        1.163430    0.680024   -0.181649
 ---------------------------------------------------------------------

 SCF Done:  E(UB3LYP) =  -154.255911200     A.U. after   15 cycles

 The electronic state is 4-A.
 Alpha  occ. eigenvalues --  -10.56774 -10.56703 -10.50754 -10.41033  -1.21851
 Alpha  occ. eigenvalues --   -0.98396  -0.84586  -0.79493  -0.73838  -0.68656
 Alpha  occ. eigenvalues --   -0.64399  -0.63423  -0.60827  -0.56851  -0.53215
 Alpha virt. eigenvalues --   -0.32712  -0.16376  -0.14413  -0.13748  -0.11960
 Alpha virt. eigenvalues --   -0.11941  -0.10873  -0.08703  -0.08242  -0.07605
 Alpha virt. eigenvalues --   -0.06005  -0.05921  -0.04096  -0.03187  -0.02646

  Beta  occ. eigenvalues --  -10.54436 -10.54383 -10.50194 -10.40785  -1.17616
  Beta  occ. eigenvalues --   -0.96295  -0.81316  -0.71241  -0.69989  -0.64695
  Beta  occ. eigenvalues --   -0.61898  -0.60899
  Beta virt. eigenvalues --   -0.44612  -0.44317  -0.38744  -0.24782  -0.15735
  Beta virt. eigenvalues --   -0.13409  -0.11604  -0.11142  -0.10202  -0.09837
  Beta virt. eigenvalues --   -0.08284  -0.07509  -0.07294  -0.05412  -0.04854

 Mulliken charges and spin densities:
               1          2
     1  C    0.109266   0.023502
     2  H    0.249321   0.091710
     3  C   -0.468681   0.179220
     4  H    0.206214   0.020920
     5  H    0.206193   0.020932
     6  H    0.199300   0.003197
     7  C    0.249294   1.330201
     8  C    0.249094   1.330318
 Sum of Mulliken charges =   1.00000   3.00000

 Dipole moment (field-independent basis, Debye):
    X=              0.1537    Y=             -0.0003    Z=              0.7447  Tot=              0.7604
 Quadrupole moment (field-independent basis, Debye-Ang):
   XX=            -14.5403   YY=            -20.0301   ZZ=            -18.6315
   XY=             -0.0002   XZ=              0.1560   YZ=             -0.0013

  Exact polarizability:  51.935   0.000  36.427  -3.474   0.004  31.623
 Approx polarizability:  76.518   0.002  69.799  -8.600   0.013  47.696

                      1                      2                      3
                      A                      A                      A
 Frequencies --    175.4924               283.2887               350.6216
 Red. masses --      1.1354                 4.4733                 4.5677
 Frc consts  --      0.0206                 0.2115                 0.3308
 IR Inten    --      0.0418                 0.2935                 0.2529

                      4                      5                      6
                      A                      A                      A
 Frequencies --    691.9852               759.7074               906.0769
 Red. masses --      7.1882                 6.7050                 1.5849
 Frc consts  --      2.0280                 2.2800                 0.7666
 IR Inten    --     25.8005                 4.8200                43.5071

                      7                      8                      9
                      A                      A                      A
 Frequencies --    925.6391              1007.5980              1027.4071
 Red. masses --      1.1451                 1.4531                 2.5198
 Frc consts  --      0.5781                 0.8692                 1.5671
 IR Inten    --     40.9036                 8.8794                 0.5259

                     10                     11                     12
                      A                      A                      A
 Frequencies --   1137.1484              1368.4468              1446.5234
 Red. masses --      1.1668                 1.2958                 1.0604
 Frc consts  --      0.8889                 1.4296                 1.3073
 IR Inten    --     11.1182                 0.0245                23.4912

                     13                     14                     15
                      A                      A                      A
 Frequencies --   1454.4277              1459.1907              2894.2739
 Red. masses --      1.0488                 5.7236                 1.0709
 Frc consts  --      1.3071                 7.1803                 5.2853
 IR Inten    --     12.9027                 0.4620                68.9882

                     16                     17                     18
                      A                      A                      A
 Frequencies --   3033.3417              3115.1977              3154.7215
 Red. masses --      1.0302                 1.1038                 1.1057
 Frc consts  --      5.5851                 6.3112                 6.4833
 IR Inten    --     25.3360                 4.2395                 6.3573

 - Thermochemistry -
 -------------------
 Temperature   298.150 Kelvin.  Pressure   1.00000 Atm.
 Atom     1 has atomic number  6 and mass  12.00000

 Molecular mass:    52.03130 amu.
 Principal axes and moments of inertia in atomic units:
                           1         2         3
     Eigenvalues --    72.83091 262.61084 280.42948
           X            0.99987  -0.00001   0.01595
           Y            0.00002   1.00000  -0.00038
           Z           -0.01595   0.00038   0.99987
 This molecule is an asymmetric top.
 Rotational symmetry number  1.
 Rotational temperatures (Kelvin)      1.18925     0.32982     0.30886
 Rotational constants (GHZ):          24.77988     6.87230     6.43563
 Zero-point vibrational energy     150676.2 (Joules/Mol)
                                   36.01247 (Kcal/Mol)
 Warning -- explicit consideration of   3 degrees of freedom as
           vibrations may cause significant error
 Vibrational temperatures:    252.49   407.59   504.47   995.61  1093.05
          (Kelvin)           1303.64  1331.79  1449.71  1478.21  1636.10
                             1968.89  2081.22  2092.59  2099.45  4164.21
                             4364.30  4482.07  4538.93

 Zero-point correction=                           0.057390 (Hartree/Particle)
 Thermal correction to Energy=                    0.062050
 Thermal correction to Enthalpy=                  0.062994
 Thermal correction to Gibbs Free Energy=         0.029787
 Sum of electronic and zero-point Energies=           -154.198522
 Sum of electronic and thermal Energies=              -154.193862
 Sum of electronic and thermal Enthalpies=            -154.192917
 Sum of electronic and thermal Free Energies=         -154.226124

                     E (Thermal)             CV                S
                      KCal/Mol        Cal/Mol-Kelvin    Cal/Mol-Kelvin
 Total                   38.937             14.984             69.890
 Electronic               0.000              0.000              2.755
 Translational            0.889              2.981             37.771
 Rotational               0.889              2.981             23.199
 Vibrational             37.159              9.023              6.165
 Vibration     1          0.627              1.873              2.376
 Vibration     2          0.682              1.705              1.514
 Vibration     3          0.728              1.574              1.163

 Optimization completed.
    -- Stationary point found.
 Normal termination of Gaussian 09 at Tue Jun 21 23:08:31 2016.
