 Gaussian 09, Revision E.01,
 Gaussian 09:  EM64L-G09RevE.01 30-Nov-2015

 ---------------------------------------------
 #p b3lyp/6-311++G(3df,2p) freq symmetry=Loose
 ---------------------------------------------

 ---------
 b3lyp opt
 ---------
 Symbolic Z-matrix:
 Charge =  3 Multiplicity = 2

                         Standard orientation:
 ---------------------------------------------------------------------
 Center     Atomic      Atomic             Coordinates (Angstroms)
 Number     Number       Type             X           Y           Z
 ---------------------------------------------------------------------
      1          6           0       -0.696412    0.337236    0.000001
      2          1           0       -0.957850    1.011753   -0.924225
      3          1           0       -0.957782    1.011899    0.924115
      4          6           0        0.696412   -0.337236   -0.000001
      5          1           0        0.957850   -1.011753    0.924225
      6          1           0        0.957782   -1.011899   -0.924115
      7          6           0       -1.960558   -0.284563    0.000014
      8          6           0        1.960558    0.284563   -0.000014
 ---------------------------------------------------------------------

 SCF Done:  E(UB3LYP) =  -152.768790356     A.U. after   15 cycles

 The electronic state is 2-AG.
 Alpha  occ. eigenvalues --  -11.16043 -11.16042 -11.00124 -11.00107  -1.61926
 Alpha  occ. eigenvalues --   -1.56424  -1.33885  -1.26404  -1.22415  -1.18174
 Alpha  occ. eigenvalues --   -1.15262  -1.12145  -1.08971
 Alpha virt. eigenvalues --   -0.90110  -0.86118  -0.85938  -0.85403  -0.59691
 Alpha virt. eigenvalues --   -0.58621  -0.57501  -0.53092  -0.51001  -0.47675
 Alpha virt. eigenvalues --   -0.47173  -0.45441  -0.42633  -0.41773  -0.37741

  Beta  occ. eigenvalues --  -11.15099 -11.15098 -10.99971 -10.99953  -1.60960
  Beta  occ. eigenvalues --   -1.55032  -1.32505  -1.25268  -1.22307  -1.17213
  Beta  occ. eigenvalues --   -1.15054  -1.03857
  Beta virt. eigenvalues --   -0.97686  -0.88707  -0.84738  -0.84650  -0.84123
  Beta virt. eigenvalues --   -0.59210  -0.58588  -0.57229  -0.52171  -0.50800
  Beta virt. eigenvalues --   -0.47522  -0.46684  -0.45432  -0.42418  -0.40636

 Mulliken charges and spin densities:
               1          2
     1  C    0.160611   0.047208
     2  H    0.370960   0.004378
     3  H    0.370954   0.004376
     4  C    0.160611   0.047208
     5  H    0.370960   0.004378
     6  H    0.370954   0.004376
     7  C    0.597475   0.444037
     8  C    0.597475   0.444037
 Sum of Mulliken charges =   3.00000   1.00000

 Dipole moment (field-independent basis, Debye):
    X=             -0.0000    Y=              0.0000    Z=             -0.0000  Tot=              0.0000
 Quadrupole moment (field-independent basis, Debye-Ang):
   XX=             16.7439   YY=            -10.1408   ZZ=            -12.1590
   XY=             -1.8055   XZ=              0.0003   YZ=              0.0000

  Exact polarizability: 150.522   4.258  29.005   0.001  -0.000  26.678
 Approx polarizability: 518.009  68.124  59.310  -0.003  -0.001  43.475

                      1                      2                      3
                     AU                     AU                     AG
 Frequencies --    133.4576               248.0581               364.5427
 Red. masses --      2.9663                 7.8425                 5.2459
 Frc consts  --      0.0311                 0.2843                 0.4107
 IR Inten    --      2.4971                 7.2499                 0.0000

                      4                      5                      6
                     AU                     AG                     AU
 Frequencies --    453.8839               469.6374               693.5813
 Red. masses --      1.3447                 1.8433                 1.4146
 Frc consts  --      0.1632                 0.2395                 0.4009
 IR Inten    --     55.0127                 0.0000               285.5558

                      7                      8                      9
                     AG                     AU                     AG
 Frequencies --    707.0361               856.9417               942.2452
 Red. masses --      6.0927                 1.0107                 1.6653
 Frc consts  --      1.7945                 0.4373                 0.8711
 IR Inten    --      0.0000                 1.7529                 0.0000

                     10                     11                     12
                     AG                     AG                     AU
 Frequencies --   1055.3847              1091.7587              1126.6183
 Red. masses --      1.1541                 1.2847                 1.2233
 Frc consts  --      0.7574                 0.9022                 0.9148
 IR Inten    --      0.0000                 0.0000               202.9455

                     13                     14                     15
                     AU                     AG                     AU
 Frequencies --   1262.5568              1277.8565              2360.9121
 Red. masses --      2.4569                 2.0565                 1.0597
 Frc consts  --      2.3075                 1.9786                 3.4802
 IR Inten    --     56.4596                 0.0000              1523.1038

                     16                     17                     18
                     AG                     AU                     AG
 Frequencies --   2363.1310              2382.9945              2407.2384
 Red. masses --      1.0868                 1.0877                 1.0574
 Frc consts  --      3.5759                 3.6391                 3.6101
 IR Inten    --      0.0000               861.1019                 0.0000

 - Thermochemistry -
 -------------------
 Temperature   298.150 Kelvin.  Pressure   1.00000 Atm.
 Atom     1 has atomic number  6 and mass  12.00000

 Molecular mass:    52.03130 amu.
 Principal axes and moments of inertia in atomic units:
                           1         2         3
     Eigenvalues --    43.18733 397.03659 415.63289
           X            0.99925  -0.03885   0.00000
           Y            0.03885   0.99925   0.00001
           Z           -0.00000  -0.00001   1.00000
 This molecule is an asymmetric top.
 Rotational symmetry number  1.
 Rotational temperatures (Kelvin)      2.00554     0.21815     0.20839
 Rotational constants (GHZ):          41.78867     4.54553     4.34215
 Zero-point vibrational energy     120809.9 (Joules/Mol)
                                   28.87425 (Kcal/Mol)
 Warning -- explicit consideration of   5 degrees of freedom as
           vibrations may cause significant error
 Vibrational temperatures:    192.02   356.90   524.50   653.04   675.70
          (Kelvin)            997.91  1017.27  1232.95  1355.68  1518.46
                             1570.80  1620.95  1816.54  1838.55  3396.82
                             3400.01  3428.59  3463.47

 Zero-point correction=                           0.046014 (Hartree/Particle)
 Thermal correction to Energy=                    0.051300
 Thermal correction to Enthalpy=                  0.052244
 Thermal correction to Gibbs Free Energy=         0.018487
 Sum of electronic and zero-point Energies=           -152.722776
 Sum of electronic and thermal Energies=              -152.717490
 Sum of electronic and thermal Enthalpies=            -152.716546
 Sum of electronic and thermal Free Energies=         -152.750303

                     E (Thermal)             CV                S
                      KCal/Mol        Cal/Mol-Kelvin    Cal/Mol-Kelvin
 Total                   32.191             17.729             71.048
 Electronic               0.000              0.000              1.377
 Translational            0.889              2.981             37.771
 Rotational               0.889              2.981             23.481
 Vibrational             30.414             11.768              8.419
 Vibration     1          0.613              1.920              2.896
 Vibration     2          0.662              1.766              1.744
 Vibration     3          0.738              1.545              1.103
 Vibration     4          0.812              1.352              0.784
 Vibration     5          0.827              1.317              0.739

 Optimization completed.
    -- Stationary point found.
 Normal termination of Gaussian 09 at Tue Jul 19 21:42:52 2016.
