 Gaussian 09, Revision E.01,
 Gaussian 09:  EM64L-G09RevE.01 30-Nov-2015

 ---------------------------------------------
 #p b3lyp/6-311++G(3df,2p) freq symmetry=Loose
 ---------------------------------------------

 ---------
 b3lyp opt
 ---------
 Symbolic Z-matrix:
 Charge =  1 Multiplicity = 4

                         Standard orientation:
 ---------------------------------------------------------------------
 Center     Atomic      Atomic             Coordinates (Angstroms)
 Number     Number       Type             X           Y           Z
 ---------------------------------------------------------------------
      1          6           0       -1.606439   -0.328126    0.000001
      2          1           0       -2.188116   -0.068145    0.886763
      3          1           0       -1.374665   -1.387841   -0.002000
      4          1           0       -2.189867   -0.065231   -0.884861
      5          6           0       -0.354630    0.527139    0.000052
      6          1           0       -0.482636    1.616964   -0.000140
      7          6           0        0.886366    0.099633   -0.000013
      8          6           0        2.113917   -0.314604   -0.000001
 ---------------------------------------------------------------------

 SCF Done:  E(UB3LYP) =  -154.289822260     A.U. after   16 cycles

 The electronic state is 4-A.
 Alpha  occ. eigenvalues --  -10.56973 -10.52503 -10.46549 -10.39542  -1.10970
 Alpha  occ. eigenvalues --   -1.02311  -0.90827  -0.75964  -0.69486  -0.67280
 Alpha  occ. eigenvalues --   -0.65953  -0.61176  -0.60723  -0.59327  -0.47578
 Alpha virt. eigenvalues --   -0.29390  -0.20053  -0.16231  -0.12970  -0.11838
 Alpha virt. eigenvalues --   -0.10576  -0.08860  -0.08180  -0.07903  -0.07351
 Alpha virt. eigenvalues --   -0.05762  -0.04810  -0.03859  -0.03031  -0.02510

  Beta  occ. eigenvalues --  -10.52999 -10.52091 -10.45630 -10.39456  -1.06990
  Beta  occ. eigenvalues --   -0.97623  -0.88985  -0.73833  -0.65036  -0.63491
  Beta  occ. eigenvalues --   -0.60186  -0.57586
  Beta virt. eigenvalues --   -0.45546  -0.44129  -0.33760  -0.21437  -0.15628
  Beta virt. eigenvalues --   -0.15046  -0.12628  -0.11116  -0.10118  -0.08249
  Beta virt. eigenvalues --   -0.07798  -0.07155  -0.06674  -0.05031  -0.04090

 Mulliken charges and spin densities:
               1          2
     1  C   -0.395985   0.033327
     2  H    0.214208   0.030351
     3  H    0.189400   0.003059
     4  H    0.214012   0.030240
     5  C   -0.430185   0.658954
     6  H    0.219907   0.029972
     7  C    0.784655   0.323397
     8  C    0.203987   1.890699
 Sum of Mulliken charges =   1.00000   3.00000

 Dipole moment (field-independent basis, Debye):
    X=              1.4265    Y=              0.3492    Z=              0.0001  Tot=              1.4686
 Quadrupole moment (field-independent basis, Debye-Ang):
   XX=             -6.2203   YY=            -17.7315   ZZ=            -22.5076
   XY=             -1.3181   XZ=             -0.0004   YZ=             -0.0004

  Exact polarizability:  68.301  -4.721  32.435  -0.003  -0.000  28.315
 Approx polarizability: 112.536 -15.121  48.235  -0.006  -0.001  38.321

                      1                      2                      3
                      A                      A                      A
 Frequencies --    134.2640               151.0928               370.3143
 Red. masses --      1.1660                 4.2855                 5.2681
 Frc consts  --      0.0124                 0.0576                 0.4256
 IR Inten    --      1.0512                 1.7930                 5.4902

                      4                      5                      6
                      A                      A                      A
 Frequencies --    556.4070               630.0533               843.5819
 Red. masses --      6.2121                 1.3721                 4.0939
 Frc consts  --      1.1331                 0.3209                 1.7165
 IR Inten    --      3.5177                28.1985                 1.9888

                      7                      8                      9
                      A                      A                      A
 Frequencies --    975.2518               981.7382              1114.1772
 Red. masses --      1.2476                 1.3463                 1.7078
 Frc consts  --      0.6991                 0.7645                 1.2491
 IR Inten    --     31.8600                 0.7967                 0.6899

                     10                     11                     12
                      A                      A                      A
 Frequencies --   1220.2923              1391.0523              1451.8002
 Red. masses --      2.3637                 1.2496                 1.0475
 Frc consts  --      2.0738                 1.4247                 1.3008
 IR Inten    --     24.9896                 0.4315                12.7205

                     13                     14                     15
                      A                      A                      A
 Frequencies --   1456.9777              1771.6332              3016.5209
 Red. masses --      1.0657                10.7480                 1.0717
 Frc consts  --      1.3328                19.8759                 5.7458
 IR Inten    --     33.3465                14.7455                94.7216

                     16                     17                     18
                      A                      A                      A
 Frequencies --   3028.0425              3090.7277              3164.1040
 Red. masses --      1.0395                 1.1012                 1.1027
 Frc consts  --      5.6158                 6.1975                 6.5045
 IR Inten    --     47.7195                 5.9399                 6.1059

 - Thermochemistry -
 -------------------
 Temperature   298.150 Kelvin.  Pressure   1.00000 Atm.
 Atom     1 has atomic number  6 and mass  12.00000

 Molecular mass:    52.03130 amu.
 Principal axes and moments of inertia in atomic units:
                           1         2         3
     Eigenvalues --    43.13718 386.36187 418.20297
           X            0.99989   0.01454   0.00000
           Y           -0.01454   0.99989  -0.00002
           Z           -0.00000   0.00002   1.00000
 This molecule is an asymmetric top.
 Rotational symmetry number  1.
 Rotational temperatures (Kelvin)      2.00787     0.22418     0.20711
 Rotational constants (GHZ):          41.83726     4.67112     4.31547
 Zero-point vibrational energy     151614.9 (Joules/Mol)
                                   36.23683 (Kcal/Mol)
 Warning -- explicit consideration of   4 degrees of freedom as
           vibrations may cause significant error
 Vibrational temperatures:    193.18   217.39   532.80   800.54   906.51
          (Kelvin)           1213.72  1403.17  1412.50  1603.05  1755.73
                             2001.41  2088.81  2096.26  2548.98  4340.10
                             4356.67  4446.86  4552.43

 Zero-point correction=                           0.057747 (Hartree/Particle)
 Thermal correction to Energy=                    0.062768
 Thermal correction to Enthalpy=                  0.063712
 Thermal correction to Gibbs Free Energy=         0.029473
 Sum of electronic and zero-point Energies=           -154.232075
 Sum of electronic and thermal Energies=              -154.227054
 Sum of electronic and thermal Enthalpies=            -154.226110
 Sum of electronic and thermal Free Energies=         -154.260350

                     E (Thermal)             CV                S
                      KCal/Mol        Cal/Mol-Kelvin    Cal/Mol-Kelvin
 Total                   39.388             15.568             72.064
 Electronic               0.000              0.000              2.755
 Translational            0.889              2.981             37.771
 Rotational               0.889              2.981             23.459
 Vibrational             37.610              9.606              8.079
 Vibration     1          0.613              1.919              2.884
 Vibration     2          0.619              1.901              2.658
 Vibration     3          0.742              1.533              1.078
 Vibration     4          0.912              1.126              0.531

 Normal termination of Gaussian 09 at Tue Jun 21 22:44:54 2016.
