 Gaussian 09, Revision E.01,
 Gaussian 09:  EM64L-G09RevE.01 30-Nov-2015

 ---------------------------------------------
 #p b3lyp/6-311++G(3df,2p) freq symmetry=Loose
 ---------------------------------------------

 ---------
 b3lyp opt
 ---------
 Symbolic Z-matrix:
 Charge =  1 Multiplicity = 2

                         Standard orientation:
 ---------------------------------------------------------------------
 Center     Atomic      Atomic             Coordinates (Angstroms)
 Number     Number       Type             X           Y           Z
 ---------------------------------------------------------------------
      1          1           0       -1.163339   -1.689804    0.000000
      2          6           0        0.000000    0.718938   -0.000000
      3          6           0       -0.548029    1.813136   -0.000000
      4          1           0       -1.027743    2.770587   -0.000000
      5          6           0        0.634317   -0.499882    0.000000
      6          6           0       -0.080574   -1.687006    0.000000
      7          1           0        1.720221   -0.513601    0.000000
      8          1           0        0.436574   -2.638301    0.000000
 ---------------------------------------------------------------------

 SCF Done:  E(UB3LYP) =  -154.454401302     A.U. after   15 cycles

 The electronic state is 2-A".
 Alpha  occ. eigenvalues --  -10.46904 -10.46772 -10.46313 -10.44931  -1.07851
 Alpha  occ. eigenvalues --   -1.00851  -0.88711  -0.78061  -0.74861  -0.70476
 Alpha  occ. eigenvalues --   -0.63776  -0.61334  -0.53805  -0.52271
 Alpha virt. eigenvalues --   -0.31311  -0.21571  -0.15362  -0.15195  -0.12888
 Alpha virt. eigenvalues --   -0.12515  -0.11100  -0.09562  -0.08351  -0.07059
 Alpha virt. eigenvalues --   -0.06980  -0.05492  -0.04563  -0.03565  -0.03414

  Beta  occ. eigenvalues --  -10.46758 -10.46122 -10.45633 -10.44854  -1.06689
  Beta  occ. eigenvalues --   -0.98579  -0.87671  -0.77420  -0.74473  -0.69959
  Beta  occ. eigenvalues --   -0.63505  -0.57833  -0.53181
  Beta virt. eigenvalues --   -0.42260  -0.27191  -0.21198  -0.15071  -0.13326
  Beta virt. eigenvalues --   -0.12747  -0.12312  -0.10871  -0.09057  -0.08214
  Beta virt. eigenvalues --   -0.06949  -0.06636  -0.04913  -0.04420  -0.03253

 Mulliken charges and spin densities:
               1          2
     1  H    0.226828  -0.011621
     2  C   -0.112670   0.096336
     3  C    0.533198   0.377266
     4  H    0.384233  -0.011624
     5  C   -0.146089   0.122242
     6  C   -0.335326   0.444219
     7  H    0.210378  -0.004046
     8  H    0.239448  -0.012772
 Sum of Mulliken charges =   1.00000   1.00000

 Dipole moment (field-independent basis, Debye):
    X=             -0.3352    Y=             -0.3248    Z=              0.0000  Tot=              0.4668
 Quadrupole moment (field-independent basis, Debye-Ang):
   XX=            -17.3254   YY=             -2.1286   ZZ=            -22.4118
   XY=             -4.4779   XZ=              0.0000   YZ=             -0.0000

  Exact polarizability:  35.695  -9.462  78.661  -0.000  -0.001  24.719
 Approx polarizability:  53.334 -20.916 131.945   0.000  -0.000  35.002

                      1                      2                      3
                     A'                     A"                     A"
 Frequencies --    209.9593               277.7750               518.3894
 Red. masses --      3.2154                 1.7980                 1.6078
 Frc consts  --      0.0835                 0.0817                 0.2546
 IR Inten    --      5.2326                12.3001                 1.6120

                      4                      5                      6
                     A'                     A'                     A"
 Frequencies --    551.7025               680.6322               771.4924
 Red. masses --      3.6691                 1.2336                 1.3875
 Frc consts  --      0.6580                 0.3367                 0.4866
 IR Inten    --      8.9943                47.5682                13.8685

                      7                      8                      9
                     A"                     A'                     A"
 Frequencies --    892.9644               936.6371              1065.2032
 Red. masses --      1.2338                 2.0784                 1.4404
 Frc consts  --      0.5796                 1.0743                 0.9629
 IR Inten    --     25.0905                 0.9926                 8.4710

                     10                     11                     12
                     A'                     A'                     A'
 Frequencies --   1132.2282              1278.1332              1436.1205
 Red. masses --      1.7886                 1.6959                 1.5832
 Frc consts  --      1.3509                 1.6323                 1.9238
 IR Inten    --      0.4709                30.4930                64.7514

                     13                     14                     15
                     A'                     A'                     A'
 Frequencies --   1537.0885              2122.2957              3143.2875
 Red. masses --      1.6801                 6.5329                 1.0553
 Frc consts  --      2.3388                17.3369                 6.1430
 IR Inten    --     38.6041               120.9369                16.9690

                     16                     17                     18
                     A'                     A'                     A'
 Frequencies --   3153.0835              3253.8967              3378.5011
 Red. masses --      1.0918                 1.1221                 1.1529
 Frc consts  --      6.3951                 6.9998                 7.7532
 IR Inten    --     15.1871                15.4133               139.5783

 - Thermochemistry -
 -------------------
 Temperature   298.150 Kelvin.  Pressure   1.00000 Atm.
 Atom     1 has atomic number  1 and mass   1.00783

 Molecular mass:    52.03130 amu.
 Principal axes and moments of inertia in atomic units:
                           1         2         3
     Eigenvalues --    38.84567 370.86022 409.70590
           X           -0.18654   0.98245   0.00000
           Y            0.98245   0.18654   0.00000
           Z           -0.00000  -0.00000   1.00000
 This molecule is an asymmetric top.
 Rotational symmetry number  1.
 Rotational temperatures (Kelvin)      2.22969     0.23355     0.21140
 Rotational constants (GHZ):          46.45926     4.86637     4.40497
 Zero-point vibrational energy     157544.5 (Joules/Mol)
                                   37.65405 (Kcal/Mol)
 Warning -- explicit consideration of   4 degrees of freedom as
           vibrations may cause significant error
 Vibrational temperatures:    302.08   399.66   745.85   793.78   979.28
          (Kelvin)           1110.00  1284.77  1347.61  1532.59  1629.02
                             1838.95  2066.25  2211.52  3053.51  4522.48
                             4536.58  4681.63  4860.90

 Zero-point correction=                           0.060006 (Hartree/Particle)
 Thermal correction to Energy=                    0.064615
 Thermal correction to Enthalpy=                  0.065560
 Thermal correction to Gibbs Free Energy=         0.033157
 Sum of electronic and zero-point Energies=           -154.394396
 Sum of electronic and thermal Energies=              -154.389786
 Sum of electronic and thermal Enthalpies=            -154.388842
 Sum of electronic and thermal Free Energies=         -154.421244

                     E (Thermal)             CV                S
                      KCal/Mol        Cal/Mol-Kelvin    Cal/Mol-Kelvin
 Total                   40.547             15.265             68.196
 Electronic               0.000              0.000              1.377
 Translational            0.889              2.981             37.771
 Rotational               0.889              2.981             23.294
 Vibrational             38.769              9.303              5.754
 Vibration     1          0.642              1.826              2.044
 Vibration     2          0.679              1.715              1.547
 Vibration     3          0.873              1.209              0.614
 Vibration     4          0.907              1.136              0.541

 Optimization completed.
    -- Stationary point found.
 Normal termination of Gaussian 09 at Wed Jul 20 00:23:25 2016.
