 Gaussian 09, Revision E.01,
 Gaussian 09:  EM64L-G09RevE.01 30-Nov-2015

 ---------------------------------------------
 #p b3lyp/6-311++G(3df,2p) freq symmetry=Loose
 ---------------------------------------------

 ---------
 b3lyp opt
 ---------
 Symbolic Z-matrix:
 Charge =  1 Multiplicity = 4

                         Standard orientation:
 ---------------------------------------------------------------------
 Center     Atomic      Atomic             Coordinates (Angstroms)
 Number     Number       Type             X           Y           Z
 ---------------------------------------------------------------------
      1          6           0       -1.095613   -0.104000   -0.000047
      2          1           0       -2.178627   -0.130182   -0.000087
      3          6           0       -0.080862    0.951040    0.000074
      4          1           0       -0.130106    2.031340    0.000159
      5          6           0        1.027762   -0.054891    0.000032
      6          1           0        1.711164   -0.042573    0.870104
      7          1           0        1.711225   -0.042432   -0.869990
      8          6           0       -0.036896   -1.094841   -0.000090
 ---------------------------------------------------------------------

 SCF Done:  E(UB3LYP) =  -154.314037762     A.U. after   13 cycles

 The electronic state is 4-A.
 Alpha  occ. eigenvalues --  -10.51634 -10.49372 -10.47239 -10.44331  -1.16840
 Alpha  occ. eigenvalues --   -0.94232  -0.90107  -0.79779  -0.72293  -0.71303
 Alpha  occ. eigenvalues --   -0.66818  -0.63156  -0.57948  -0.52627  -0.46133
 Alpha virt. eigenvalues --   -0.28815  -0.15877  -0.14648  -0.14325  -0.12387
 Alpha virt. eigenvalues --   -0.11114  -0.09678  -0.08262  -0.07282  -0.07100
 Alpha virt. eigenvalues --   -0.06301  -0.05285  -0.03721  -0.01626  -0.01081

  Beta  occ. eigenvalues --  -10.50795 -10.46745 -10.46006 -10.44206  -1.13018
  Beta  occ. eigenvalues --   -0.92076  -0.85214  -0.78358  -0.67999  -0.66942
  Beta  occ. eigenvalues --   -0.64607  -0.61690
  Beta virt. eigenvalues --   -0.45399  -0.34687  -0.30349  -0.20519  -0.15521
  Beta virt. eigenvalues --   -0.13949  -0.13329  -0.11867  -0.10544  -0.08966
  Beta virt. eigenvalues --   -0.08146  -0.06635  -0.06154  -0.04814  -0.04188

 Mulliken charges and spin densities:
               1          2
     1  C   -0.046000   0.484485
     2  H    0.286383  -0.012105
     3  C    0.145402   0.815247
     4  H    0.283338   0.013877
     5  C   -0.328984  -0.086665
     6  H    0.212084   0.077021
     7  H    0.212084   0.077021
     8  C    0.235693   1.631120
 Sum of Mulliken charges =   1.00000   3.00000

 Dipole moment (field-independent basis, Debye):
    X=             -0.3580    Y=              0.9621    Z=              0.0001  Tot=              1.0265
 Quadrupole moment (field-independent basis, Debye-Ang):
   XX=            -11.5337   YY=            -18.3367   ZZ=            -20.9193
   XY=              0.0633   XZ=              0.0003   YZ=              0.0002

  Exact polarizability:  45.075  -0.102  41.895   0.001   0.001  26.826
 Approx polarizability:  69.327  -0.410  70.412   0.001   0.002  39.745

                      1                      2                      3
                      A                      A                      A
 Frequencies --    273.7952               374.2149               533.4573
 Red. masses --      1.3707                 1.5886                 1.1379
 Frc consts  --      0.0605                 0.1311                 0.1908
 IR Inten    --     29.9020                 2.0759                20.5967

                      4                      5                      6
                      A                      A                      A
 Frequencies --    829.4888               881.8777               894.3359
 Red. masses --      1.9614                 2.1320                 1.1233
 Frc consts  --      0.7951                 0.9769                 0.5293
 IR Inten    --     67.4390                 3.6765                 1.6407

                      7                      8                      9
                      A                      A                      A
 Frequencies --    901.7353               956.0565              1067.2780
 Red. masses --      5.9325                 1.5230                 5.5506
 Frc consts  --      2.8421                 0.8202                 3.7252
 IR Inten    --      9.3609                16.2965                33.8670

                     10                     11                     12
                      A                      A                      A
 Frequencies --   1112.7612              1156.0017              1229.2102
 Red. masses --      1.6720                 2.8675                 1.0736
 Frc consts  --      1.2198                 2.2577                 0.9557
 IR Inten    --     19.2946                28.4089               140.0497

                     13                     14                     15
                      A                      A                      A
 Frequencies --   1273.5292              1302.9220              2905.3559
 Red. masses --      2.5765                 2.1120                 1.0838
 Frc consts  --      2.4621                 2.1124                 5.3903
 IR Inten    --      0.4456                 1.0278                65.2733

                     16                     17                     18
                      A                      A                      A
 Frequencies --   2917.0761              3203.4074              3217.1973
 Red. masses --      1.0611                 1.0926                 1.1042
 Frc consts  --      5.3200                 6.6061                 6.7339
 IR Inten    --    162.2896                49.5378                38.5510

 - Thermochemistry -
 -------------------
 Temperature   298.150 Kelvin.  Pressure   1.00000 Atm.
 Atom     1 has atomic number  6 and mass  12.00000

 Molecular mass:    52.03130 amu.
 Principal axes and moments of inertia in atomic units:
                           1         2         3
     Eigenvalues --   110.86606 140.63141 240.59994
           X            0.99995  -0.01042  -0.00004
           Y            0.01042   0.99995  -0.00008
           Z            0.00004   0.00008   1.00000
 This molecule is an asymmetric top.
 Rotational symmetry number  1.
 Rotational temperatures (Kelvin)      0.78125     0.61589     0.35999
 Rotational constants (GHZ):          16.27857    12.83313     7.50100
 Zero-point vibrational energy     149710.9 (Joules/Mol)
                                   35.78175 (Kcal/Mol)
 Warning -- explicit consideration of   3 degrees of freedom as
           vibrations may cause significant error
 Vibrational temperatures:    393.93   538.41   767.53  1193.45  1268.82
          (Kelvin)           1286.75  1297.39  1375.55  1535.57  1601.01
                             1663.23  1768.56  1832.32  1874.61  4180.15
                             4197.02  4608.98  4628.82

 Zero-point correction=                           0.057022 (Hartree/Particle)
 Thermal correction to Energy=                    0.061235
 Thermal correction to Enthalpy=                  0.062179
 Thermal correction to Gibbs Free Energy=         0.030067
 Sum of electronic and zero-point Energies=           -154.257016
 Sum of electronic and thermal Energies=              -154.252803
 Sum of electronic and thermal Enthalpies=            -154.251858
 Sum of electronic and thermal Free Energies=         -154.283970

                     E (Thermal)             CV                S
                      KCal/Mol        Cal/Mol-Kelvin    Cal/Mol-Kelvin
 Total                   38.426             14.256             67.585
 Electronic               0.000              0.000              2.755
 Translational            0.889              2.981             37.771
 Rotational               0.889              2.981             22.844
 Vibrational             36.648              8.294              4.216
 Vibration     1          0.676              1.722              1.572
 Vibration     2          0.745              1.525              1.062
 Vibration     3          0.888              1.176              0.580

 Optimization completed.
    -- Stationary point found.
 Normal termination of Gaussian 09 at Wed Jul 20 00:36:25 2016.
