 Gaussian 09, Revision E.01,
 Gaussian 09:  EM64L-G09RevE.01 30-Nov-2015

 ---------------------------------------------
 #p b3lyp/6-311++G(3df,2p) freq symmetry=Loose
 ---------------------------------------------

 ---------
 b3lyp opt
 ---------
 Symbolic Z-matrix:
 Charge =  0 Multiplicity = 1

                         Standard orientation:
 ---------------------------------------------------------------------
 Center     Atomic      Atomic             Coordinates (Angstroms)
 Number     Number       Type             X           Y           Z
 ---------------------------------------------------------------------
      1          6           0       -1.545447   -0.116296   -0.000007
      2          1           0       -2.044814   -1.078416   -0.000043
      3          1           0       -2.169942    0.770519    0.000795
      4          6           0       -0.220881    0.008981   -0.000587
      5          6           0        1.127719   -0.518946    0.000066
      6          1           0        1.576385   -0.924961   -0.905403
      7          1           0        1.574016   -0.926626    0.906086
      8          6           0        0.816001    0.986176    0.000289
 ---------------------------------------------------------------------

 SCF Done:  E(RB3LYP) =  -154.681309886     A.U. after   12 cycles

 The electronic state is 1-A.
 Alpha  occ. eigenvalues --  -10.22352 -10.21969 -10.20213 -10.19232  -0.89185
 Alpha  occ. eigenvalues --   -0.75563  -0.60115  -0.52745  -0.48054  -0.46645
 Alpha  occ. eigenvalues --   -0.40751  -0.31431  -0.30946  -0.23824
 Alpha virt. eigenvalues --   -0.13027  -0.00702   0.00917   0.01158   0.02184
 Alpha virt. eigenvalues --    0.04012   0.05471   0.05581   0.07594   0.07925
 Alpha virt. eigenvalues --    0.09609   0.10930   0.11360   0.12171   0.12841

 Mulliken charges:
               1
     1  C   -0.430807
     2  H    0.179781
     3  H    0.184424
     4  C    0.504543
     5  C   -0.382671
     6  H    0.162005
     7  H    0.161840
     8  C   -0.379114
 Sum of Mulliken charges =  -0.00000

 Dipole moment (field-independent basis, Debye):
    X=             -1.7041    Y=             -2.5324    Z=              0.0008  Tot=              3.0524
 Quadrupole moment (field-independent basis, Debye-Ang):
   XX=            -22.0326   YY=            -28.5360   ZZ=            -24.1632
   XY=             -3.2393   XZ=             -0.0034   YZ=             -0.0017

  Exact polarizability:  71.403   0.423  46.826   0.006   0.003  36.344
 Approx polarizability: 121.043   3.322  66.923   0.007   0.005  54.423

                      1                      2                      3
                      A                      A                      A
 Frequencies --    122.2146               324.2194               340.6920
 Red. masses --      1.9139                 1.2647                 2.7148
 Frc consts  --      0.0168                 0.0783                 0.1857
 IR Inten    --     11.9103                26.0621                 4.0652

                      4                      5                      6
                      A                      A                      A
 Frequencies --    674.6492               694.1425               938.8782
 Red. masses --      1.2664                 4.5274                 1.7906
 Frc consts  --      0.3396                 1.2853                 0.9300
 IR Inten    --      4.0132                39.1516                39.5988

                      7                      8                      9
                      A                      A                      A
 Frequencies --    979.2539               981.0802              1017.6918
 Red. masses --      1.2752                 1.7653                 1.3790
 Frc consts  --      0.7205                 1.0011                 0.8415
 IR Inten    --      0.4023                36.6340                24.5849

                     10                     11                     12
                      A                      A                      A
 Frequencies --   1054.1585              1199.9891              1388.6093
 Red. masses --      3.0649                 3.1856                 1.0838
 Frc consts  --      2.0067                 2.7027                 1.2313
 IR Inten    --     21.0774                72.1524                15.4190

                     13                     14                     15
                      A                      A                      A
 Frequencies --   1472.9254              1768.5661              3048.1051
 Red. masses --      1.1786                 8.6444                 1.0525
 Frc consts  --      1.5065                15.9305                 5.7617
 IR Inten    --     12.4024                94.3667                 0.8220

                     16                     17                     18
                      A                      A                      A
 Frequencies --   3104.1357              3110.1998              3195.9096
 Red. masses --      1.1082                 1.0567                 1.1172
 Frc consts  --      6.2916                 6.0228                 6.7232
 IR Inten    --      0.0880                15.3474                 3.7833

 - Thermochemistry -
 -------------------
 Temperature   298.150 Kelvin.  Pressure   1.00000 Atm.
 Atom     1 has atomic number  6 and mass  12.00000

 Molecular mass:    52.03130 amu.
 Principal axes and moments of inertia in atomic units:
                           1         2         3
     Eigenvalues --    71.48109 243.55627 303.22720
           X            0.99884  -0.04823  -0.00004
           Y            0.04823   0.99884  -0.00009
           Z            0.00004   0.00008   1.00000
 This molecule is an asymmetric top.
 Rotational symmetry number  1.
 Rotational temperatures (Kelvin)      1.21170     0.35562     0.28564
 Rotational constants (GHZ):          25.24781     7.40996     5.95178
 Zero-point vibrational energy     152018.0 (Joules/Mol)
                                   36.33317 (Kcal/Mol)
 Warning -- explicit consideration of   3 degrees of freedom as
           vibrations may cause significant error
 Vibrational temperatures:    175.84   466.48   490.18   970.67   998.72
          (Kelvin)           1350.83  1408.93  1411.55  1464.23  1516.70
                             1726.51  1997.90  2119.21  2544.57  4385.54
                             4466.15  4474.88  4598.20

 Zero-point correction=                           0.057901 (Hartree/Particle)
 Thermal correction to Energy=                    0.062649
 Thermal correction to Enthalpy=                  0.063593
 Thermal correction to Gibbs Free Energy=         0.031413
 Sum of electronic and zero-point Energies=           -154.623409
 Sum of electronic and thermal Energies=              -154.618661
 Sum of electronic and thermal Enthalpies=            -154.617717
 Sum of electronic and thermal Free Energies=         -154.649897

                     E (Thermal)             CV                S
                      KCal/Mol        Cal/Mol-Kelvin    Cal/Mol-Kelvin
 Total                   39.313             15.186             67.729
 Electronic               0.000              0.000              0.000
 Translational            0.889              2.981             37.771
 Rotational               0.889              2.981             23.183
 Vibrational             37.535              9.225              6.775
 Vibration     1          0.610              1.931              3.065
 Vibration     2          0.709              1.627              1.289
 Vibration     3          0.720              1.594              1.209

 Normal termination of Gaussian 09 at Tue Jun 21 21:15:08 2016.
