 Gaussian 09, Revision E.01,
 Gaussian 09:  EM64L-G09RevE.01 30-Nov-2015

 ---------------------------------------------
 #p b3lyp/6-311++G(3df,2p) freq symmetry=Loose
 ---------------------------------------------

 ---------
 b3lyp opt
 ---------
 Symbolic Z-matrix:
 Charge =  3 Multiplicity = 2

                         Standard orientation:
 ---------------------------------------------------------------------
 Center     Atomic      Atomic             Coordinates (Angstroms)
 Number     Number       Type             X           Y           Z
 ---------------------------------------------------------------------
      1          6           0       -0.002334    0.901439    0.000344
      2          1           0        0.001829   -1.635571   -0.901898
      3          6           0        1.175240    0.205352   -0.000428
      4          1           0        2.303358    0.238414   -0.000697
      5          6           0       -1.176691    0.202447    0.000036
      6          6           0        0.002803   -0.842089    0.000242
      7          1           0       -2.304990    0.229412   -0.000604
      8          1           0        0.005691   -1.635145    0.902040
 ---------------------------------------------------------------------

 SCF Done:  E(UB3LYP) =  -152.900799020     A.U. after   14 cycles

 The electronic state is 2-A.
 Alpha  occ. eigenvalues --  -11.13003 -11.11064 -11.11059 -11.06325  -1.77396
 Alpha  occ. eigenvalues --   -1.51851  -1.44089  -1.30774  -1.25418  -1.25391
 Alpha  occ. eigenvalues --   -1.22663  -1.19488  -1.10984
 Alpha virt. eigenvalues --   -0.93545  -0.88382  -0.76054  -0.65154  -0.62102
 Alpha virt. eigenvalues --   -0.61001  -0.58868  -0.57301  -0.51767  -0.48752
 Alpha virt. eigenvalues --   -0.47076  -0.43902  -0.43563  -0.41965  -0.40116

  Beta  occ. eigenvalues --  -11.12259 -11.11018 -11.11011 -11.05949  -1.76223
  Beta  occ. eigenvalues --   -1.51355  -1.41219  -1.30663  -1.25194  -1.20756
  Beta  occ. eigenvalues --   -1.20542  -1.19384
  Beta virt. eigenvalues --   -0.99688  -0.92572  -0.87343  -0.72543  -0.64488
  Beta virt. eigenvalues --   -0.61666  -0.60238  -0.56418  -0.56035  -0.51630
  Beta virt. eigenvalues --   -0.47841  -0.46946  -0.43263  -0.43130  -0.41897

 Mulliken charges and spin densities:
               1          2
     1  C    0.783899   0.419511
     2  H    0.387383   0.159905
     3  C    0.374015   0.042111
     4  H    0.468353  -0.001737
     5  C    0.373135   0.045266
     6  C   -0.242491   0.177107
     7  H    0.468561  -0.001820
     8  H    0.387144   0.159657
 Sum of Mulliken charges =   3.00000   1.00000

 Dipole moment (field-independent basis, Debye):
    X=              0.0002    Y=             -1.7682    Z=             -0.0022  Tot=              1.7682
 Quadrupole moment (field-independent basis, Debye-Ang):
   XX=              7.7357   YY=             -3.5361   ZZ=            -14.2558
   XY=              0.0101   XZ=              0.0050   YZ=              0.0029

  Exact polarizability:  36.896  -0.016  35.257   0.003   0.006  20.457
 Approx polarizability:  65.281  -0.044  75.046   0.002   0.017  31.477

                      1                      2                      3
                      A                      A                      A
 Frequencies --    210.1168               247.1472               605.2610
 Red. masses --      9.6861                 2.6275                 1.0335
 Frc consts  --      0.2520                 0.0946                 0.2231
 IR Inten    --     30.8278                13.3657                 8.2644

                      4                      5                      6
                      A                      A                      A
 Frequencies --    608.3321               619.1868               803.3646
 Red. masses --      1.2978                 5.2472                 1.4426
 Frc consts  --      0.2830                 1.1853                 0.5486
 IR Inten    --     89.9183                 5.8019                36.9863

                      7                      8                      9
                      A                      A                      A
 Frequencies --    844.1854               864.5350               873.2912
 Red. masses --      1.0538                 1.5112                 1.4546
 Frc consts  --      0.4425                 0.6655                 0.6536
 IR Inten    --     48.1087                10.4681               350.5515

                     10                     11                     12
                      A                      A                      A
 Frequencies --    967.2162              1014.1247              1070.8162
 Red. masses --      1.3341                 1.3394                 1.8613
 Frc consts  --      0.7353                 0.8116                 1.2575
 IR Inten    --      0.0010                47.3787                64.1713

                     13                     14                     15
                      A                      A                      A
 Frequencies --   1218.4207              1455.2217              1869.2660
 Red. masses --      4.1772                 5.8537                 1.0659
 Frc consts  --      3.6537                 7.3036                 2.1943
 IR Inten    --     21.5979               462.2327               649.7087

                     16                     17                     18
                      A                      A                      A
 Frequencies --   2189.3166              2791.5931              2815.8872
 Red. masses --      1.0884                 1.1309                 1.1321
 Frc consts  --      3.0736                 5.1927                 5.2891
 IR Inten    --   1042.1906               976.0274                 4.1433

 - Thermochemistry -
 -------------------
 Temperature   298.150 Kelvin.  Pressure   1.00000 Atm.
 Atom     1 has atomic number  6 and mass  12.00000

 Molecular mass:    52.03130 amu.
 Principal axes and moments of inertia in atomic units:
                           1         2         3
     Eigenvalues --    93.74221 162.59432 244.62463
           X            1.00000   0.00040   0.00008
           Y           -0.00040   1.00000  -0.00000
           Z           -0.00008   0.00000   1.00000
 This molecule is an asymmetric top.
 Rotational symmetry number  1.
 Rotational temperatures (Kelvin)      0.92396     0.53270     0.35407
 Rotational constants (GHZ):          19.25217    11.09966     7.37759
 Zero-point vibrational energy     126010.3 (Joules/Mol)
                                   30.11719 (Kcal/Mol)
 Warning -- explicit consideration of   5 degrees of freedom as
           vibrations may cause significant error
 Vibrational temperatures:    302.31   355.59   870.83   875.25   890.87
          (Kelvin)           1155.86  1214.59  1243.87  1256.47  1391.61
                             1459.10  1540.66  1753.03  2093.74  2689.45
                             3149.93  4016.47  4051.43

 Zero-point correction=                           0.047995 (Hartree/Particle)
 Thermal correction to Energy=                    0.052718
 Thermal correction to Enthalpy=                  0.053662
 Thermal correction to Gibbs Free Energy=         0.021311
 Sum of electronic and zero-point Energies=           -152.852804
 Sum of electronic and thermal Energies=              -152.848081
 Sum of electronic and thermal Enthalpies=            -152.847137
 Sum of electronic and thermal Free Energies=         -152.879488

                     E (Thermal)             CV                S
                      KCal/Mol        Cal/Mol-Kelvin    Cal/Mol-Kelvin
 Total                   33.081             16.284             68.089
 Electronic               0.000              0.000              1.377
 Translational            0.889              2.981             37.771
 Rotational               0.889              2.981             22.838
 Vibrational             31.304             10.322              6.103
 Vibration     1          0.642              1.825              2.043
 Vibration     2          0.661              1.768              1.751
 Vibration     3          0.964              1.021              0.441
 Vibration     4          0.967              1.014              0.436
 Vibration     5          0.979              0.991              0.418

 Normal termination of Gaussian 09 at Wed Jun 22 00:07:21 2016.
