 Gaussian 09, Revision E.01,
 Gaussian 09:  EM64L-G09RevE.01 30-Nov-2015

 ---------------------------------------------
 #p b3lyp/6-311++G(3df,2p) freq symmetry=Loose
 ---------------------------------------------

 ---------
 b3lyp opt
 ---------
 Symbolic Z-matrix:
 Charge =  2 Multiplicity = 1

                         Standard orientation:
 ---------------------------------------------------------------------
 Center     Atomic      Atomic             Coordinates (Angstroms)
 Number     Number       Type             X           Y           Z
 ---------------------------------------------------------------------
      1          6           0       -0.352177    0.694919   -0.000000
      2          1           0       -1.020416    0.886195    0.896837
      3          1           0       -1.020416    0.886195   -0.896837
      4          6           0        0.352177   -0.694919   -0.000000
      5          1           0        1.020416   -0.886195   -0.896837
      6          1           0        1.020416   -0.886195    0.896837
      7          6           0        0.352177    1.896231   -0.000000
      8          6           0       -0.352177   -1.896231   -0.000000
 ---------------------------------------------------------------------

 SCF Done:  E(RB3LYP) =  -153.654720414     A.U. after   11 cycles

 The electronic state is 1-AG.
 Alpha  occ. eigenvalues --  -10.84151 -10.84150 -10.72272 -10.72256  -1.36454
 Alpha  occ. eigenvalues --   -1.29672  -1.06687  -1.03349  -0.98713  -0.93733
 Alpha  occ. eigenvalues --   -0.91051  -0.81988  -0.79429
 Alpha virt. eigenvalues --   -0.63858  -0.60162  -0.59739  -0.59572  -0.36555
 Alpha virt. eigenvalues --   -0.35759  -0.35187  -0.29449  -0.29038  -0.27795
 Alpha virt. eigenvalues --   -0.26983  -0.26797  -0.23302  -0.20984  -0.20547

 Mulliken charges:
               1
     1  C    0.157719
     2  H    0.304846
     3  H    0.304846
     4  C    0.157719
     5  H    0.304846
     6  H    0.304846
     7  C    0.232589
     8  C    0.232589
 Sum of Mulliken charges =   2.00000

 Dipole moment (field-independent basis, Debye):
    X=             -0.0000    Y=              0.0000    Z=             -0.0000  Tot=              0.0000
 Quadrupole moment (field-independent basis, Debye-Ang):
   XX=            -14.2792   YY=             -4.7104   ZZ=            -15.3666
   XY=             -3.3398   XZ=              0.0000   YZ=             -0.0000

  Exact polarizability:  31.853   3.512  47.445   0.000  -0.000  29.370
 Approx polarizability:  55.068  11.569  72.815  -0.000  -0.000  47.676

                      1                      2                      3
                     AU                     BU                     AG
 Frequencies --     82.7550               198.6692               250.1123
 Red. masses --      3.0556                 7.7934                 5.1516
 Frc consts  --      0.0123                 0.1812                 0.1899
 IR Inten    --     14.7732                18.3044                 0.0000

                      4                      5                      6
                     BG                     AU                     AG
 Frequencies --    383.0765               393.6262               748.0376
 Red. masses --      1.7034                 1.3245                 6.5168
 Frc consts  --      0.1473                 0.1209                 2.1485
 IR Inten    --      0.0000                 9.0801                 0.0000

                      7                      8                      9
                     BU                     AU                     AG
 Frequencies --    836.6062               890.1339              1008.3858
 Red. masses --      1.2389                 1.0109                 1.3716
 Frc consts  --      0.5109                 0.4719                 0.8217
 IR Inten    --     27.5330                 3.5567                 0.0000

                     10                     11                     12
                     BG                     AG                     BU
 Frequencies --   1109.3732              1227.3498              1231.7241
 Red. masses --      1.1612                 1.0613                 1.0819
 Frc consts  --      0.8420                 0.9420                 0.9670
 IR Inten    --      0.0000                 0.0000               119.4734

                     13                     14                     15
                     BU                     AG                     AG
 Frequencies --   1366.2535              1467.1590              2702.0901
 Red. masses --      5.0971                 4.9771                 1.0563
 Frc consts  --      5.6058                 6.3123                 4.5439
 IR Inten    --    568.4628                 0.0000                 0.0000

                     16                     17                     18
                     BG                     BU                     AU
 Frequencies --   2704.7578              2708.2324              2715.8452
 Red. masses --      1.0889                 1.0565                 1.0892
 Frc consts  --      4.6934                 4.5655                 4.7334
 IR Inten    --      0.0000               399.9389               383.7652

 - Thermochemistry -
 -------------------
 Temperature   298.150 Kelvin.  Pressure   1.00000 Atm.
 Atom     1 has atomic number  6 and mass  12.00000

 Molecular mass:    52.03130 amu.
 Principal axes and moments of inertia in atomic units:
                           1         2         3
     Eigenvalues --    46.17310 374.09930 397.11444
           X            0.07105   0.99747   0.00000
           Y            0.99747  -0.07105   0.00000
           Z            0.00000   0.00000   1.00000
 This molecule is an asymmetric top.
 Rotational symmetry number  2.
 Rotational temperatures (Kelvin)      1.87585     0.23153     0.21811
 Rotational constants (GHZ):          39.08642     4.82423     4.54464
 Zero-point vibrational energy     131733.9 (Joules/Mol)
                                   31.48516 (Kcal/Mol)
 Warning -- explicit consideration of   5 degrees of freedom as
           vibrations may cause significant error
 Vibrational temperatures:    119.07   285.84   359.86   551.16   566.34
          (Kelvin)           1076.26  1203.69  1280.70  1450.84  1596.14
                             1765.88  1772.17  1965.73  2110.91  3887.70
                             3891.54  3896.54  3907.49

 Zero-point correction=                           0.050175 (Hartree/Particle)
 Thermal correction to Energy=                    0.055790
 Thermal correction to Enthalpy=                  0.056734
 Thermal correction to Gibbs Free Energy=         0.023291
 Sum of electronic and zero-point Energies=           -153.604546
 Sum of electronic and thermal Energies=              -153.598931
 Sum of electronic and thermal Enthalpies=            -153.597987
 Sum of electronic and thermal Free Energies=         -153.631430

                     E (Thermal)             CV                S
                      KCal/Mol        Cal/Mol-Kelvin    Cal/Mol-Kelvin
 Total                   35.008             17.582             70.386
 Electronic               0.000              0.000              0.000
 Translational            0.889              2.981             37.771
 Rotational               0.889              2.981             22.066
 Vibrational             33.231             11.620             10.550
 Vibration     1          0.600              1.961              3.824
 Vibration     2          0.637              1.842              2.145
 Vibration     3          0.663              1.763              1.730
 Vibration     4          0.752              1.506              1.027
 Vibration     5          0.761              1.484              0.986

 Optimization completed.
    -- Stationary point found.
 Normal termination of Gaussian 09 at Tue Jul 19 17:45:51 2016.
