 Gaussian 09, Revision E.01,
 Gaussian 09:  EM64L-G09RevE.01 30-Nov-2015

 ---------------------------------------------
 #p b3lyp/6-311++G(3df,2p) freq symmetry=Loose
 ---------------------------------------------

 ---------
 b3lyp opt
 ---------
 Symbolic Z-matrix:
 Charge =  3 Multiplicity = 4

                         Standard orientation:
 ---------------------------------------------------------------------
 Center     Atomic      Atomic             Coordinates (Angstroms)
 Number     Number       Type             X           Y           Z
 ---------------------------------------------------------------------
      1          6           0       -0.594590    0.055133   -0.106036
      2          6           0        1.999079   -0.323350    0.110491
      3          1           0        2.738149   -1.065467   -0.314462
      4          6           0       -1.937512   -0.172980    0.038196
      5          1           0       -2.463008   -0.233290    1.042325
      6          1           0       -2.608408   -0.324682   -0.867547
      7          6           0        0.762758    0.449182   -0.014596
      8          1           0        0.954857    1.575529   -0.028652
 ---------------------------------------------------------------------

 SCF Done:  E(UB3LYP) =  -152.907071818     A.U. after   16 cycles

 The electronic state is 4-A.
 Alpha  occ. eigenvalues --  -11.08121 -11.06616 -11.04855 -10.99215  -1.60450
 Alpha  occ. eigenvalues --   -1.52039  -1.40744  -1.26806  -1.21219  -1.20726
 Alpha  occ. eigenvalues --   -1.16797  -1.09750  -1.05899  -0.99164
 Alpha virt. eigenvalues --   -0.88141  -0.77725  -0.77074  -0.60894  -0.53493
 Alpha virt. eigenvalues --   -0.50529  -0.49157  -0.46736  -0.44808  -0.43290
 Alpha virt. eigenvalues --   -0.42114  -0.41913  -0.40677  -0.39218  -0.37755

  Beta  occ. eigenvalues --  -11.06284 -11.04872 -11.04021 -10.98623  -1.55409
  Beta  occ. eigenvalues --   -1.47770  -1.36735  -1.24215  -1.19375  -1.18334
  Beta  occ. eigenvalues --   -1.13070
  Beta virt. eigenvalues --   -0.95726  -0.91713  -0.83980  -0.82073  -0.70916
  Beta virt. eigenvalues --   -0.68817  -0.57272  -0.51433  -0.49062  -0.47350
  Beta virt. eigenvalues --   -0.45799  -0.43922  -0.42319  -0.40825  -0.40814

 Mulliken charges and spin densities:
               1          2
     1  C    0.819247   1.056467
     2  C    0.389902   0.964950
     3  H    0.421254  -0.000395
     4  C    0.022186   0.357295
     5  H    0.367570   0.036845
     6  H    0.371862   0.035694
     7  C    0.276699   0.523083
     8  H    0.331281   0.026062
 Sum of Mulliken charges =   3.00000   3.00000

 Dipole moment (field-independent basis, Debye):
    X=              0.8068    Y=             -0.6347    Z=             -0.1759  Tot=              1.0415
 Quadrupole moment (field-independent basis, Debye-Ang):
   XX=             36.6873   YY=            -10.4563   ZZ=            -14.7118
   XY=             -1.2103   XZ=             -1.4144   YZ=              0.1172

  Exact polarizability:  88.482   2.823  24.676   0.143  -0.095  21.677
 Approx polarizability: 124.704   4.697  36.001   3.213  -0.783  30.909

                      1                      2                      3
                      A                      A                      A
 Frequencies --    167.0099               254.7594               302.8049
 Red. masses --      1.8848                 2.2156                 2.0439
 Frc consts  --      0.0310                 0.0847                 0.1104
 IR Inten    --    137.7187                74.1663               273.9927

                      4                      5                      6
                      A                      A                      A
 Frequencies --    440.0599               519.4064               556.3489
 Red. masses --      1.2580                 1.3567                 4.0840
 Frc consts  --      0.1435                 0.2156                 0.7448
 IR Inten    --     47.0399                25.5600               143.4024

                      7                      8                      9
                      A                      A                      A
 Frequencies --    733.1491               782.9783               792.9823
 Red. masses --      1.5676                 1.5842                 3.5354
 Frc consts  --      0.4964                 0.5722                 1.3098
 IR Inten    --     66.5831                22.2144                44.8350

                     10                     11                     12
                      A                      A                      A
 Frequencies --    956.3935              1011.9353              1180.1112
 Red. masses --      1.3498                 2.4174                 1.0781
 Frc consts  --      0.7274                 1.4585                 0.8847
 IR Inten    --     41.9699                40.5083               294.2564

                     13                     14                     15
                      A                      A                      A
 Frequencies --   1220.5661              1587.8348              2579.6309
 Red. masses --      1.5490                 8.9549                 1.0664
 Frc consts  --      1.3597                13.3021                 4.1811
 IR Inten    --     25.6482                34.6783              1448.4591

                     16                     17                     18
                      A                      A                      A
 Frequencies --   2609.4564              2677.7081              2774.9906
 Red. masses --      1.0526                 1.1091                 1.1012
 Frc consts  --      4.2228                 4.6853                 4.9963
 IR Inten    --    900.1656               496.7229               573.0176

 - Thermochemistry -
 -------------------
 Temperature   298.150 Kelvin.  Pressure   1.00000 Atm.
 Atom     1 has atomic number  6 and mass  12.00000

 Molecular mass:    52.03130 amu.
 Principal axes and moments of inertia in atomic units:
                           1         2         3
     Eigenvalues --    36.14589 456.64415 476.89983
           X            0.99995   0.00066  -0.00953
           Y           -0.00011   0.99834   0.05755
           Z            0.00955  -0.05755   0.99830
 This molecule is an asymmetric top.
 Rotational symmetry number  1.
 Rotational temperatures (Kelvin)      2.39623     0.18967     0.18162
 Rotational constants (GHZ):          49.92936     3.95218     3.78432
 Zero-point vibrational energy     126493.9 (Joules/Mol)
                                   30.23276 (Kcal/Mol)
 Warning -- explicit consideration of   6 degrees of freedom as
           vibrations may cause significant error
 Vibrational temperatures:    240.29   366.54   435.67   633.15   747.31
          (Kelvin)            800.46  1054.84  1126.53  1140.92  1376.04
                             1455.95  1697.91  1756.12  2284.54  3711.51
                             3754.42  3852.62  3992.59

 Zero-point correction=                           0.048179 (Hartree/Particle)
 Thermal correction to Energy=                    0.053570
 Thermal correction to Enthalpy=                  0.054514
 Thermal correction to Gibbs Free Energy=         0.020002
 Sum of electronic and zero-point Energies=           -152.858893
 Sum of electronic and thermal Energies=              -152.853502
 Sum of electronic and thermal Enthalpies=            -152.852557
 Sum of electronic and thermal Free Energies=         -152.887070

                     E (Thermal)             CV                S
                      KCal/Mol        Cal/Mol-Kelvin    Cal/Mol-Kelvin
 Total                   33.616             18.353             72.638
 Electronic               0.000              0.000              2.755
 Translational            0.889              2.981             37.771
 Rotational               0.889              2.981             23.580
 Vibrational             31.838             12.391              8.532
 Vibration     1          0.624              1.883              2.469
 Vibration     2          0.665              1.755              1.697
 Vibration     3          0.694              1.668              1.401
 Vibration     4          0.800              1.383              0.826
 Vibration     5          0.874              1.207              0.611
 Vibration     6          0.912              1.126              0.531

 Optimization completed.
    -- Stationary point found.
 Normal termination of Gaussian 09 at Wed Jun 22 00:57:19 2016.
