 Gaussian 09, Revision E.01,
 Gaussian 09:  EM64L-G09RevE.01 30-Nov-2015

 ---------------------------------------------
 #p b3lyp/6-311++G(3df,2p) freq symmetry=Loose
 ---------------------------------------------

 ---------
 b3lyp opt
 ---------
 Symbolic Z-matrix:
 Charge =  0 Multiplicity = 1

                         Standard orientation:
 ---------------------------------------------------------------------
 Center     Atomic      Atomic             Coordinates (Angstroms)
 Number     Number       Type             X           Y           Z
 ---------------------------------------------------------------------
      1          6           0        1.072485   -0.000018    0.163206
      2          6           0       -0.155695    0.799513   -0.146728
      3          1           0        1.382455   -0.000135    1.199926
      4          1           0        1.904394    0.000061   -0.539441
      5          1           0       -0.223108    1.583866   -0.892288
      6          6           0       -1.234533   -0.000036    0.317838
      7          6           0       -0.155695   -0.799480   -0.146908
      8          1           0       -0.223108   -1.583665   -0.892645
 ---------------------------------------------------------------------

 SCF Done:  E(RB3LYP) =  -154.707566844     A.U. after   12 cycles

 The electronic state is 1-A.
 Alpha  occ. eigenvalues --  -10.23351 -10.23339 -10.21677 -10.18647  -0.95323
 Alpha  occ. eigenvalues --   -0.70570  -0.62954  -0.55878  -0.50807  -0.45281
 Alpha  occ. eigenvalues --   -0.37930  -0.34375  -0.33267  -0.23337
 Alpha virt. eigenvalues --   -0.04422  -0.01117  -0.00605   0.00987   0.01351
 Alpha virt. eigenvalues --    0.02785   0.06563   0.06808   0.07146   0.07908
 Alpha virt. eigenvalues --    0.08793   0.11453   0.11690   0.11778   0.12533

 Mulliken charges:
               1
     1  C   -0.502773
     2  C    0.216402
     3  H    0.191866
     4  H    0.105221
     5  H    0.168876
     6  C   -0.564870
     7  C    0.216403
     8  H    0.168876
 Sum of Mulliken charges =  -0.00000

 Dipole moment (field-independent basis, Debye):
    X=              3.4634    Y=              0.0002    Z=             -1.4390  Tot=              3.7504
 Quadrupole moment (field-independent basis, Debye-Ang):
   XX=            -30.4453   YY=            -22.8170   ZZ=            -23.6027
   XY=             -0.0002   XZ=              1.8364   YZ=              0.0001

  Exact polarizability:  51.668  -0.003  44.038  -0.924   0.002  36.635
 Approx polarizability:  72.659   0.000  73.766  -2.060   0.002  53.880

                      1                      2                      3
                      A                      A                      A
 Frequencies --    482.3885               728.0237               743.1226
 Red. masses --      3.8035                 3.3285                 1.6892
 Frc consts  --      0.5215                 1.0394                 0.5496
 IR Inten    --     19.4369                 0.0010                 3.4709

                      4                      5                      6
                      A                      A                      A
 Frequencies --    893.9620               934.6780              1006.4963
 Red. masses --      2.2448                 1.7531                 1.5247
 Frc consts  --      1.0570                 0.9023                 0.9100
 IR Inten    --     11.1345                16.2356                 2.1162

                      7                      8                      9
                      A                      A                      A
 Frequencies --   1008.1185              1098.4587              1104.5476
 Red. masses --      1.2864                 1.1513                 1.3591
 Frc consts  --      0.7703                 0.8185                 0.9770
 IR Inten    --      1.0610                 5.5396                 2.5906

                     10                     11                     12
                      A                      A                      A
 Frequencies --   1135.4483              1227.5824              1228.7214
 Red. masses --      1.3943                 3.3596                 1.8522
 Frc consts  --      1.0591                 2.9829                 1.6475
 IR Inten    --      5.4935                 5.4806                 9.2296

                     13                     14                     15
                      A                      A                      A
 Frequencies --   1398.1609              1519.8202              3064.1000
 Red. masses --      4.5841                 1.1501                 1.0604
 Frc consts  --      5.2798                 1.5652                 5.8659
 IR Inten    --     15.7399                 1.1320                48.3556

                     16                     17                     18
                      A                      A                      A
 Frequencies --   3146.0239              3152.3323              3162.4967
 Red. masses --      1.0884                 1.0973                 1.1062
 Frc consts  --      6.3472                 6.4246                 6.5185
 IR Inten    --      5.7957                 0.3216                 7.8039

 - Thermochemistry -
 -------------------
 Temperature   298.150 Kelvin.  Pressure   1.00000 Atm.
 Atom     1 has atomic number  6 and mass  12.00000

 Molecular mass:    52.03130 amu.
 Principal axes and moments of inertia in atomic units:
                           1         2         3
     Eigenvalues --    91.93187 155.61757 209.36051
           X            0.99957  -0.00000   0.02925
           Y            0.00000   1.00000  -0.00011
           Z           -0.02925   0.00011   0.99957
 This molecule is an asymmetric top.
 Rotational symmetry number  1.
 Rotational temperatures (Kelvin)      0.94215     0.55658     0.41371
 Rotational constants (GHZ):          19.63129    11.59728     8.62026
 Zero-point vibrational energy     161702.1 (Joules/Mol)
                                   38.64773 (Kcal/Mol)
 Warning -- explicit consideration of   1 degrees of freedom as
           vibrations may cause significant error
 Vibrational temperatures:    694.05  1047.46  1069.19  1286.21  1344.79
          (Kelvin)           1448.12  1450.46  1580.44  1589.20  1633.65
                             1766.22  1767.85  2011.64  2186.68  4408.55
                             4526.42  4535.50  4550.12

 Zero-point correction=                           0.061589 (Hartree/Particle)
 Thermal correction to Energy=                    0.065145
 Thermal correction to Enthalpy=                  0.066089
 Thermal correction to Gibbs Free Energy=         0.036462
 Sum of electronic and zero-point Energies=           -154.645978
 Sum of electronic and thermal Energies=              -154.642422
 Sum of electronic and thermal Enthalpies=            -154.641478
 Sum of electronic and thermal Free Energies=         -154.671104

                     E (Thermal)             CV                S
                      KCal/Mol        Cal/Mol-Kelvin    Cal/Mol-Kelvin
 Total                   40.879             11.837             62.354
 Electronic               0.000              0.000              0.000
 Translational            0.889              2.981             37.771
 Rotational               0.889              2.981             22.620
 Vibrational             39.102              5.876              1.964
 Vibration     1          0.839              1.289              0.704

 Optimization completed.
    -- Stationary point found.
 Normal termination of Gaussian 09 at Tue Jul 19 19:07:23 2016.
