 Gaussian 09, Revision E.01,
 Gaussian 09:  EM64L-G09RevE.01 30-Nov-2015

 ---------------------------------------------
 #p b3lyp/6-311++G(3df,2p) freq symmetry=Loose
 ---------------------------------------------

 ---------
 b3lyp opt
 ---------
 Symbolic Z-matrix:
 Charge =  3 Multiplicity = 2

                         Standard orientation:
 ---------------------------------------------------------------------
 Center     Atomic      Atomic             Coordinates (Angstroms)
 Number     Number       Type             X           Y           Z
 ---------------------------------------------------------------------
      1          6           0       -0.000000   -0.000000    0.648903
      2          6           0        0.000000   -0.000000   -0.648903
      3          6           0        0.000000    0.000000   -2.024945
      4          6           0       -0.000000    0.000000    2.024945
      5          1           0       -0.401885    0.877245    2.633512
      6          1           0        0.401885   -0.877245    2.633512
      7          1           0        0.401885    0.877245   -2.633512
      8          1           0       -0.401885   -0.877245   -2.633512
 ---------------------------------------------------------------------

 SCF Done:  E(UB3LYP) =  -153.007729694     A.U. after   12 cycles

 The electronic state is 2-B2.
 Alpha  occ. eigenvalues --  -11.05958 -11.05847 -11.02562 -11.02560  -1.60553
 Alpha  occ. eigenvalues --   -1.52266  -1.44631  -1.24266  -1.22236  -1.18764
 Alpha  occ. eigenvalues --   -1.16615  -1.10425  -1.07235
 Alpha virt. eigenvalues --   -0.91300  -0.84253  -0.73263  -0.65847  -0.58146
 Alpha virt. eigenvalues --   -0.54131  -0.48613  -0.46895  -0.46383  -0.44306
 Alpha virt. eigenvalues --   -0.41988  -0.41147  -0.41021  -0.40920  -0.38893

  Beta  occ. eigenvalues --  -11.05368 -11.05262 -11.02418 -11.02416  -1.58184
  Beta  occ. eigenvalues --   -1.51148  -1.43426  -1.23364  -1.21556  -1.16485
  Beta  occ. eigenvalues --   -1.15380  -1.09015
  Beta virt. eigenvalues --   -0.96935  -0.90178  -0.82294  -0.69449  -0.64386
  Beta virt. eigenvalues --   -0.56334  -0.53724  -0.48019  -0.46466  -0.45947
  Beta virt. eigenvalues --   -0.43692  -0.41592  -0.41096  -0.40647  -0.40125

 Mulliken charges and spin densities:
               1          2
     1  C    0.800160   0.374441
     2  C    0.800160   0.374441
     3  C   -0.088072   0.077339
     4  C   -0.088072   0.077339
     5  H    0.393956   0.024110
     6  H    0.393956   0.024110
     7  H    0.393956   0.024110
     8  H    0.393956   0.024110
 Sum of Mulliken charges =   3.00000   1.00000

 Dipole moment (field-independent basis, Debye):
    X=              0.0000    Y=             -0.0000    Z=             -0.0000  Tot=              0.0000
 Quadrupole moment (field-independent basis, Debye-Ang):
   XX=            -16.5394   YY=            -12.2465   ZZ=             46.1221
   XY=              0.0000   XZ=              0.0000   YZ=             -0.0000

  Exact polarizability:  18.874  -0.000  22.389  -0.000  -0.000  84.852
 Approx polarizability:  26.517   0.000  31.418   0.000   0.000 165.430

                      1                      2                      3
                     B2                     B3                     B3
 Frequencies --    205.0879               205.4355               418.3533
 Red. masses --      2.6601                 3.3508                 2.3952
 Frc consts  --      0.0659                 0.0833                 0.2470
 IR Inten    --     34.0154                41.3357                 0.1008

                      4                      5                      6
                     B2                      A                      A
 Frequencies --    420.5677               548.9384               733.8894
 Red. masses --      3.9038                 1.0412                 5.5343
 Frc consts  --      0.4068                 0.1849                 1.7562
 IR Inten    --      0.2339                 0.0000                 0.0000

                      7                      8                      9
                     B2                     B3                     B1
 Frequencies --    797.1047               842.5034               988.3083
 Red. masses --      1.5724                 1.8832                 5.4939
 Frc consts  --      0.5886                 0.7876                 3.1617
 IR Inten    --     24.7917                 2.3616                 0.6208

                     10                     11                     12
                     B2                     B3                      A
 Frequencies --   1027.0112              1032.8807              1158.9072
 Red. masses --      1.3968                 1.3782                 1.0816
 Frc consts  --      0.8680                 0.8663                 0.8558
 IR Inten    --     11.1363                53.8536                 0.0000

                     13                     14                     15
                     B1                      A                     B1
 Frequencies --   1200.4358              1693.8188              2535.1756
 Red. masses --      1.1779                 8.7917                 1.0348
 Frc consts  --      1.0001                14.8613                 3.9184
 IR Inten    --    665.1131                 0.0000              2534.8741

                     16                     17                     18
                      A                     B2                     B3
 Frequencies --   2598.6303              2641.3934              2642.7514
 Red. masses --      1.0374                 1.1119                 1.1134
 Frc consts  --      4.1276                 4.5708                 4.5815
 IR Inten    --      0.0000               857.3931               185.1243

 - Thermochemistry -
 -------------------
 Temperature   298.150 Kelvin.  Pressure   1.00000 Atm.
 Atom     1 has atomic number  6 and mass  12.00000

 Molecular mass:    52.03130 amu.
 Principal axes and moments of inertia in atomic units:
                           1         2         3
     Eigenvalues --    13.40372 489.68287 498.43634
           X           -0.00000  -0.00000   1.00000
           Y           -0.00000   1.00000   0.00000
           Z            1.00000   0.00000   0.00000
 This molecule is an asymmetric top.
 Rotational symmetry number  4.
 Rotational temperatures (Kelvin)      6.46192     0.17688     0.17377
 Rotational constants (GHZ):         134.64483     3.68553     3.62081
 Zero-point vibrational energy     129742.1 (Joules/Mol)
                                   31.00912 (Kcal/Mol)
 Warning -- explicit consideration of   5 degrees of freedom as
           vibrations may cause significant error
 Vibrational temperatures:    295.08   295.58   601.92   605.10   789.80
          (Kelvin)           1055.90  1146.85  1212.17  1421.95  1477.64
                             1486.08  1667.41  1727.16  2437.02  3647.55
                             3738.84  3800.37  3802.33

 Zero-point correction=                           0.049416 (Hartree/Particle)
 Thermal correction to Energy=                    0.054515
 Thermal correction to Enthalpy=                  0.055459
 Thermal correction to Gibbs Free Energy=         0.023806
 Sum of electronic and zero-point Energies=           -152.958314
 Sum of electronic and thermal Energies=              -152.953215
 Sum of electronic and thermal Enthalpies=            -152.952271
 Sum of electronic and thermal Free Energies=         -152.983923

                     E (Thermal)             CV                S
                      KCal/Mol        Cal/Mol-Kelvin    Cal/Mol-Kelvin
 Total                   34.209             17.190             66.619
 Electronic               0.000              0.000              1.377
 Translational            0.889              2.981             37.771
 Rotational               0.889              2.981             19.953
 Vibrational             32.431             11.228              7.518
 Vibration     1          0.640              1.833              2.087
 Vibration     2          0.640              1.832              2.084
 Vibration     3          0.781              1.430              0.898
 Vibration     4          0.783              1.426              0.890
 Vibration     5          0.904              1.142              0.546

 Optimization completed.
    -- Stationary point found.
 Normal termination of Gaussian 09 at Wed Jun 22 00:00:29 2016.
