 Gaussian 09, Revision E.01,
 Gaussian 09:  EM64L-G09RevE.01 30-Nov-2015

 ---------------------------------------------
 #p b3lyp/6-311++G(3df,2p) freq symmetry=Loose
 ---------------------------------------------

 ---------
 b3lyp opt
 ---------
 Symbolic Z-matrix:
 Charge =  3 Multiplicity = 4

                         Standard orientation:
 ---------------------------------------------------------------------
 Center     Atomic      Atomic             Coordinates (Angstroms)
 Number     Number       Type             X           Y           Z
 ---------------------------------------------------------------------
      1          6           0        0.924757    0.032784   -0.000226
      2          6           0        2.209600   -0.229378    0.000604
      3          6           0       -0.379744    0.464838   -0.000893
      4          1           0       -0.449066    1.591184   -0.000885
      5          6           0       -1.544410   -0.357274    0.000086
      6          1           0       -1.619965   -1.456743   -0.001550
      7          1           0       -2.593940    0.201612    0.491167
      8          1           0       -2.598247    0.198132   -0.486158
 ---------------------------------------------------------------------

 SCF Done:  E(UB3LYP) =  -152.853019694     A.U. after   15 cycles

 The electronic state is 4-A.
 Alpha  occ. eigenvalues --  -11.12749 -11.05929 -11.01273 -11.00288  -1.61061
 Alpha  occ. eigenvalues --   -1.54871  -1.43814  -1.26797  -1.24320  -1.16471
 Alpha  occ. eigenvalues --   -1.14926  -1.12393  -1.08754  -1.05218
 Alpha virt. eigenvalues --   -0.85956  -0.78529  -0.68345  -0.65595  -0.56093
 Alpha virt. eigenvalues --   -0.55798  -0.52147  -0.47610  -0.45438  -0.44403
 Alpha virt. eigenvalues --   -0.43074  -0.42346  -0.39751  -0.38298  -0.37564

  Beta  occ. eigenvalues --  -11.08747 -11.04905 -11.00394 -11.00307  -1.57655
  Beta  occ. eigenvalues --   -1.49594  -1.41310  -1.25230  -1.22982  -1.13674
  Beta  occ. eigenvalues --   -1.08332
  Beta virt. eigenvalues --   -0.93031  -0.92988  -0.89388  -0.80079  -0.68810
  Beta virt. eigenvalues --   -0.63577  -0.63464  -0.54315  -0.53545  -0.51408
  Beta virt. eigenvalues --   -0.47160  -0.44775  -0.43717  -0.41970  -0.41639

 Mulliken charges and spin densities:
               1          2
     1  C    0.848832   0.663268
     2  C    0.691195   1.691821
     3  C    0.261087  -0.040745
     4  H    0.307199   0.033368
     5  C   -0.102741   0.586596
     6  H    0.351985  -0.014124
     7  H    0.321047   0.039650
     8  H    0.321395   0.040167
 Sum of Mulliken charges =   3.00000   3.00000

 Dipole moment (field-independent basis, Debye):
    X=             -2.8195    Y=              0.2760    Z=              0.0055  Tot=              2.8330
 Quadrupole moment (field-independent basis, Debye-Ang):
   XX=             38.3576   YY=            -10.1300   ZZ=            -17.3999
   XY=             -1.9566   XZ=             -0.0079   YZ=              0.0053

  Exact polarizability:  76.864  -1.933  25.690  -0.002   0.003  19.607
 Approx polarizability: 142.811  -7.813  37.960   0.008   0.000  27.764

                      1                      2                      3
                      A                      A                      A
 Frequencies --    229.3868               234.5229               339.1891
 Red. masses --      3.7393                 1.5480                 1.1906
 Frc consts  --      0.1159                 0.0502                 0.0807
 IR Inten    --     25.9834                70.1492                 3.9644

                      4                      5                      6
                      A                      A                      A
 Frequencies --    447.6086               538.5397               770.2291
 Red. masses --      1.9963                 4.6616                 1.8317
 Frc consts  --      0.2356                 0.7966                 0.6402
 IR Inten    --      4.5780                 2.7763                34.3148

                      7                      8                      9
                      A                      A                      A
 Frequencies --    778.3013               866.5360               960.2600
 Red. masses --      1.2074                 1.8141                 2.5705
 Frc consts  --      0.4309                 0.8026                 1.3965
 IR Inten    --    109.6142                 6.8625                27.0541

                     10                     11                     12
                      A                      A                      A
 Frequencies --   1135.7223              1258.7431              1308.8825
 Red. masses --      2.4372                 1.2847                 1.6072
 Frc consts  --      1.8522                 1.1993                 1.6222
 IR Inten    --     39.3637               444.4376                14.4549

                     13                     14                     15
                      A                      A                      A
 Frequencies --   1546.1693              1546.7680              1796.9010
 Red. masses --      1.0411                 1.0507                10.2896
 Frc consts  --      1.4664                 1.4812                19.5749
 IR Inten    --    351.2740               401.4425                60.1377

                     16                     17                     18
                      A                      A                      A
 Frequencies --   2364.2072              2717.9758              3019.3946
 Red. masses --      1.0422                 1.0814                 1.1004
 Frc consts  --      3.4323                 4.7070                 5.9109
 IR Inten    --    240.4298               413.9042               234.3629

 - Thermochemistry -
 -------------------
 Temperature   298.150 Kelvin.  Pressure   1.00000 Atm.
 Atom     1 has atomic number  6 and mass  12.00000

 Molecular mass:    52.03130 amu.
 Principal axes and moments of inertia in atomic units:
                           1         2         3
     Eigenvalues --    35.75741 411.10959 443.42915
           X            0.99999   0.00504  -0.00007
           Y           -0.00504   0.99999   0.00039
           Z            0.00007  -0.00039   1.00000
 This molecule is an asymmetric top.
 Rotational symmetry number  1.
 Rotational temperatures (Kelvin)      2.42226     0.21068     0.19533
 Rotational constants (GHZ):          50.47182     4.38993     4.06997
 Zero-point vibrational energy     130747.9 (Joules/Mol)
                                   31.24949 (Kcal/Mol)
 Warning -- explicit consideration of   5 degrees of freedom as
           vibrations may cause significant error
 Vibrational temperatures:    330.04   337.43   488.02   644.01   774.84
          (Kelvin)           1108.19  1119.80  1246.75  1381.60  1634.05
                             1811.05  1883.19  2224.59  2225.45  2585.34
                             3401.56  3910.56  4344.23

 Zero-point correction=                           0.049799 (Hartree/Particle)
 Thermal correction to Energy=                    0.054825
 Thermal correction to Enthalpy=                  0.055769
 Thermal correction to Gibbs Free Energy=         0.021988
 Sum of electronic and zero-point Energies=           -152.803220
 Sum of electronic and thermal Energies=              -152.798195
 Sum of electronic and thermal Enthalpies=            -152.797251
 Sum of electronic and thermal Free Energies=         -152.831031

                     E (Thermal)             CV                S
                      KCal/Mol        Cal/Mol-Kelvin    Cal/Mol-Kelvin
 Total                   34.403             16.753             71.097
 Electronic               0.000              0.000              2.755
 Translational            0.889              2.981             37.771
 Rotational               0.889              2.981             23.393
 Vibrational             32.626             10.791              7.179
 Vibration     1          0.652              1.796              1.884
 Vibration     2          0.654              1.788              1.844
 Vibration     3          0.719              1.597              1.216
 Vibration     4          0.807              1.366              0.803
 Vibration     5          0.894              1.165              0.568

 Normal termination of Gaussian 09 at Wed Jun 22 00:44:45 2016.
