 Gaussian 09, Revision E.01,
 Gaussian 09:  EM64L-G09RevE.01 30-Nov-2015

 ------------------------------------------------------
 #p b3lyp/6-311++G(3df,2p) freq IOp(2/17=3) IOp(2/18=3)
 ------------------------------------------------------

 ---------
 b3lyp opt
 ---------
 Symbolic Z-matrix:
 Charge =  0 Multiplicity = 3

                         Standard orientation:
 ---------------------------------------------------------------------
 Center     Atomic      Atomic             Coordinates (Angstroms)
 Number     Number       Type             X           Y           Z
 ---------------------------------------------------------------------
      1          6           0        1.143474   -0.000000    0.131898
      2          6           0       -0.000000    0.863305   -0.253507
      3          1           0        2.044336   -0.000000   -0.474443
      4          1           0        1.380311   -0.000000    1.205540
      5          1           0       -1.380311    0.000000    1.205540
      6          6           0       -0.000000   -0.863305   -0.253507
      7          6           0       -1.143474    0.000000    0.131898
      8          1           0       -2.044336    0.000000   -0.474443
 ---------------------------------------------------------------------

 SCF Done:  E(UB3LYP) =  -154.632761954     A.U. after   13 cycles

 The electronic state is 3-B2.
 Alpha  occ. eigenvalues --  -10.22691 -10.22684 -10.21864 -10.21860  -0.93880
 Alpha  occ. eigenvalues --   -0.72442  -0.58698  -0.55946  -0.50918  -0.45197
 Alpha  occ. eigenvalues --   -0.41233  -0.38612  -0.30880  -0.24032  -0.21915
 Alpha virt. eigenvalues --   -0.02124  -0.00551   0.01023   0.01829   0.03195
 Alpha virt. eigenvalues --    0.04406   0.05859   0.07463   0.08285   0.09615
 Alpha virt. eigenvalues --    0.10993   0.11565   0.11646   0.12476   0.13194

  Beta  occ. eigenvalues --  -10.21820 -10.21818 -10.21293 -10.21287  -0.91548
  Beta  occ. eigenvalues --   -0.71652  -0.56980  -0.52083  -0.48326  -0.43620
  Beta  occ. eigenvalues --   -0.40449  -0.37379  -0.26125
  Beta virt. eigenvalues --   -0.11756  -0.08234  -0.00314   0.00828   0.01104
  Beta virt. eigenvalues --    0.01965   0.03819   0.04509   0.06115   0.07539
  Beta virt. eigenvalues --    0.08491   0.10874   0.11107   0.11675   0.11956

 Mulliken charges and spin densities:
               1          2
     1  C   -0.184825  -0.037485
     2  C   -0.118726   0.892867
     3  H    0.141249   0.038287
     4  H    0.162302   0.106331
     5  H    0.162302   0.106331
     6  C   -0.118726   0.892867
     7  C   -0.184825  -0.037485
     8  H    0.141249   0.038287
 Sum of Mulliken charges =  -0.00000   2.00000

 Dipole moment (field-independent basis, Debye):
    X=              0.0000    Y=              0.0000    Z=              1.3448  Tot=              1.3448
 Quadrupole moment (field-independent basis, Debye-Ang):
   XX=            -20.1781   YY=            -30.5686   ZZ=            -24.3401
   XY=             -0.0000   XZ=             -0.0000   YZ=              0.0000

  Exact polarizability:  50.922  -0.000  53.717  -0.000  -0.000  40.422
 Approx polarizability:  70.174  -0.000 106.682   0.000   0.000  56.722

                      1                      2                      3
                     A1                     B2                     A1
 Frequencies --    364.1665               629.7709               768.4270
 Red. masses --      1.8668                 3.9329                 7.4496
 Frc consts  --      0.1459                 0.9190                 2.5917
 IR Inten    --     10.8565               118.5862                 2.9530

                      4                      5                      6
                     A2                     B1                     A2
 Frequencies --    821.9021               848.2026               891.4965
 Red. masses --      2.2128                 1.2771                 1.6048
 Frc consts  --      0.8807                 0.5414                 0.7515
 IR Inten    --      0.0000                 1.4797                 0.0000

                      7                      8                      9
                     A1                     B2                     A2
 Frequencies --   1044.5238              1059.2619              1100.6577
 Red. masses --      1.8388                 1.2075                 1.2321
 Frc consts  --      1.1820                 0.7983                 0.8794
 IR Inten    --      1.2020                14.3747                 0.0000

                     10                     11                     12
                     A1                     B2                     B1
 Frequencies --   1111.8840              1136.1648              1215.2884
 Red. masses --      5.0487                 1.2836                 7.1752
 Frc consts  --      3.6775                 0.9763                 6.2438
 IR Inten    --      1.9212                 2.8130                 0.3830

                     13                     14                     15
                     B1                     A1                     B1
 Frequencies --   1421.5799              1442.1046              2932.5609
 Red. masses --      1.0975                 1.1267                 1.0668
 Frc consts  --      1.3068                 1.3805                 5.4053
 IR Inten    --     11.4033                 3.8724                 2.4381

                     16                     17                     18
                     A1                     B1                     A1
 Frequencies --   2944.7406              3122.6804              3122.7266
 Red. masses --      1.0702                 1.0883                 1.0932
 Frc consts  --      5.4676                 6.2528                 6.2810
 IR Inten    --      6.4939                 4.2000                 0.0872

 - Thermochemistry -
 -------------------
 Temperature   298.150 Kelvin.  Pressure   1.00000 Atm.
 Atom     1 has atomic number  6 and mass  12.00000

 Molecular mass:    52.03130 amu.
 Principal axes and moments of inertia in atomic units:
                           1         2         3
     Eigenvalues --    82.81291 174.79664 219.73560
           X            1.00000   0.00000   0.00000
           Y            0.00000   1.00000   0.00000
           Z            0.00000  -0.00000   1.00000
 This molecule is an asymmetric top.
 Rotational symmetry number  2.
 Rotational temperatures (Kelvin)      1.04590     0.49551     0.39417
 Rotational constants (GHZ):          21.79299    10.32480     8.21324
 Zero-point vibrational energy     155383.8 (Joules/Mol)
                                   37.13761 (Kcal/Mol)
 Warning -- explicit consideration of   1 degrees of freedom as
           vibrations may cause significant error
 Vibrational temperatures:    523.95   906.10  1105.59  1182.53  1220.37
          (Kelvin)           1282.66  1502.83  1524.04  1583.60  1599.75
                             1634.69  1748.53  2045.33  2074.86  4219.30
                             4236.82  4492.83  4492.90

 Zero-point correction=                           0.059183 (Hartree/Particle)
 Thermal correction to Energy=                    0.062946
 Thermal correction to Enthalpy=                  0.063891
 Thermal correction to Gibbs Free Energy=         0.033530
 Sum of electronic and zero-point Energies=           -154.573579
 Sum of electronic and thermal Energies=              -154.569816
 Sum of electronic and thermal Enthalpies=            -154.568871
 Sum of electronic and thermal Free Energies=         -154.599232

                     E (Thermal)             CV                S
                      KCal/Mol        Cal/Mol-Kelvin    Cal/Mol-Kelvin
 Total                   39.499             12.716             63.900
 Electronic               0.000              0.000              2.183
 Translational            0.889              2.981             37.771
 Rotational               0.889              2.981             21.302
 Vibrational             37.722              6.755              2.644
 Vibration     1          0.738              1.546              1.104

 Optimization completed.
    -- Stationary point found.
 Normal termination of Gaussian 09 at Thu Jan 31 06:17:35 2019.
