 Gaussian 09, Revision E.01,
 Gaussian 09:  EM64L-G09RevE.01 30-Nov-2015

 ---------------------------------------------
 #p b3lyp/6-311++G(3df,2p) freq symmetry=Loose
 ---------------------------------------------

 ---------
 b3lyp opt
 ---------
 Symbolic Z-matrix:
 Charge =  3 Multiplicity = 4

                         Standard orientation:
 ---------------------------------------------------------------------
 Center     Atomic      Atomic             Coordinates (Angstroms)
 Number     Number       Type             X           Y           Z
 ---------------------------------------------------------------------
      1          6           0        0.000000    0.000000    0.670305
      2          1           0        0.000000   -0.000000    1.821768
      3          6           0       -0.000000    1.199312   -0.165070
      4          1           0       -0.000000    2.012083   -0.957448
      5          6           0       -1.038635   -0.599656   -0.165070
      6          1           0       -1.742515   -1.006041   -0.957448
      7          6           0        1.038635   -0.599656   -0.165070
      8          1           0        1.742515   -1.006041   -0.957448
 ---------------------------------------------------------------------

 SCF Done:  E(UB3LYP) =  -152.795470757     A.U. after   13 cycles

 The electronic state is 4-A1.
 Alpha  occ. eigenvalues --  -11.11237 -11.11234 -11.11234 -11.05465  -1.72058
 Alpha  occ. eigenvalues --   -1.44251  -1.44251  -1.34596  -1.26096  -1.24688
 Alpha  occ. eigenvalues --   -1.24688  -1.05697  -1.05697  -1.05405
 Alpha virt. eigenvalues --   -0.86055  -0.86055  -0.85854  -0.66290  -0.64097
 Alpha virt. eigenvalues --   -0.64097  -0.52694  -0.50235  -0.46916  -0.46916
 Alpha virt. eigenvalues --   -0.44447  -0.44447  -0.41847  -0.38312  -0.38312

  Beta  occ. eigenvalues --  -11.09436 -11.09436 -11.09436 -11.05678  -1.69212
  Beta  occ. eigenvalues --   -1.38637  -1.38637  -1.31626  -1.23365  -1.23143
  Beta  occ. eigenvalues --   -1.23143
  Beta virt. eigenvalues --   -0.91273  -0.91273  -0.91185  -0.78454  -0.78454
  Beta virt. eigenvalues --   -0.76376  -0.64016  -0.61793  -0.61793  -0.51319
  Beta virt. eigenvalues --   -0.49618  -0.46006  -0.46006  -0.43516  -0.43516

 Mulliken charges and spin densities:
               1          2
     1  C    0.369896  -0.139100
     2  H    0.429968   0.113268
     3  C    0.265165   1.022059
     4  H    0.468213  -0.013448
     5  C    0.265165   1.022059
     6  H    0.468213  -0.013448
     7  C    0.265165   1.022059
     8  H    0.468213  -0.013448
 Sum of Mulliken charges =   3.00000   3.00000

 Dipole moment (field-independent basis, Debye):
    X=             -0.0000    Y=             -0.0000    Z=             -1.9220  Tot=              1.9220
 Quadrupole moment (field-independent basis, Debye-Ang):
   XX=             -0.8931   YY=             -0.8931   ZZ=             -6.9927
   XY=             -0.0000   XZ=              0.0000   YZ=              0.0000

  Exact polarizability:  41.016   0.000  41.016   0.000  -0.001  26.224
 Approx polarizability:  84.218  -0.000  84.218   0.000   0.000  38.256

                      1                      2                      3
                     A1                      E                      E
 Frequencies --    224.7728               269.5052               269.5489
 Red. masses --      8.7416                 6.7469                 6.7485
 Frc consts  --      0.2602                 0.2887                 0.2889
 IR Inten    --     11.7966                 1.5371                 1.5358

                      4                      5                      6
                      E                      E                     A1
 Frequencies --    546.5490               546.5700               554.6799
 Red. masses --      1.1894                 1.1892                 1.0409
 Frc consts  --      0.2093                 0.2093                 0.1887
 IR Inten    --      0.6079                 0.6036                68.3627

                      7                      8                      9
                      E                      E                     A2
 Frequencies --    611.9188               611.9313               654.3209
 Red. masses --      1.2982                 1.2982                 1.2218
 Frc consts  --      0.2864                 0.2864                 0.3082
 IR Inten    --     75.3345                75.3298                 0.0000

                     10                     11                     12
                      E                      E                      E
 Frequencies --    920.7675               920.7722              1010.1339
 Red. masses --      3.8029                 3.8031                 1.1233
 Frc consts  --      1.8996                 1.8997                 0.6753
 IR Inten    --     44.7253                44.7298                23.0386

                     13                     14                     15
                      E                     A1                     A1
 Frequencies --   1010.1351              1161.1261              2481.9572
 Red. masses --      1.1233                 5.6218                 1.0880
 Frc consts  --      0.6753                 4.4657                 3.9489
 IR Inten    --     23.0444                 2.7208               637.3436

                     16                     17                     18
                      E                      E                     A1
 Frequencies --   2713.8545              2713.8550              2761.0576
 Red. masses --      1.1089                 1.1089                 1.1100
 Frc consts  --      4.8121                 4.8121                 4.9858
 IR Inten    --    892.6936               892.6404               505.7084

 - Thermochemistry -
 -------------------
 Temperature   298.150 Kelvin.  Pressure   1.00000 Atm.
 Atom     1 has atomic number  6 and mass  12.00000

 Molecular mass:    52.03130 amu.
 Principal axes and moments of inertia in atomic units:
                           1         2         3
     Eigenvalues --   158.83645 158.83645 228.62337
           X           -0.22673   0.97396   0.00000
           Y            0.97396   0.22673   0.00000
           Z           -0.00000  -0.00000   1.00000
 This molecule is an oblate symmetric top.
 Rotational symmetry number  3.
 Rotational temperatures (Kelvin)      0.54530     0.54530     0.37885
 Rotational constants (GHZ):          11.36226    11.36226     7.89395
 Zero-point vibrational energy     119527.6 (Joules/Mol)
                                   28.56778 (Kcal/Mol)
 Warning -- explicit consideration of   8 degrees of freedom as
           vibrations may cause significant error
 Vibrational temperatures:    323.40   387.76   387.82   786.36   786.39
          (Kelvin)            798.06   880.41   880.43   941.42  1324.78
                             1324.78  1453.36  1453.36  1670.60  3570.98
                             3904.63  3904.63  3972.54

 Zero-point correction=                           0.045526 (Hartree/Particle)
 Thermal correction to Energy=                    0.051001
 Thermal correction to Enthalpy=                  0.051945
 Thermal correction to Gibbs Free Energy=         0.018648
 Sum of electronic and zero-point Energies=           -152.749945
 Sum of electronic and thermal Energies=              -152.744470
 Sum of electronic and thermal Enthalpies=            -152.743526
 Sum of electronic and thermal Free Energies=         -152.776823

                     E (Thermal)             CV                S
                      KCal/Mol        Cal/Mol-Kelvin    Cal/Mol-Kelvin
 Total                   32.003             19.492             70.079
 Electronic               0.000              0.000              2.755
 Translational            0.889              2.981             37.771
 Rotational               0.889              2.981             21.088
 Vibrational             30.226             13.531              8.466
 Vibration     1          0.649              1.803              1.920
 Vibration     2          0.674              1.729              1.599
 Vibration     3          0.674              1.729              1.599
 Vibration     4          0.902              1.147              0.551
 Vibration     5          0.902              1.147              0.551
 Vibration     6          0.910              1.129              0.535
 Vibration     7          0.971              1.007              0.430
 Vibration     8          0.971              1.007              0.430

 Optimization completed.
    -- Stationary point found.
 Normal termination of Gaussian 09 at Tue Jul 19 22:21:35 2016.
