 Gaussian 09, Revision E.01,
 Gaussian 09:  EM64L-G09RevE.01 30-Nov-2015

 ---------------------------------------------
 #p b3lyp/6-311++G(3df,2p) freq symmetry=Loose
 ---------------------------------------------

 ---------
 b3lyp opt
 ---------
 Symbolic Z-matrix:
 Charge =  3 Multiplicity = 4

                         Standard orientation:
 ---------------------------------------------------------------------
 Center     Atomic      Atomic             Coordinates (Angstroms)
 Number     Number       Type             X           Y           Z
 ---------------------------------------------------------------------
      1          6           0        1.839945   -0.690505   -0.001648
      2          1           0        1.193675    1.142242   -0.882233
      3          6           0        0.911331    0.450429    0.001167
      4          6           0       -0.509139    0.111480   -0.000125
      5          6           0       -1.823220   -0.162332   -0.000140
      6          1           0       -2.614345    0.675421   -0.007327
      7          1           0       -2.286061   -1.210909    0.006597
      8          1           0        1.193228    1.138813    0.887441
 ---------------------------------------------------------------------

 SCF Done:  E(UB3LYP) =  -152.835398594     A.U. after   21 cycles

 The electronic state is 4-A.
 Alpha  occ. eigenvalues --  -11.11015 -11.10741 -11.01276 -10.98959  -1.61000
 Alpha  occ. eigenvalues --   -1.53828  -1.37795  -1.26541  -1.22425  -1.18672
 Alpha  occ. eigenvalues --   -1.17162  -1.11875  -1.07376  -0.99509
 Alpha virt. eigenvalues --   -0.88228  -0.86060  -0.78119  -0.60118  -0.52777
 Alpha virt. eigenvalues --   -0.50942  -0.50725  -0.49163  -0.46288  -0.45093
 Alpha virt. eigenvalues --   -0.43360  -0.42108  -0.41430  -0.38402  -0.38021

  Beta  occ. eigenvalues --  -11.09877 -11.06918 -11.00649 -10.98664  -1.57687
  Beta  occ. eigenvalues --   -1.50388  -1.32730  -1.23949  -1.20850  -1.15746
  Beta  occ. eigenvalues --   -1.15652
  Beta virt. eigenvalues --   -0.94482  -0.90988  -0.85132  -0.80097  -0.77128
  Beta virt. eigenvalues --   -0.71912  -0.57982  -0.51804  -0.49676  -0.49494
  Beta virt. eigenvalues --   -0.47967  -0.45475  -0.43407  -0.42249  -0.40775

 Mulliken charges and spin densities:
               1          2
     1  C    0.594937   1.813267
     2  H    0.367820   0.042544
     3  C   -0.150368   0.276572
     4  C    0.933956   0.561332
     5  C    0.084287   0.280856
     6  H    0.397631  -0.012574
     7  H    0.404159  -0.005602
     8  H    0.367578   0.043606
 Sum of Mulliken charges =   3.00000   3.00000

 Dipole moment (field-independent basis, Debye):
    X=             -1.3124    Y=              0.0266    Z=             -0.0010  Tot=              1.3127
 Quadrupole moment (field-independent basis, Debye-Ang):
   XX=             27.6510   YY=             -7.9704   ZZ=            -14.9497
   XY=              0.6203   XZ=              0.0000   YZ=             -0.0178

  Exact polarizability:  63.470   0.010  29.266   0.004  -0.009  21.848
 Approx polarizability: 100.429  -3.246  47.858   0.005  -0.016  32.157

                      1                      2                      3
                      A                      A                      A
 Frequencies --     41.4523               169.6113               300.2433
 Red. masses --      1.1083                 4.3593                 2.6754
 Frc consts  --      0.0011                 0.0739                 0.1421
 IR Inten    --      0.2364                17.6597                31.9836

                      4                      5                      6
                      A                      A                      A
 Frequencies --    417.9041               520.3421               672.0879
 Red. masses --      1.7497                 1.6191                 3.1171
 Frc consts  --      0.1800                 0.2583                 0.8296
 IR Inten    --     27.5490                37.7729                19.0603

                      7                      8                      9
                      A                      A                      A
 Frequencies --    821.1162               867.3289               877.0966
 Red. masses --      3.6811                 4.2300                 1.3308
 Frc consts  --      1.4623                 1.8748                 0.6032
 IR Inten    --     27.5745                75.3204                51.9197

                     10                     11                     12
                      A                      A                      A
 Frequencies --   1002.4346              1033.6830              1104.9227
 Red. masses --      1.1658                 1.0895                 1.1046
 Frc consts  --      0.6902                 0.6859                 0.7945
 IR Inten    --      4.4074                83.3239               341.5109

                     13                     14                     15
                      A                      A                      A
 Frequencies --   1195.7406              1556.1222              2424.0093
 Red. masses --      1.4262                 8.9849                 1.0799
 Frc consts  --      1.2015                12.8189                 3.7387
 IR Inten    --     79.5793                60.6647               447.1752

                     16                     17                     18
                      A                      A                      A
 Frequencies --   2461.0556              2527.2463              2569.9713
 Red. masses --      1.0550                 1.0725                 1.0791
 Frc consts  --      3.7647                 4.0359                 4.1990
 IR Inten    --   1085.7712               833.0455               629.1333

 - Thermochemistry -
 -------------------
 Temperature   298.150 Kelvin.  Pressure   1.00000 Atm.
 Atom     1 has atomic number  6 and mass  12.00000

 Molecular mass:    52.03130 amu.
 Principal axes and moments of inertia in atomic units:
                           1         2         3
     Eigenvalues --    52.01276 393.57739 434.31789
           X            0.99929   0.03780   0.00006
           Y           -0.03780   0.99929  -0.00083
           Z           -0.00009   0.00083   1.00000
 This molecule is an asymmetric top.
 Rotational symmetry number  1.
 Rotational temperatures (Kelvin)      1.66524     0.22007     0.19942
 Rotational constants (GHZ):          34.69805     4.58548     4.15535
 Zero-point vibrational energy     122990.3 (Joules/Mol)
                                   29.39538 (Kcal/Mol)
 Warning -- explicit consideration of   5 degrees of freedom as
           vibrations may cause significant error
 Vibrational temperatures:     59.64   244.03   431.98   601.27   748.66
          (Kelvin)            966.98  1181.40  1247.89  1261.94  1442.28
                             1487.24  1589.74  1720.40  2238.91  3487.60
                             3540.91  3636.14  3697.61

 Zero-point correction=                           0.046845 (Hartree/Particle)
 Thermal correction to Energy=                    0.052493
 Thermal correction to Enthalpy=                  0.053437
 Thermal correction to Gibbs Free Energy=         0.017370
 Sum of electronic and zero-point Energies=           -152.788554
 Sum of electronic and thermal Energies=              -152.782906
 Sum of electronic and thermal Enthalpies=            -152.781962
 Sum of electronic and thermal Free Energies=         -152.818029

                     E (Thermal)             CV                S
                      KCal/Mol        Cal/Mol-Kelvin    Cal/Mol-Kelvin
 Total                   32.940             17.978             75.910
 Electronic               0.000              0.000              2.755
 Translational            0.889              2.981             37.771
 Rotational               0.889              2.981             23.701
 Vibrational             31.162             12.017             11.683
 Vibration     1          0.594              1.981              5.188
 Vibration     2          0.625              1.880              2.440
 Vibration     3          0.693              1.673              1.416
 Vibration     4          0.781              1.431              0.899
 Vibration     5          0.875              1.205              0.609

 Normal termination of Gaussian 09 at Wed Jun 22 00:58:31 2016.
