 Gaussian 09, Revision E.01,
 Gaussian 09:  EM64L-G09RevE.01 30-Nov-2015

 ---------------------------------------------
 #p b3lyp/6-311++G(3df,2p) freq symmetry=Loose
 ---------------------------------------------

 ---------
 b3lyp opt
 ---------
 Symbolic Z-matrix:
 Charge =  0 Multiplicity = 1

                         Standard orientation:
 ---------------------------------------------------------------------
 Center     Atomic      Atomic             Coordinates (Angstroms)
 Number     Number       Type             X           Y           Z
 ---------------------------------------------------------------------
      1          6           0        1.860779   -0.000475   -0.005006
      2          1           0        2.317068    0.900741   -0.420529
      3          1           0        2.266829   -0.884065   -0.503965
      4          1           0        2.173360   -0.062220    1.043898
      5          6           0        0.421160    0.031137   -0.016479
      6          6           0       -0.814708    0.015638   -0.003743
      7          6           0       -2.140380   -0.166132    0.004088
      8          1           0       -2.718360    0.764533    0.007444
 ---------------------------------------------------------------------

 SCF Done:  E(RB3LYP) =  -154.703556750     A.U. after   12 cycles

 The electronic state is 1-A.
 Alpha  occ. eigenvalues --  -10.21849 -10.21688 -10.20331 -10.19016  -0.82127
 Alpha  occ. eigenvalues --   -0.76366  -0.67455  -0.50314  -0.46366  -0.46032
 Alpha  occ. eigenvalues --   -0.45303  -0.32896  -0.32508  -0.20982
 Alpha virt. eigenvalues --   -0.12421  -0.01743   0.01308   0.02201   0.02471
 Alpha virt. eigenvalues --    0.03863   0.04863   0.05882   0.08007   0.08160
 Alpha virt. eigenvalues --    0.08559   0.09415   0.10547   0.10846   0.11467

 Mulliken charges:
               1
     1  C   -0.444757
     2  H    0.160991
     3  H    0.159987
     4  H    0.164651
     5  C   -0.033295
     6  C    0.482912
     7  C   -0.680485
     8  H    0.189997
 Sum of Mulliken charges =  -0.00000

 Dipole moment (field-independent basis, Debye):
    X=              3.3381    Y=              1.3726    Z=              0.1236  Tot=              3.6114
 Quadrupole moment (field-independent basis, Debye-Ang):
   XX=            -24.2408   YY=            -26.4793   ZZ=            -23.9812
   XY=             -4.3650   XZ=              0.2970   YZ=              0.0064

  Exact polarizability:  94.131   2.680  38.573  -0.053   0.220  35.800
 Approx polarizability: 162.455   6.580  52.624   0.019   0.226  51.268

                      1                      2                      3
                      A                      A                      A
 Frequencies --     82.3926               132.1470               189.9061
 Red. masses --      3.2485                 1.3484                 2.5948
 Frc consts  --      0.0130                 0.0139                 0.0551
 IR Inten    --     13.1682                63.7036                 6.4558

                      4                      5                      6
                      A                      A                      A
 Frequencies --    409.0758               465.8555               785.1688
 Red. masses --      4.1074                 3.7290                 4.2945
 Frc consts  --      0.4050                 0.4768                 1.5599
 IR Inten    --     15.7940                 0.8708                 1.9696

                      7                      8                      9
                      A                      A                      A
 Frequencies --    914.8659              1013.0448              1060.1839
 Red. masses --      1.4192                 1.5977                 1.3083
 Frc consts  --      0.6998                 0.9661                 0.8664
 IR Inten    --    102.4412                16.0810                 0.2502

                     10                     11                     12
                      A                      A                      A
 Frequencies --   1332.5462              1394.3806              1437.5815
 Red. masses --      3.4573                 1.3762                 1.0352
 Frc consts  --      3.6170                 1.5765                 1.2604
 IR Inten    --      1.3435                 4.5047                11.0786

                     13                     14                     15
                      A                      A                      A
 Frequencies --   1489.7693              2073.2648              2996.3722
 Red. masses --      1.0808                10.3481                 1.0338
 Frc consts  --      1.4133                26.2072                 5.4685
 IR Inten    --     19.8044                46.7400                10.8794

                     16                     17                     18
                      A                      A                      A
 Frequencies --   3046.4371              3048.2807              3058.0514
 Red. masses --      1.0949                 1.0872                 1.1042
 Frc consts  --      5.9869                 5.9521                 6.0838
 IR Inten    --     23.3415                34.1947                 9.2175

 - Thermochemistry -
 -------------------
 Temperature   298.150 Kelvin.  Pressure   1.00000 Atm.
 Atom     1 has atomic number  6 and mass  12.00000

 Molecular mass:    52.03130 amu.
 Principal axes and moments of inertia in atomic units:
                           1         2         3
     Eigenvalues --    14.41580 466.65399 470.10004
           X            0.99987  -0.01627   0.00099
           Y            0.01626   0.99984   0.00714
           Z           -0.00110  -0.00712   0.99997
 This molecule is an asymmetric top.
 Rotational symmetry number  1.
 Rotational temperatures (Kelvin)      6.00825     0.18561     0.18425
 Rotational constants (GHZ):         125.19186     3.86741     3.83906
 Zero-point vibrational energy     149110.5 (Joules/Mol)
                                   35.63826 (Kcal/Mol)
 Warning -- explicit consideration of   5 degrees of freedom as
           vibrations may cause significant error
 Vibrational temperatures:    118.54   190.13   273.23   588.57   670.26
          (Kelvin)           1129.68  1316.29  1457.54  1525.37  1917.23
                             2006.20  2068.36  2143.44  2982.96  4311.11
                             4383.14  4385.79  4399.85

 Zero-point correction=                           0.056793 (Hartree/Particle)
 Thermal correction to Energy=                    0.062425
 Thermal correction to Enthalpy=                  0.063369
 Thermal correction to Gibbs Free Energy=         0.029309
 Sum of electronic and zero-point Energies=           -154.646764
 Sum of electronic and thermal Energies=              -154.641132
 Sum of electronic and thermal Enthalpies=            -154.640188
 Sum of electronic and thermal Free Energies=         -154.674247

                     E (Thermal)             CV                S
                      KCal/Mol        Cal/Mol-Kelvin    Cal/Mol-Kelvin
 Total                   39.172             16.730             71.684
 Electronic               0.000              0.000              0.000
 Translational            0.889              2.981             37.771
 Rotational               0.889              2.981             22.674
 Vibrational             37.395             10.768             11.240
 Vibration     1          0.600              1.961              3.833
 Vibration     2          0.612              1.921              2.915
 Vibration     3          0.633              1.854              2.229
 Vibration     4          0.773              1.451              0.930
 Vibration     5          0.823              1.326              0.749

 Optimization completed.
    -- Stationary point found.
 Normal termination of Gaussian 09 at Sun Jun 19 15:27:13 2016.
