 Gaussian 09, Revision E.01,
 Gaussian 09:  EM64L-G09RevE.01 30-Nov-2015

 ---------------------------------------------
 #p b3lyp/6-311++G(3df,2p) freq symmetry=Loose
 ---------------------------------------------

 ---------
 b3lyp opt
 ---------
 Symbolic Z-matrix:
 Charge =  3 Multiplicity = 2

                         Standard orientation:
 ---------------------------------------------------------------------
 Center     Atomic      Atomic             Coordinates (Angstroms)
 Number     Number       Type             X           Y           Z
 ---------------------------------------------------------------------
      1          6           0        0.232216    0.003200    0.230250
      2          1           0        0.436271    0.077406    1.378799
      3          6           0       -1.272667   -0.201085   -0.144261
      4          1           0       -1.937409   -0.554016    0.802373
      5          1           0       -2.152656    0.532027    0.289661
      6          1           0       -1.550546   -0.481605   -1.174499
      7          6           0        1.202060   -1.137572   -0.130271
      8          6           0        0.705781    1.406489   -0.171773
 ---------------------------------------------------------------------

 SCF Done:  E(UB3LYP) =  -152.700426738     A.U. after   32 cycles

 The electronic state is 2-A.
 Alpha  occ. eigenvalues --  -11.15542 -11.15334 -11.00893 -11.00141  -1.61012
 Alpha  occ. eigenvalues --   -1.46911  -1.40950  -1.25627  -1.24397  -1.15194
 Alpha  occ. eigenvalues --   -1.09738  -1.09245  -1.05307
 Alpha virt. eigenvalues --   -0.90057  -0.88740  -0.86561  -0.86303  -0.61847
 Alpha virt. eigenvalues --   -0.61423  -0.56363  -0.55585  -0.51137  -0.50676
 Alpha virt. eigenvalues --   -0.46991  -0.45285  -0.43627  -0.42785  -0.41297

  Beta  occ. eigenvalues --  -11.15350 -11.15298 -11.00930 -10.99075  -1.60319
  Beta  occ. eigenvalues --   -1.43377  -1.40412  -1.24849  -1.23297  -1.14334
  Beta  occ. eigenvalues --   -1.09063  -1.07174
  Beta virt. eigenvalues --   -0.92375  -0.89783  -0.88688  -0.86264  -0.85398
  Beta virt. eigenvalues --   -0.60934  -0.58138  -0.55057  -0.54604  -0.50619
  Beta virt. eigenvalues --   -0.49558  -0.46598  -0.44987  -0.43286  -0.42014

 Mulliken charges and spin densities:
               1          2
     1  C    0.227559  -0.032015
     2  H    0.327391   0.000513
     3  C    0.050529   0.671358
     4  H    0.337269   0.109883
     5  H    0.350384   0.141740
     6  H    0.357598  -0.013624
     7  C    0.680136   0.099717
     8  C    0.669134   0.022427
 Sum of Mulliken charges =   3.00000   1.00000

 Dipole moment (field-independent basis, Debye):
    X=             -2.2150    Y=              0.1425    Z=              1.4091  Tot=              2.6291
 Quadrupole moment (field-independent basis, Debye-Ang):
   XX=              8.5886   YY=             -6.4285   ZZ=            -11.3347
   XY=             -0.0203   XZ=             -1.3997   YZ=              0.1684

  Exact polarizability:  47.139  -0.776  43.687  -2.071  -0.313  27.965
 Approx polarizability:  74.748  -1.984  92.512  -4.788  -2.108  45.260

                      1                      2                      3
                      A                      A                      A
 Frequencies --    176.3268               276.0900               322.6027
 Red. masses --      1.1131                 3.9704                 6.8018
 Frc consts  --      0.0204                 0.1783                 0.4171
 IR Inten    --     22.7779                 0.2761                 5.5653

                      4                      5                      6
                      A                      A                      A
 Frequencies --    422.4212               527.8084               662.8738
 Red. masses --      5.2637                 1.0581                 2.2231
 Frc consts  --      0.5534                 0.1737                 0.5755
 IR Inten    --      3.1386                43.2907               219.9019

                      7                      8                      9
                      A                      A                      A
 Frequencies --    707.0712               784.7015               826.4416
 Red. masses --      4.0957                 1.6268                 1.7924
 Frc consts  --      1.2064                 0.5902                 0.7213
 IR Inten    --     30.8274                39.7434                91.2775

                     10                     11                     12
                      A                      A                      A
 Frequencies --    857.7587               973.1504               989.8506
 Red. masses --      1.7177                 1.4432                 1.2962
 Frc consts  --      0.7446                 0.8052                 0.7482
 IR Inten    --     44.2201               219.1297               192.2749

                     13                     14                     15
                      A                      A                      A
 Frequencies --   1090.3955              1379.2829              1853.6400
 Red. masses --      1.3726                 1.0693                 1.0352
 Frc consts  --      0.9615                 1.1986                 2.0956
 IR Inten    --    235.4626                23.3040               284.8648

                     16                     17                     18
                      A                      A                      A
 Frequencies --   2309.7599              2390.9948              2996.0876
 Red. masses --      1.1039                 1.0750                 1.0961
 Frc consts  --      3.4699                 3.6209                 5.7970
 IR Inten    --    480.6163               454.8254               219.1826

 - Thermochemistry -
 -------------------
 Temperature   298.150 Kelvin.  Pressure   1.00000 Atm.
 Atom     1 has atomic number  6 and mass  12.00000

 Molecular mass:    52.03130 amu.
 Principal axes and moments of inertia in atomic units:
                           1         2         3
     Eigenvalues --   164.24600 212.28012 337.62102
           X            0.99846   0.05538   0.00253
           Y           -0.05540   0.99841   0.01054
           Z           -0.00195  -0.01067   0.99994
 This molecule is an asymmetric top.
 Rotational symmetry number  1.
 Rotational temperatures (Kelvin)      0.52734     0.40802     0.25654
 Rotational constants (GHZ):          10.98804     8.50170     5.34546
 Zero-point vibrational energy     116918.6 (Joules/Mol)
                                   27.94421 (Kcal/Mol)
 Warning -- explicit consideration of   5 degrees of freedom as
           vibrations may cause significant error
 Vibrational temperatures:    253.69   397.23   464.15   607.77   759.40
          (Kelvin)            953.73  1017.32  1129.01  1189.06  1234.12
                             1400.14  1424.17  1568.83  1984.48  2666.97
                             3323.23  3440.10  4310.70

 Zero-point correction=                           0.044532 (Hartree/Particle)
 Thermal correction to Energy=                    0.049870
 Thermal correction to Enthalpy=                  0.050814
 Thermal correction to Gibbs Free Energy=         0.016919
 Sum of electronic and zero-point Energies=           -152.655895
 Sum of electronic and thermal Energies=              -152.650557
 Sum of electronic and thermal Enthalpies=            -152.649613
 Sum of electronic and thermal Free Energies=         -152.683508

                     E (Thermal)             CV                S
                      KCal/Mol        Cal/Mol-Kelvin    Cal/Mol-Kelvin
 Total                   31.294             18.578             71.338
 Electronic               0.000              0.000              1.377
 Translational            0.889              2.981             37.771
 Rotational               0.889              2.981             23.980
 Vibrational             29.516             12.617              8.210
 Vibration     1          0.628              1.872              2.367
 Vibration     2          0.678              1.718              1.558
 Vibration     3          0.708              1.630              1.297
 Vibration     4          0.785              1.421              0.884
 Vibration     5          0.883              1.188              0.592

 Optimization completed.
    -- Stationary point found.
 Normal termination of Gaussian 09 at Wed Jun 22 00:32:56 2016.
