 Gaussian 09, Revision E.01,
 Gaussian 09:  EM64L-G09RevE.01 30-Nov-2015

 ---------------------------------------------
 #p b3lyp/6-311++G(3df,2p) freq symmetry=Loose
 ---------------------------------------------

 ---------
 b3lyp opt
 ---------
 Symbolic Z-matrix:
 Charge =  1 Multiplicity = 4

                         Standard orientation:
 ---------------------------------------------------------------------
 Center     Atomic      Atomic             Coordinates (Angstroms)
 Number     Number       Type             X           Y           Z
 ---------------------------------------------------------------------
      1          6           0       -0.000000   -0.000000   -0.908660
      2          1           0        0.880971   -0.000000   -1.581439
      3          1           0       -0.880971    0.000000   -1.581439
      4          6           0        0.000000    0.000000    1.108137
      5          6           0       -0.000000   -1.074840    0.136781
      6          1           0       -0.000000   -2.151816    0.162323
      7          6           0        0.000000    1.074840    0.136781
      8          1           0        0.000000    2.151816    0.162323
 ---------------------------------------------------------------------

 SCF Done:  E(UB3LYP) =  -154.321018251     A.U. after   12 cycles

 The electronic state is 4-B2.
 Alpha  occ. eigenvalues --  -10.53058 -10.47584 -10.47579 -10.45522  -1.17449
 Alpha  occ. eigenvalues --   -0.92874  -0.92512  -0.78243  -0.72189  -0.71879
 Alpha  occ. eigenvalues --   -0.67764  -0.64578  -0.57869  -0.51857  -0.47129
 Alpha virt. eigenvalues --   -0.27797  -0.16310  -0.14147  -0.13959  -0.12957
 Alpha virt. eigenvalues --   -0.12554  -0.08449  -0.08295  -0.07032  -0.06813
 Alpha virt. eigenvalues --   -0.06631  -0.05841  -0.02919  -0.02705  -0.00911

  Beta  occ. eigenvalues --  -10.50906 -10.46308 -10.46305 -10.45397  -1.13499
  Beta  occ. eigenvalues --   -0.89234  -0.88916  -0.76452  -0.67903  -0.66514
  Beta  occ. eigenvalues --   -0.65364  -0.63507
  Beta virt. eigenvalues --   -0.44499  -0.35316  -0.32405  -0.18599  -0.15961
  Beta virt. eigenvalues --   -0.13430  -0.13221  -0.12548  -0.11533  -0.08181
  Beta virt. eigenvalues --   -0.07873  -0.06335  -0.05859  -0.05536  -0.04825

 Mulliken charges and spin densities:
               1          2
     1  C   -0.039066  -0.112618
     2  H    0.214549   0.097336
     3  H    0.214549   0.097336
     4  C    0.379721   1.266527
     5  C   -0.175030   0.848324
     6  H    0.290154  -0.022614
     7  C   -0.175030   0.848324
     8  H    0.290154  -0.022614
 Sum of Mulliken charges =   1.00000   3.00000

 Dipole moment (field-independent basis, Debye):
    X=             -0.0000    Y=             -0.0000    Z=             -1.0746  Tot=              1.0746
 Quadrupole moment (field-independent basis, Debye-Ang):
   XX=            -20.8367   YY=            -13.2443   ZZ=            -17.1730
   XY=              0.0000   XZ=              0.0000   YZ=             -0.0000

  Exact polarizability:  26.589  -0.000  44.594  -0.000  -0.000  42.352
 Approx polarizability:  39.551   0.000  68.755   0.000  -0.000  70.197

                      1                      2                      3
                     B1                     A2                     B1
 Frequencies --    295.9700               363.0386               562.4570
 Red. masses --      1.6130                 1.2017                 1.0803
 Frc consts  --      0.0832                 0.0933                 0.2014
 IR Inten    --      6.3073                 0.0000                43.5493

                      4                      5                      6
                     B1                     A1                     A1
 Frequencies --    773.5680               877.6795               892.1075
 Red. masses --      3.0621                 4.8009                 1.9550
 Frc consts  --      1.0796                 2.1789                 0.9167
 IR Inten    --      5.4336                 1.2971                32.0808

                      7                      8                      9
                     B2                     A2                     B2
 Frequencies --    909.2801               918.3169              1052.8295
 Red. masses --      1.7013                 1.1163                 3.4285
 Frc consts  --      0.8288                 0.5546                 2.2391
 IR Inten    --     17.0510                 0.0000               105.9992

                     10                     11                     12
                     B2                     A1                     A1
 Frequencies --   1102.7219              1150.2130              1224.6867
 Red. masses --      1.4603                 4.0777                 1.0971
 Frc consts  --      1.0462                 3.1785                 0.9695
 IR Inten    --      0.0158                16.2084                56.0494

                     13                     14                     15
                     B2                     A1                     A1
 Frequencies --   1243.7010              1281.2587              2881.8770
 Red. masses --      2.5357                 2.3785                 1.0572
 Frc consts  --      2.3109                 2.3005                 5.1730
 IR Inten    --      5.2075                18.6681               137.3540

                     16                     17                     18
                     B1                     B2                     A1
 Frequencies --   2891.8066              3260.8977              3267.7532
 Red. masses --      1.0909                 1.0934                 1.1042
 Frc consts  --      5.3752                 6.8505                 6.9469
 IR Inten    --     45.9414               134.8566                 0.0665

 - Thermochemistry -
 -------------------
 Temperature   298.150 Kelvin.  Pressure   1.00000 Atm.
 Atom     1 has atomic number  6 and mass  12.00000

 Molecular mass:    52.03130 amu.
 Principal axes and moments of inertia in atomic units:
                           1         2         3
     Eigenvalues --   112.84092 137.92962 239.59763
           X            0.00000   0.00000   1.00000
           Y            1.00000   0.00000  -0.00000
           Z           -0.00000   1.00000  -0.00000
 This molecule is an asymmetric top.
 Rotational symmetry number  2.
 Rotational temperatures (Kelvin)      0.76757     0.62796     0.36150
 Rotational constants (GHZ):          15.99368    13.08451     7.53238
 Zero-point vibrational energy     149235.1 (Joules/Mol)
                                   35.66805 (Kcal/Mol)
 Warning -- explicit consideration of   3 degrees of freedom as
           vibrations may cause significant error
 Vibrational temperatures:    425.83   522.33   809.25  1112.99  1262.78
          (Kelvin)           1283.54  1308.25  1321.25  1514.78  1586.57
                             1654.90  1762.05  1789.41  1843.44  4146.37
                             4160.66  4691.70  4701.56

 Zero-point correction=                           0.056841 (Hartree/Particle)
 Thermal correction to Energy=                    0.061047
 Thermal correction to Enthalpy=                  0.061991
 Thermal correction to Gibbs Free Energy=         0.030569
 Sum of electronic and zero-point Energies=           -154.264178
 Sum of electronic and thermal Energies=              -154.259971
 Sum of electronic and thermal Enthalpies=            -154.259027
 Sum of electronic and thermal Free Energies=         -154.290449

                     E (Thermal)             CV                S
                      KCal/Mol        Cal/Mol-Kelvin    Cal/Mol-Kelvin
 Total                   38.308             14.370             66.134
 Electronic               0.000              0.000              2.755
 Translational            0.889              2.981             37.771
 Rotational               0.889              2.981             21.460
 Vibrational             36.530              8.408              4.148
 Vibration     1          0.690              1.681              1.440
 Vibration     2          0.737              1.548              1.109
 Vibration     3          0.918              1.113              0.519

 Optimization completed.
    -- Stationary point found.
 Normal termination of Gaussian 09 at Wed Jul 20 00:09:17 2016.
