 Gaussian 09, Revision E.01,
 Gaussian 09:  EM64L-G09RevE.01 30-Nov-2015

 ---------------------------------------------
 #p b3lyp/6-311++G(3df,2p) freq symmetry=Loose
 ---------------------------------------------

 ---------
 b3lyp opt
 ---------
 Symbolic Z-matrix:
 Charge =  0 Multiplicity = 1

                         Standard orientation:
 ---------------------------------------------------------------------
 Center     Atomic      Atomic             Coordinates (Angstroms)
 Number     Number       Type             X           Y           Z
 ---------------------------------------------------------------------
      1          6           0       -0.000000   -0.000000    0.631419
      2          6           0        0.000000    0.000000   -0.631419
      3          6           0        0.000000    0.000000   -1.943072
      4          1           0        0.000000    0.924293   -2.508493
      5          1           0       -0.000000   -0.924293   -2.508493
      6          6           0       -0.000000   -0.000000    1.943072
      7          1           0       -0.000000   -0.924293    2.508493
      8          1           0       -0.000000    0.924293    2.508493
 ---------------------------------------------------------------------

 SCF Done:  E(RB3LYP) =  -154.789093003     A.U. after   10 cycles

 The electronic state is 1-AG.
 Alpha  occ. eigenvalues --  -10.19483 -10.19403 -10.19347 -10.19286  -0.81210
 Alpha  occ. eigenvalues --   -0.75589  -0.66583  -0.51002  -0.47883  -0.46342
 Alpha  occ. eigenvalues --   -0.44686  -0.35763  -0.26793  -0.25364
 Alpha virt. eigenvalues --   -0.06878  -0.00419   0.00824   0.00897   0.02384
 Alpha virt. eigenvalues --    0.04951   0.04975   0.06221   0.06548   0.08697
 Alpha virt. eigenvalues --    0.10202   0.11458   0.12384   0.13666   0.14476

 Mulliken charges:
               1
     1  C    0.203915
     2  C    0.203915
     3  C   -0.561144
     4  H    0.178615
     5  H    0.178615
     6  C   -0.561144
     7  H    0.178615
     8  H    0.178615
 Sum of Mulliken charges =   0.00000

 Dipole moment (field-independent basis, Debye):
    X=              0.0000    Y=             -0.0000    Z=              0.0000  Tot=              0.0000
 Quadrupole moment (field-independent basis, Debye-Ang):
   XX=            -26.9635   YY=            -23.3506   ZZ=            -18.4810
   XY=             -0.0000   XZ=              0.0000   YZ=             -0.0000

  Exact polarizability:  33.481   0.000  35.572  -0.000   0.000 109.241
 Approx polarizability:  45.701  -0.000  49.001  -0.000  -0.000 203.642

                      1                      2                      3
                     B2U                    B3U                    B3G
 Frequencies --    224.4480               228.9950               368.7321
 Red. masses --      2.4853                 3.9167                 3.5911
 Frc consts  --      0.0738                 0.1210                 0.2877
 IR Inten    --      7.9354                 7.4688                 0.0000

                      4                      5                      6
                     B2G                    AU                     B2G
 Frequencies --    574.9332               775.6842               893.9584
 Red. masses --      7.3743                 1.0078                 1.3222
 Frc consts  --      1.4362                 0.3573                 0.6226
 IR Inten    --      0.0000                 0.0000                 0.0000

                      7                      8                      9
                     B3U                    AG                     B3G
 Frequencies --    897.5619               904.0965              1025.7892
 Red. masses --      1.3336                 3.7769                 1.4498
 Frc consts  --      0.6330                 1.8189                 0.8989
 IR Inten    --     94.1346                 0.0000                 0.0000

                     10                     11                     12
                     B2U                    B1U                    AG
 Frequencies --   1044.6090              1413.3717              1471.5109
 Red. masses --      1.4312                 1.1236                 1.1779
 Frc consts  --      0.9202                 1.3225                 1.5028
 IR Inten    --      1.5714                 0.0058                 0.0000

                     13                     14                     15
                     B1U                    AG                     AG
 Frequencies --   1678.8225              2195.8518              3113.6081
 Red. masses --      6.1723                11.2344                 1.0544
 Frc consts  --     10.2496                31.9158                 6.0225
 IR Inten    --     26.0613                 0.0000                 0.0000

                     16                     17                     18
                     B1U                    B2U                    B3G
 Frequencies --   3116.6257              3188.4045              3188.7505
 Red. masses --      1.0577                 1.1157                 1.1153
 Frc consts  --      6.0534                 6.6824                 6.6817
 IR Inten    --      5.5158                 3.0359                 0.0000

 - Thermochemistry -
 -------------------
 Temperature   298.150 Kelvin.  Pressure   1.00000 Atm.
 Atom     1 has atomic number  6 and mass  12.00000

 Molecular mass:    52.03130 amu.
 Principal axes and moments of inertia in atomic units:
                           1         2         3
     Eigenvalues --    12.29877 448.34132 460.64010
           X           -0.00000   0.00000   1.00000
           Y           -0.00000   1.00000  -0.00000
           Z            1.00000   0.00000   0.00000
 This molecule is an asymmetric top.
 Rotational symmetry number  4.
 Rotational temperatures (Kelvin)      7.04248     0.19319     0.18803
 Rotational constants (GHZ):         146.74158     4.02537     3.91790
 Zero-point vibrational energy     157343.3 (Joules/Mol)
                                   37.60596 (Kcal/Mol)
 Warning -- explicit consideration of   4 degrees of freedom as
           vibrations may cause significant error
 Vibrational temperatures:    322.93   329.47   530.52   827.20  1116.04
          (Kelvin)           1286.21  1291.39  1300.79  1475.88  1502.96
                             2033.52  2117.17  2415.45  3159.34  4479.78
                             4484.12  4587.40  4587.89

 Zero-point correction=                           0.059929 (Hartree/Particle)
 Thermal correction to Energy=                    0.064645
 Thermal correction to Enthalpy=                  0.065589
 Thermal correction to Gibbs Free Energy=         0.035319
 Sum of electronic and zero-point Energies=           -154.729164
 Sum of electronic and thermal Energies=              -154.724448
 Sum of electronic and thermal Enthalpies=            -154.723504
 Sum of electronic and thermal Free Energies=         -154.753774

                     E (Thermal)             CV                S
                      KCal/Mol        Cal/Mol-Kelvin    Cal/Mol-Kelvin
 Total                   40.565             15.292             63.710
 Electronic               0.000              0.000              0.000
 Translational            0.889              2.981             37.771
 Rotational               0.889              2.981             19.701
 Vibrational             38.788              9.331              6.238
 Vibration     1          0.649              1.804              1.923
 Vibration     2          0.652              1.797              1.887
 Vibration     3          0.741              1.537              1.085
 Vibration     4          0.931              1.085              0.495

 Optimization completed.
    -- Stationary point found.
 Normal termination of Gaussian 09 at Tue Jul 19 18:47:10 2016.
