 Gaussian 09, Revision E.01,
 Gaussian 09:  EM64L-G09RevE.01 30-Nov-2015

 ---------------------------------------------
 #p b3lyp/6-311++G(3df,2p) freq symmetry=Loose
 ---------------------------------------------

 ---------
 b3lyp opt
 ---------
 Symbolic Z-matrix:
 Charge =  0 Multiplicity = 3

                         Standard orientation:
 ---------------------------------------------------------------------
 Center     Atomic      Atomic             Coordinates (Angstroms)
 Number     Number       Type             X           Y           Z
 ---------------------------------------------------------------------
      1          6           0       -1.770821    0.063370   -0.158134
      2          1           0       -2.220793    1.020200   -0.364671
      3          6           0       -0.606223   -0.450554    0.124010
      4          1           0       -0.491178   -1.521429    0.276648
      5          6           0        0.672530    0.358315    0.198170
      6          1           0        1.129436    0.245510    1.224184
      7          1           0        0.506460    1.436299    0.065889
      8          6           0        1.883860   -0.167894   -0.364388
 ---------------------------------------------------------------------

 SCF Done:  E(UB3LYP) =  -154.586781219     A.U. after   20 cycles

 The electronic state is 3-A.
 Alpha  occ. eigenvalues --  -10.24178 -10.21740 -10.21338 -10.20690  -0.84689
 Alpha  occ. eigenvalues --   -0.76444  -0.59949  -0.56132  -0.48888  -0.47182
 Alpha  occ. eigenvalues --   -0.42981  -0.32794  -0.29093  -0.26338  -0.21702
 Alpha virt. eigenvalues --   -0.09768  -0.02294  -0.00699   0.00639   0.01501
 Alpha virt. eigenvalues --    0.03430   0.05208   0.06848   0.07258   0.07948
 Alpha virt. eigenvalues --    0.08579   0.10355   0.11062   0.11705   0.12071

  Beta  occ. eigenvalues --  -10.22744 -10.21657 -10.20709 -10.19789  -0.83376
  Beta  occ. eigenvalues --   -0.74099  -0.57592  -0.53644  -0.47551  -0.46324
  Beta  occ. eigenvalues --   -0.41526  -0.30763  -0.27524
  Beta virt. eigenvalues --   -0.11025  -0.07784  -0.06741  -0.01348  -0.00461
  Beta virt. eigenvalues --    0.00775   0.01832   0.03516   0.05490   0.07224
  Beta virt. eigenvalues --    0.07420   0.08550   0.09394   0.10696   0.11481

 Mulliken charges and spin densities:
               1          2
     1  C   -0.453852   1.064477
     2  H    0.198901   0.022035
     3  C    0.166863  -0.168430
     4  H    0.175100   0.040692
     5  C    0.144038   0.024887
     6  H    0.157792  -0.017208
     7  H    0.164383   0.060793
     8  C   -0.553223   0.972754
 Sum of Mulliken charges =  -0.00000   2.00000

 Dipole moment (field-independent basis, Debye):
    X=             -1.6758    Y=              1.3254    Z=              1.1804  Tot=              2.4409
 Quadrupole moment (field-independent basis, Debye-Ang):
   XX=            -32.7930   YY=            -23.8507   ZZ=            -25.3150
   XY=             -0.0327   XZ=              3.2019   YZ=             -0.9166

  Exact polarizability:  71.464  -4.136  46.363   0.500  -0.206  39.941
 Approx polarizability:  98.440 -10.986  63.029   2.734  -0.946  60.625

                      1                      2                      3
                      A                      A                      A
 Frequencies --     94.4941               296.1070               371.3667
 Red. masses --      3.6639                 2.9218                 1.4928
 Frc consts  --      0.0193                 0.1509                 0.1213
 IR Inten    --     11.2910                14.4214                 9.5416

                      4                      5                      6
                      A                      A                      A
 Frequencies --    483.1955               671.2528               789.6884
 Red. masses --      2.2845                 1.6149                 1.5062
 Frc consts  --      0.3143                 0.4287                 0.5534
 IR Inten    --      3.2098                 6.5997                58.3855

                      7                      8                      9
                      A                      A                      A
 Frequencies --    847.2836               970.3281               978.6893
 Red. masses --      1.1122                 2.0362                 2.1803
 Frc consts  --      0.4704                 1.1296                 1.2305
 IR Inten    --     61.8764                 7.4075                10.5309

                     10                     11                     12
                      A                      A                      A
 Frequencies --   1122.6651              1230.7935              1292.2307
 Red. masses --      1.5173                 1.4815                 1.2351
 Frc consts  --      1.1267                 1.3223                 1.2152
 IR Inten    --     17.7224                10.4607                37.6081

                     13                     14                     15
                      A                      A                      A
 Frequencies --   1304.0302              1658.0576              2757.0752
 Red. masses --      1.4352                 6.7202                 1.0686
 Frc consts  --      1.4379                10.8851                 4.7859
 IR Inten    --      3.2993                 6.2348                37.0128

                     16                     17                     18
                      A                      A                      A
 Frequencies --   2967.0184              3102.7304              3246.1692
 Red. masses --      1.0813                 1.0856                 1.1045
 Frc consts  --      5.6085                 6.1574                 6.8574
 IR Inten    --     15.6366                 3.0445                 1.0437

 - Thermochemistry -
 -------------------
 Temperature   298.150 Kelvin.  Pressure   1.00000 Atm.
 Atom     1 has atomic number  6 and mass  12.00000

 Molecular mass:    52.03130 amu.
 Principal axes and moments of inertia in atomic units:
                           1         2         3
     Eigenvalues --    50.20074 360.73435 381.10205
           X            0.99974  -0.00455   0.02246
           Y            0.00604   0.99776  -0.06668
           Z           -0.02210   0.06680   0.99752
 This molecule is an asymmetric top.
 Rotational symmetry number  1.
 Rotational temperatures (Kelvin)      1.72535     0.24010     0.22727
 Rotational constants (GHZ):          35.95049     5.00296     4.73559
 Zero-point vibrational energy     144647.5 (Joules/Mol)
                                   34.57159 (Kcal/Mol)
 Warning -- explicit consideration of   4 degrees of freedom as
           vibrations may cause significant error
 Vibrational temperatures:    135.96   426.03   534.31   695.21   965.78
          (Kelvin)           1136.18  1219.05  1396.08  1408.11  1615.26
                             1770.84  1859.23  1876.21  2385.57  3966.81
                             4268.87  4464.13  4670.51

 Zero-point correction=                           0.055093 (Hartree/Particle)
 Thermal correction to Energy=                    0.060087
 Thermal correction to Enthalpy=                  0.061031
 Thermal correction to Gibbs Free Energy=         0.027167
 Sum of electronic and zero-point Energies=           -154.531688
 Sum of electronic and thermal Energies=              -154.526694
 Sum of electronic and thermal Enthalpies=            -154.525750
 Sum of electronic and thermal Free Energies=         -154.559614

                     E (Thermal)             CV                S
                      KCal/Mol        Cal/Mol-Kelvin    Cal/Mol-Kelvin
 Total                   37.705             16.144             71.274
 Electronic               0.000              0.000              2.183
 Translational            0.889              2.981             37.771
 Rotational               0.889              2.981             23.449
 Vibrational             35.928             10.182              7.871
 Vibration     1          0.603              1.953              3.565
 Vibration     2          0.690              1.681              1.439
 Vibration     3          0.743              1.531              1.074
 Vibration     4          0.839              1.287              0.702

 Normal termination of Gaussian 09 at Tue Jun 21 21:28:00 2016.
