 Gaussian 09, Revision E.01,
 Gaussian 09:  EM64L-G09RevE.01 30-Nov-2015

 ---------------------------------------------
 #p b3lyp/6-311++G(3df,2p) freq symmetry=Loose
 ---------------------------------------------

 ---------
 b3lyp opt
 ---------
 Symbolic Z-matrix:
 Charge =  3 Multiplicity = 2

                         Standard orientation:
 ---------------------------------------------------------------------
 Center     Atomic      Atomic             Coordinates (Angstroms)
 Number     Number       Type             X           Y           Z
 ---------------------------------------------------------------------
      1          6           0       -1.817366    0.107595   -0.000226
      2          1           0       -2.304565    1.120202   -0.000221
      3          1           0       -2.482539   -0.785504    0.566284
      4          1           0       -2.481447   -0.786815   -0.565851
      5          6           0       -0.461111   -0.008929    0.000254
      6          6           0        0.827921   -0.015849   -0.000014
      7          6           0        2.120657   -0.007660   -0.000070
      8          1           0        3.247947    0.001176    0.000117
 ---------------------------------------------------------------------

 SCF Done:  E(UB3LYP) =  -152.978492406     A.U. after   16 cycles

 The electronic state is 2-A.
 Alpha  occ. eigenvalues --  -11.07252 -11.05000 -10.99608 -10.99078  -1.58783
 Alpha  occ. eigenvalues --   -1.53704  -1.43982  -1.29592  -1.24118  -1.18649
 Alpha  occ. eigenvalues --   -1.12524  -1.07652  -1.05295
 Alpha virt. eigenvalues --   -0.87881  -0.85925  -0.66314  -0.65954  -0.60256
 Alpha virt. eigenvalues --   -0.55291  -0.54399  -0.50220  -0.48049  -0.45898
 Alpha virt. eigenvalues --   -0.43756  -0.41530  -0.41449  -0.39791  -0.37719

  Beta  occ. eigenvalues --  -11.06482 -11.05496 -10.98829 -10.98663  -1.57992
  Beta  occ. eigenvalues --   -1.51114  -1.42885  -1.28559  -1.23330  -1.18281
  Beta  occ. eigenvalues --   -1.09678  -1.07041
  Beta virt. eigenvalues --   -0.94252  -0.87658  -0.82411  -0.65597  -0.62955
  Beta virt. eigenvalues --   -0.59260  -0.54231  -0.51645  -0.50012  -0.47984
  Beta virt. eigenvalues --   -0.45547  -0.43380  -0.41251  -0.40907  -0.39799

 Mulliken charges and spin densities:
               1          2
     1  C    0.009635   0.409131
     2  H    0.386024  -0.014624
     3  H    0.347706   0.062986
     4  H    0.347540   0.062856
     5  C    0.365510  -0.073566
     6  C    0.451601   0.260830
     7  C    0.581979   0.305020
     8  H    0.510005  -0.012633
 Sum of Mulliken charges =   3.00000   1.00000

 Dipole moment (field-independent basis, Debye):
    X=             -1.8537    Y=             -1.3534    Z=              0.0008  Tot=              2.2952
 Quadrupole moment (field-independent basis, Debye-Ang):
   XX=             52.3202   YY=            -13.4709   ZZ=            -16.7198
   XY=              3.7970   XZ=             -0.0032   YZ=              0.0004

  Exact polarizability:  89.244   1.555  21.757  -0.000   0.001  19.526
 Approx polarizability: 207.663   2.190  30.595  -0.005   0.001  27.676

                      1                      2                      3
                      A                      A                      A
 Frequencies --    200.3912               202.7999               361.8413
 Red. masses --      2.7442                 2.8725                 1.2703
 Frc consts  --      0.0649                 0.0696                 0.0980
 IR Inten    --     70.4785                65.6638                 0.3792

                      4                      5                      6
                      A                      A                      A
 Frequencies --    428.8094               524.5715               768.6551
 Red. masses --      2.5638                 2.5245                 1.5027
 Frc consts  --      0.2778                 0.4093                 0.5231
 IR Inten    --     11.1615                 3.7766               132.1223

                      7                      8                      9
                      A                      A                      A
 Frequencies --    783.3023               785.9659               832.6177
 Red. masses --      1.9901                 1.3967                 2.4619
 Frc consts  --      0.7194                 0.5083                 1.0055
 IR Inten    --     43.3164                14.7778                46.8417

                     10                     11                     12
                      A                      A                      A
 Frequencies --    846.4069               971.1077              1292.9423
 Red. masses --      1.3695                 1.3135                 1.2729
 Frc consts  --      0.5781                 0.7298                 1.2537
 IR Inten    --     14.0790               626.5839                57.0837

                     13                     14                     15
                      A                      A                      A
 Frequencies --   1375.1097              1703.6384              1958.5601
 Red. masses --      4.0844                 1.0273                 6.1970
 Frc consts  --      4.5505                 1.7567                14.0058
 IR Inten    --     78.9477               332.8326              1022.3243

                     16                     17                     18
                      A                      A                      A
 Frequencies --   2138.7807              2773.1735              2852.1400
 Red. masses --      1.1091                 1.0879                 1.1878
 Frc consts  --      2.9893                 4.9295                 5.6929
 IR Inten    --   1007.8934               584.7178               516.9882

 - Thermochemistry -
 -------------------
 Temperature   298.150 Kelvin.  Pressure   1.00000 Atm.
 Atom     1 has atomic number  6 and mass  12.00000

 Molecular mass:    52.03130 amu.
 Principal axes and moments of inertia in atomic units:
                           1         2         3
     Eigenvalues --    11.72045 475.42410 482.53158
           X            0.99995   0.01039  -0.00001
           Y           -0.01039   0.99995   0.00007
           Z            0.00001  -0.00007   1.00000
 This molecule is an asymmetric top.
 Rotational symmetry number  1.
 Rotational temperatures (Kelvin)      7.38997     0.18218     0.17950
 Rotational constants (GHZ):         153.98225     3.79607     3.74015
 Zero-point vibrational energy     124416.5 (Joules/Mol)
                                   29.73626 (Kcal/Mol)
 Warning -- explicit consideration of   5 degrees of freedom as
           vibrations may cause significant error
 Vibrational temperatures:    288.32   291.78   520.61   616.96   754.74
          (Kelvin)           1105.92  1127.00  1130.83  1197.95  1217.79
                             1397.21  1860.25  1978.47  2451.15  2817.93
                             3077.22  3989.97  4103.59

 Zero-point correction=                           0.047388 (Hartree/Particle)
 Thermal correction to Energy=                    0.052628
 Thermal correction to Enthalpy=                  0.053572
 Thermal correction to Gibbs Free Energy=         0.020472
 Sum of electronic and zero-point Energies=           -152.931105
 Sum of electronic and thermal Energies=              -152.925865
 Sum of electronic and thermal Enthalpies=            -152.924921
 Sum of electronic and thermal Free Energies=         -152.958020

                     E (Thermal)             CV                S
                      KCal/Mol        Cal/Mol-Kelvin    Cal/Mol-Kelvin
 Total                   33.024             17.758             69.664
 Electronic               0.000              0.000              1.377
 Translational            0.889              2.981             37.771
 Rotational               0.889              2.981             22.513
 Vibrational             31.247             11.796              8.004
 Vibration     1          0.638              1.839              2.130
 Vibration     2          0.639              1.836              2.108
 Vibration     3          0.736              1.551              1.114
 Vibration     4          0.790              1.408              0.863
 Vibration     5          0.880              1.196              0.599

 Optimization completed.
    -- Stationary point found.
 Normal termination of Gaussian 09 at Wed Jun 22 00:18:32 2016.
