 Gaussian 09, Revision E.01,
 Gaussian 09:  EM64L-G09RevE.01 30-Nov-2015

 ---------------------------------------------
 #p b3lyp/6-311++G(3df,2p) freq symmetry=Loose
 ---------------------------------------------

 ---------
 b3lyp opt
 ---------
 Symbolic Z-matrix:
 Charge =  3 Multiplicity = 4

                         Standard orientation:
 ---------------------------------------------------------------------
 Center     Atomic      Atomic             Coordinates (Angstroms)
 Number     Number       Type             X           Y           Z
 ---------------------------------------------------------------------
      1          6           0        1.696030   -0.402665    0.000003
      2          1           0        2.670706    0.128348    0.000044
      3          1           0        1.656178   -1.509225   -0.000052
      4          6           0        0.455502    0.480746    0.000030
      5          1           0        0.544122    1.246045    0.874110
      6          1           0        0.544147    1.246133   -0.873970
      7          6           0       -0.874423    0.018010   -0.000011
      8          6           0       -2.179635   -0.281307   -0.000044
 ---------------------------------------------------------------------

 SCF Done:  E(UB3LYP) =  -152.858050098     A.U. after   17 cycles

 The electronic state is 4-A.
 Alpha  occ. eigenvalues --  -11.16152 -11.12105 -11.01296 -10.97402  -1.63947
 Alpha  occ. eigenvalues --   -1.54071  -1.39564  -1.25895  -1.19380  -1.19231
 Alpha  occ. eigenvalues --   -1.18097  -1.12199  -1.10131  -1.09658
 Alpha virt. eigenvalues --   -0.83796  -0.82326  -0.80303  -0.59652  -0.54979
 Alpha virt. eigenvalues --   -0.52269  -0.50110  -0.47889  -0.47006  -0.43642
 Alpha virt. eigenvalues --   -0.43444  -0.41854  -0.39068  -0.38297  -0.37497

  Beta  occ. eigenvalues --  -11.11912 -11.10678 -11.01171 -10.97280  -1.58213
  Beta  occ. eigenvalues --   -1.49819  -1.38239  -1.23800  -1.15997  -1.15725
  Beta  occ. eigenvalues --   -1.11220
  Beta virt. eigenvalues --   -0.95833  -0.95171  -0.92021  -0.82292  -0.71901
  Beta virt. eigenvalues --   -0.70850  -0.57151  -0.53713  -0.50942  -0.49439
  Beta virt. eigenvalues --   -0.47384  -0.45617  -0.43030  -0.42822  -0.41054

 Mulliken charges and spin densities:
               1          2
     1  C    0.058595   0.067552
     2  H    0.357585   0.001275
     3  H    0.334761   0.004042
     4  C   -0.131446   0.026504
     5  H    0.376802   0.068601
     6  H    0.376802   0.068601
     7  C    0.878398   0.910107
     8  C    0.748503   1.853318
 Sum of Mulliken charges =   3.00000   3.00000

 Dipole moment (field-independent basis, Debye):
    X=             -0.7973    Y=             -0.0141    Z=             -0.0000  Tot=              0.7974
 Quadrupole moment (field-independent basis, Debye-Ang):
   XX=             27.1084   YY=             -8.8258   ZZ=            -14.8631
   XY=              0.8877   XZ=              0.0006   YZ=              0.0003

  Exact polarizability:  59.374   3.958  27.003   0.000   0.000  20.934
 Approx polarizability:  97.638  11.892  41.280   0.002   0.001  31.333

                      1                      2                      3
                      A                      A                      A
 Frequencies --    177.4656               219.8945               351.6363
 Red. masses --      1.1233                 4.1876                 2.2497
 Frc consts  --      0.0208                 0.1193                 0.1639
 IR Inten    --      1.1539                 2.6957                41.9241

                      4                      5                      6
                      A                      A                      A
 Frequencies --    537.5703               639.8824               782.6042
 Red. masses --      5.4050                 2.2797                 4.2168
 Frc consts  --      0.9203                 0.5500                 1.5217
 IR Inten    --     16.7378                31.5091                36.0977

                      7                      8                      9
                      A                      A                      A
 Frequencies --    878.0011               953.0533               987.9634
 Red. masses --      2.2588                 1.0970                 1.4272
 Frc consts  --      1.0259                 0.5871                 0.8208
 IR Inten    --    183.2226               157.4106                 8.3796

                     10                     11                     12
                      A                      A                      A
 Frequencies --   1002.4137              1205.1802              1232.8918
 Red. masses --      1.0947                 1.6515                 1.3395
 Frc consts  --      0.6481                 1.4133                 1.1996
 IR Inten    --      0.3868               201.7862                 5.3364

                     13                     14                     15
                      A                      A                      A
 Frequencies --   1412.1385              1736.6618              2343.7898
 Red. masses --      1.1001                11.5936                 1.0765
 Frc consts  --      1.2925                20.6014                 3.4840
 IR Inten    --     10.0333                 6.7481               426.8894

                     16                     17                     18
                      A                      A                      A
 Frequencies --   2417.1515              2907.4213              3032.5091
 Red. masses --      1.0593                 1.0515                 1.1315
 Frc consts  --      3.6466                 5.2369                 6.1304
 IR Inten    --    736.1038               252.7714               192.6474

 - Thermochemistry -
 -------------------
 Temperature   298.150 Kelvin.  Pressure   1.00000 Atm.
 Atom     1 has atomic number  6 and mass  12.00000

 Molecular mass:    52.03130 amu.
 Principal axes and moments of inertia in atomic units:
                           1         2         3
     Eigenvalues --    45.08996 409.71666 443.80882
           X            0.99998  -0.00667  -0.00001
           Y            0.00667   0.99998  -0.00005
           Z            0.00001   0.00005   1.00000
 This molecule is an asymmetric top.
 Rotational symmetry number  1.
 Rotational temperatures (Kelvin)      1.92091     0.21140     0.19516
 Rotational constants (GHZ):          40.02535     4.40485     4.06648
 Zero-point vibrational energy     136483.3 (Joules/Mol)
                                   32.62030 (Kcal/Mol)
 Warning -- explicit consideration of   4 degrees of freedom as
           vibrations may cause significant error
 Vibrational temperatures:    255.33   316.38   505.93   773.44   920.65
          (Kelvin)           1125.99  1263.25  1371.23  1421.46  1442.25
                             1733.98  1773.85  2031.75  2498.67  3372.19
                             3477.74  4183.13  4363.10

 Zero-point correction=                           0.051984 (Hartree/Particle)
 Thermal correction to Energy=                    0.056942
 Thermal correction to Enthalpy=                  0.057886
 Thermal correction to Gibbs Free Energy=         0.023984
 Sum of electronic and zero-point Energies=           -152.806066
 Sum of electronic and thermal Energies=              -152.801108
 Sum of electronic and thermal Enthalpies=            -152.800164
 Sum of electronic and thermal Free Energies=         -152.834066

                     E (Thermal)             CV                S
                      KCal/Mol        Cal/Mol-Kelvin    Cal/Mol-Kelvin
 Total                   35.731             16.263             71.353
 Electronic               0.000              0.000              2.755
 Translational            0.889              2.981             37.771
 Rotational               0.889              2.981             23.621
 Vibrational             33.954             10.301              7.207
 Vibration     1          0.628              1.870              2.355
 Vibration     2          0.647              1.811              1.960
 Vibration     3          0.728              1.572              1.159
 Vibration     4          0.893              1.167              0.571

 Optimization completed.
    -- Stationary point found.
 Normal termination of Gaussian 09 at Tue Jul 19 22:43:49 2016.
