 Gaussian 09, Revision E.01,
 Gaussian 09:  EM64L-G09RevE.01 30-Nov-2015

 ---------------------------------------------
 #p b3lyp/6-311++G(3df,2p) freq symmetry=Loose
 ---------------------------------------------

 ---------
 b3lyp opt
 ---------
 Symbolic Z-matrix:
 Charge =  0 Multiplicity = 1

                         Standard orientation:
 ---------------------------------------------------------------------
 Center     Atomic      Atomic             Coordinates (Angstroms)
 Number     Number       Type             X           Y           Z
 ---------------------------------------------------------------------
      1          6           0       -1.606166   -0.111960    0.000964
      2          1           0        0.322263    1.435181   -0.921352
      3          6           0        0.358341    0.874893   -0.000148
      4          1           0        0.320428    1.435733    0.920593
      5          6           0       -0.411814   -0.530783   -0.002037
      6          6           0        1.039128   -0.456702    0.000699
      7          1           0        1.538078   -0.761584    0.913078
      8          1           0        1.542298   -0.762024   -0.909186
 ---------------------------------------------------------------------

 SCF Done:  E(RB3LYP) =  -154.704272078     A.U. after   12 cycles

 The electronic state is 1-A.
 Alpha  occ. eigenvalues --  -10.24727 -10.23815 -10.19479 -10.19119  -0.91335
 Alpha  occ. eigenvalues --   -0.72254  -0.64984  -0.54370  -0.52816  -0.41919
 Alpha  occ. eigenvalues --   -0.40976  -0.34379  -0.28054  -0.27729
 Alpha virt. eigenvalues --   -0.04184  -0.01548  -0.00408   0.01111   0.03223
 Alpha virt. eigenvalues --    0.03683   0.04929   0.04996   0.05909   0.07657
 Alpha virt. eigenvalues --    0.08277   0.09220   0.10932   0.11497   0.12168

 Mulliken charges:
               1
     1  C   -0.430785
     2  H    0.176173
     3  C   -0.387478
     4  H    0.176379
     5  C    0.394384
     6  C   -0.279363
     7  H    0.175499
     8  H    0.175191
 Sum of Mulliken charges =  -0.00000

 Dipole moment (field-independent basis, Debye):
    X=              4.3640    Y=              0.4713    Z=              0.0013  Tot=              4.3894
 Quadrupole moment (field-independent basis, Debye-Ang):
   XX=            -30.7110   YY=            -23.0705   ZZ=            -23.8623
   XY=             -0.2440   XZ=              0.0016   YZ=             -0.0020

  Exact polarizability:  58.010   0.893  42.209  -0.011   0.004  36.251
 Approx polarizability:  94.129   3.248  66.133  -0.059   0.022  51.730

                      1                      2                      3
                      A                      A                      A
 Frequencies --    133.7860               261.3126               740.0615
 Red. masses --      7.6236                 3.9213                 9.5401
 Frc consts  --      0.0804                 0.1578                 3.0785
 IR Inten    --      1.2356                 0.0528                48.7583

                      4                      5                      6
                      A                      A                      A
 Frequencies --    812.3712               825.8523               955.2856
 Red. masses --      1.0232                 5.5248                 1.0721
 Frc consts  --      0.3978                 2.2201                 0.5765
 IR Inten    --      0.6858                 0.7092                 0.5355

                      7                      8                      9
                      A                      A                      A
 Frequencies --   1038.1728              1060.6429              1119.8490
 Red. masses --      1.1265                 1.3309                 1.5195
 Frc consts  --      0.7153                 0.8821                 1.1227
 IR Inten    --      3.0348                 2.7252                 5.6909

                     10                     11                     12
                      A                      A                      A
 Frequencies --   1147.6873              1183.2967              1473.9713
 Red. masses --      2.6544                 1.2803                 1.0889
 Frc consts  --      2.0599                 1.0562                 1.3939
 IR Inten    --      1.3099                 0.0024                 2.5827

                     13                     14                     15
                      A                      A                      A
 Frequencies --   1497.6916              1941.2621              3103.7404
 Red. masses --      1.1845                11.1807                 1.0535
 Frc consts  --      1.5654                24.8250                 5.9794
 IR Inten    --      2.0569               126.2292                 8.8669

                     16                     17                     18
                      A                      A                      A
 Frequencies --   3149.0531              3179.0699              3253.4425
 Red. masses --      1.0503                 1.1174                 1.1228
 Frc consts  --      6.1363                 6.6534                 7.0020
 IR Inten    --      5.8582                 0.9740                 0.1260

 - Thermochemistry -
 -------------------
 Temperature   298.150 Kelvin.  Pressure   1.00000 Atm.
 Atom     1 has atomic number  6 and mass  12.00000

 Molecular mass:    52.03130 amu.
 Principal axes and moments of inertia in atomic units:
                           1         2         3
     Eigenvalues --    85.12152 198.75049 259.70987
           X            0.99914  -0.04146   0.00001
           Y            0.04146   0.99914  -0.00018
           Z           -0.00001   0.00018   1.00000
 This molecule is an asymmetric top.
 Rotational symmetry number  1.
 Rotational temperatures (Kelvin)      1.01753     0.43579     0.33350
 Rotational constants (GHZ):          21.20194     9.08044     6.94907
 Zero-point vibrational energy     160757.5 (Joules/Mol)
                                   38.42195 (Kcal/Mol)
 Warning -- explicit consideration of   2 degrees of freedom as
           vibrations may cause significant error
 Vibrational temperatures:    192.49   375.97  1064.78  1168.82  1188.22
          (Kelvin)           1374.44  1493.70  1526.03  1611.21  1651.26
                             1702.50  2120.71  2154.84  2793.04  4465.58
                             4530.78  4573.97  4680.97

 Zero-point correction=                           0.061229 (Hartree/Particle)
 Thermal correction to Energy=                    0.065626
 Thermal correction to Enthalpy=                  0.066570
 Thermal correction to Gibbs Free Energy=         0.035018
 Sum of electronic and zero-point Energies=           -154.643043
 Sum of electronic and thermal Energies=              -154.638646
 Sum of electronic and thermal Enthalpies=            -154.637702
 Sum of electronic and thermal Free Energies=         -154.669254

                     E (Thermal)             CV                S
                      KCal/Mol        Cal/Mol-Kelvin    Cal/Mol-Kelvin
 Total                   41.181             13.594             66.407
 Electronic               0.000              0.000              0.000
 Translational            0.889              2.981             37.771
 Rotational               0.889              2.981             23.001
 Vibrational             39.403              7.633              5.636
 Vibration     1          0.613              1.920              2.891
 Vibration     2          0.669              1.744              1.653

 Normal termination of Gaussian 09 at Tue Jun 21 20:58:10 2016.
