 Gaussian 09, Revision E.01,
 Gaussian 09:  EM64L-G09RevE.01 30-Nov-2015

 ---------------------------------------------
 #p b3lyp/6-311++G(3df,2p) freq symmetry=Loose
 ---------------------------------------------

 ---------
 b3lyp opt
 ---------
 Symbolic Z-matrix:
 Charge =  1 Multiplicity = 2

                         Standard orientation:
 ---------------------------------------------------------------------
 Center     Atomic      Atomic             Coordinates (Angstroms)
 Number     Number       Type             X           Y           Z
 ---------------------------------------------------------------------
      1          6           0       -0.437503   -0.128095    0.532299
      2          1           0       -0.479543   -0.302027    1.600117
      3          6           0       -1.503849    0.045081   -0.233139
      4          1           0       -1.785590    0.243059   -1.258390
      5          6           0        0.949425    0.651648   -0.061834
      6          6           0        0.957631   -0.578770   -0.223116
      7          1           0        1.288867   -1.577800   -0.443815
      8          1           0        1.182040    1.697578    0.016824
 ---------------------------------------------------------------------

 SCF Done:  E(UB3LYP) =  -154.377940301     A.U. after   16 cycles

 The electronic state is 2-A.
 Alpha  occ. eigenvalues --  -10.48377 -10.47474 -10.46964 -10.46384  -1.13344
 Alpha  occ. eigenvalues --   -0.98878  -0.82733  -0.81606  -0.76084  -0.70991
 Alpha  occ. eigenvalues --   -0.67313  -0.57004  -0.55321  -0.49290
 Alpha virt. eigenvalues --   -0.32959  -0.24074  -0.15400  -0.14080  -0.13862
 Alpha virt. eigenvalues --   -0.13724  -0.12422  -0.10622  -0.09030  -0.08092
 Alpha virt. eigenvalues --   -0.06447  -0.06198  -0.05136  -0.04356  -0.03351

  Beta  occ. eigenvalues --  -10.47386 -10.46848 -10.46750 -10.46476  -1.12824
  Beta  occ. eigenvalues --   -0.96590  -0.82599  -0.80212  -0.75917  -0.70014
  Beta  occ. eigenvalues --   -0.65772  -0.56492  -0.54830
  Beta virt. eigenvalues --   -0.33146  -0.31268  -0.23767  -0.15098  -0.13937
  Beta virt. eigenvalues --   -0.13643  -0.13375  -0.12317  -0.10459  -0.08570
  Beta virt. eigenvalues --   -0.07797  -0.06362  -0.06150  -0.05046  -0.03987

 Mulliken charges and spin densities:
               1          2
     1  C   -0.084525  -0.171872
     2  H    0.212705   0.023870
     3  C   -0.151503   1.046219
     4  H    0.276690   0.011015
     5  C    0.005806   0.042430
     6  C    0.044168   0.056450
     7  H    0.345522  -0.004868
     8  H    0.351136  -0.003246
 Sum of Mulliken charges =   1.00000   1.00000

 Dipole moment (field-independent basis, Debye):
    X=              0.2634    Y=              0.2050    Z=             -0.6090  Tot=              0.6944
 Quadrupole moment (field-independent basis, Debye-Ang):
   XX=            -14.3140   YY=            -15.4485   ZZ=            -18.7255
   XY=             -0.3349   XZ=              1.3219   YZ=              0.2066

  Exact polarizability:  49.834  -0.238  34.723   1.467   0.016  31.222
 Approx polarizability:  82.548  -0.195  58.826   4.409   0.868  45.384

                      1                      2                      3
                      A                      A                      A
 Frequencies --     42.1571               321.0550               360.9313
 Red. masses --      3.1663                 5.6620                 2.5316
 Frc consts  --      0.0033                 0.3439                 0.1943
 IR Inten    --     11.8525                10.1910                 3.5947

                      4                      5                      6
                      A                      A                      A
 Frequencies --    640.5831               706.6762               724.3358
 Red. masses --      4.0992                 1.2877                 1.4026
 Frc consts  --      0.9911                 0.3789                 0.4336
 IR Inten    --     44.3546                 1.2845                45.0445

                      7                      8                      9
                      A                      A                      A
 Frequencies --    740.7310               801.8178               889.1788
 Red. masses --      1.2875                 1.6402                 1.0784
 Frc consts  --      0.4162                 0.6213                 0.5024
 IR Inten    --     84.5988                17.8853                10.3385

                     10                     11                     12
                      A                      A                      A
 Frequencies --    927.5288              1000.3280              1267.1754
 Red. masses --      1.1588                 1.2178                 1.0915
 Frc consts  --      0.5874                 0.7180                 1.0326
 IR Inten    --     39.9984                22.1297                 0.2734

                     13                     14                     15
                      A                      A                      A
 Frequencies --   1499.7570              1873.3235              3172.2492
 Red. masses --      5.8961                 4.2804                 1.0904
 Frc consts  --      7.8138                 8.8503                 6.4648
 IR Inten    --     54.7736                 0.8524                20.3411

                     16                     17                     18
                      A                      A                      A
 Frequencies --   3233.8514              3272.7677              3353.7655
 Red. masses --      1.1071                 1.0858                 1.1927
 Frc consts  --      6.8217                 6.8521                 7.9042
 IR Inten    --     39.0018               210.9851                58.6237

 - Thermochemistry -
 -------------------
 Temperature   298.150 Kelvin.  Pressure   1.00000 Atm.
 Atom     1 has atomic number  6 and mass  12.00000

 Molecular mass:    52.03130 amu.
 Principal axes and moments of inertia in atomic units:
                           1         2         3
     Eigenvalues --    85.53529 238.74678 259.62830
           X            0.99980  -0.00706   0.01896
           Y            0.00728   0.99991  -0.01145
           Z           -0.01888   0.01158   0.99975
 This molecule is an asymmetric top.
 Rotational symmetry number  1.
 Rotational temperatures (Kelvin)      1.01261     0.36279     0.33361
 Rotational constants (GHZ):          21.09937     7.55923     6.95125
 Zero-point vibrational energy     148505.7 (Joules/Mol)
                                   35.49371 (Kcal/Mol)
 Warning -- explicit consideration of   3 degrees of freedom as
           vibrations may cause significant error
 Vibrational temperatures:     60.65   461.93   519.30   921.66  1016.75
          (Kelvin)           1042.16  1065.75  1153.64  1279.33  1334.51
                             1439.25  1823.18  2157.81  2695.29  4564.15
                             4652.79  4708.78  4825.31

 Zero-point correction=                           0.056563 (Hartree/Particle)
 Thermal correction to Energy=                    0.061678
 Thermal correction to Enthalpy=                  0.062623
 Thermal correction to Gibbs Free Energy=         0.028531
 Sum of electronic and zero-point Energies=           -154.321377
 Sum of electronic and thermal Energies=              -154.316262
 Sum of electronic and thermal Enthalpies=            -154.315318
 Sum of electronic and thermal Free Energies=         -154.349409

                     E (Thermal)             CV                S
                      KCal/Mol        Cal/Mol-Kelvin    Cal/Mol-Kelvin
 Total                   38.704             16.691             71.752
 Electronic               0.000              0.000              1.377
 Translational            0.889              2.981             37.771
 Rotational               0.889              2.981             23.187
 Vibrational             36.926             10.729              9.417
 Vibration     1          0.595              1.980              5.155
 Vibration     2          0.707              1.633              1.305
 Vibration     3          0.735              1.553              1.118

 Normal termination of Gaussian 09 at Tue Jun 21 22:33:15 2016.
