 Gaussian 09, Revision E.01,
 Gaussian 09:  EM64L-G09RevE.01 30-Nov-2015

 ---------------------------------------------
 #p b3lyp/6-311++G(3df,2p) freq symmetry=Loose
 ---------------------------------------------

 ---------
 b3lyp opt
 ---------
 Symbolic Z-matrix:
 Charge =  3 Multiplicity = 4

                         Standard orientation:
 ---------------------------------------------------------------------
 Center     Atomic      Atomic             Coordinates (Angstroms)
 Number     Number       Type             X           Y           Z
 ---------------------------------------------------------------------
      1          6           0       -0.000000    0.000000    0.695762
      2          6           0        0.000000   -0.000000   -0.695762
      3          6           0       -0.000000    0.000000   -2.080511
      4          6           0       -0.000000    0.000000    2.080511
      5          1           0        0.000000   -0.966566    2.675368
      6          1           0        0.000000    0.966566    2.675368
      7          1           0        0.000000   -0.966566   -2.675368
      8          1           0        0.000000    0.966566   -2.675368
 ---------------------------------------------------------------------

 SCF Done:  E(UB3LYP) =  -152.935161656     A.U. after   12 cycles

 The electronic state is 4-B3G.
 Alpha  occ. eigenvalues --  -11.09724 -11.09666 -11.00610 -11.00608  -1.62056
 Alpha  occ. eigenvalues --   -1.53236  -1.44704  -1.23942  -1.21426  -1.19121
 Alpha  occ. eigenvalues --   -1.16336  -1.15400  -1.04667  -1.03318
 Alpha virt. eigenvalues --   -0.83073  -0.80480  -0.70754  -0.65678  -0.54253
 Alpha virt. eigenvalues --   -0.48310  -0.47010  -0.46277  -0.42914  -0.42653
 Alpha virt. eigenvalues --   -0.42469  -0.40912  -0.40804  -0.39177  -0.38839

  Beta  occ. eigenvalues --  -11.07949 -11.07900 -11.00058 -11.00056  -1.55322
  Beta  occ. eigenvalues --   -1.49216  -1.41427  -1.21534  -1.19743  -1.15072
  Beta  occ. eigenvalues --   -1.13149
  Beta virt. eigenvalues --   -0.99165  -0.93288  -0.89253  -0.76076  -0.73687
  Beta virt. eigenvalues --   -0.61465  -0.59535  -0.53246  -0.47394  -0.45721
  Beta virt. eigenvalues --   -0.45587  -0.42027  -0.41341  -0.40899  -0.39752

 Mulliken charges and spin densities:
               1          2
     1  C    0.758743   1.123943
     2  C    0.758743   1.123943
     3  C   -0.031635   0.307127
     4  C   -0.031635   0.307127
     5  H    0.386446   0.034465
     6  H    0.386446   0.034465
     7  H    0.386446   0.034465
     8  H    0.386446   0.034465
 Sum of Mulliken charges =   3.00000   3.00000

 Dipole moment (field-independent basis, Debye):
    X=              0.0000    Y=              0.0000    Z=             -0.0000  Tot=              0.0000
 Quadrupole moment (field-independent basis, Debye-Ang):
   XX=            -17.1372   YY=            -11.8454   ZZ=             44.9473
   XY=             -0.0000   XZ=             -0.0000   YZ=             -0.0000

  Exact polarizability:  18.136   0.000  23.721  -0.000  -0.000  88.064
 Approx polarizability:  25.808  -0.000  32.925  -0.000  -0.000 140.399

                      1                      2                      3
                     B3U                    B2U                    B3G
 Frequencies --    186.7696               217.5361               352.4707
 Red. masses --      4.0339                 2.4853                 3.3552
 Frc consts  --      0.0829                 0.0693                 0.2456
 IR Inten    --     20.5676                23.2548                 0.0000

                      4                      5                      6
                     B2G                    AU                     AG
 Frequencies --    402.4366               481.4642               691.5052
 Red. masses --      7.1777                 1.0078                 5.9751
 Frc consts  --      0.6849                 0.1376                 1.6834
 IR Inten    --      0.0000                 0.0000                 0.0000

                      7                      8                      9
                     B3G                    B2U                    B3U
 Frequencies --    806.0563               820.6569               943.4401
 Red. masses --      1.4869                 1.4317                 1.3206
 Frc consts  --      0.5692                 0.5681                 0.6925
 IR Inten    --      0.0000                20.7609                80.1543

                     10                     11                     12
                     B2G                    B1U                    AG
 Frequencies --    953.0312              1155.3992              1204.8712
 Red. masses --      1.3252                 1.7230                 1.0731
 Frc consts  --      0.7092                 1.3552                 0.9179
 IR Inten    --      0.0000               341.0778                 0.0000

                     13                     14                     15
                     B1U                    AG                     B1U
 Frequencies --   1268.0308              1776.1317              2586.4963
 Red. masses --      2.2111                10.6017                 1.0365
 Frc consts  --      2.0947                19.7050                 4.0856
 IR Inten    --    155.1625                 0.0000              2550.8240

                     16                     17                     18
                     AG                     B3G                    B2U
 Frequencies --   2659.2585              2701.2723              2702.6656
 Red. masses --      1.0443                 1.1147                 1.1154
 Frc consts  --      4.3511                 4.7925                 4.8002
 IR Inten    --      0.0000                 0.0000               953.3265

 - Thermochemistry -
 -------------------
 Temperature   298.150 Kelvin.  Pressure   1.00000 Atm.
 Atom     1 has atomic number  6 and mass  12.00000

 Molecular mass:    52.03130 amu.
 Principal axes and moments of inertia in atomic units:
                           1         2         3
     Eigenvalues --    13.44948 515.50843 528.95791
           X           -0.00000   0.00000   1.00000
           Y           -0.00000   1.00000  -0.00000
           Z            1.00000   0.00000   0.00000
 This molecule is an asymmetric top.
 Rotational symmetry number  4.
 Rotational temperatures (Kelvin)      6.43994     0.16802     0.16374
 Rotational constants (GHZ):         134.18670     3.50090     3.41188
 Zero-point vibrational energy     131047.9 (Joules/Mol)
                                   31.32119 (Kcal/Mol)
 Warning -- explicit consideration of   5 degrees of freedom as
           vibrations may cause significant error
 Vibrational temperatures:    268.72   312.99   507.13   579.02   692.72
          (Kelvin)            994.92  1159.73  1180.74  1357.40  1371.20
                             1662.36  1733.54  1824.41  2555.45  3721.39
                             3826.08  3886.52  3888.53

 Zero-point correction=                           0.049913 (Hartree/Particle)
 Thermal correction to Energy=                    0.055172
 Thermal correction to Enthalpy=                  0.056116
 Thermal correction to Gibbs Free Energy=         0.023469
 Sum of electronic and zero-point Energies=           -152.885248
 Sum of electronic and thermal Energies=              -152.879990
 Sum of electronic and thermal Enthalpies=            -152.879046
 Sum of electronic and thermal Free Energies=         -152.911693

                     E (Thermal)             CV                S
                      KCal/Mol        Cal/Mol-Kelvin    Cal/Mol-Kelvin
 Total                   34.621             17.572             68.712
 Electronic               0.000              0.000              2.755
 Translational            0.889              2.981             37.771
 Rotational               0.889              2.981             20.066
 Vibrational             32.843             11.610              8.120
 Vibration     1          0.632              1.858              2.260
 Vibration     2          0.646              1.814              1.980
 Vibration     3          0.729              1.570              1.155
 Vibration     4          0.768              1.465              0.954
 Vibration     5          0.838              1.291              0.706

 Optimization completed.
    -- Stationary point found.
 Normal termination of Gaussian 09 at Tue Jul 19 23:03:47 2016.
