 Gaussian 09, Revision E.01,
 Gaussian 09:  EM64L-G09RevE.01 30-Nov-2015

 ---------------------------------------------
 #p b3lyp/6-311++G(3df,2p) freq symmetry=Loose
 ---------------------------------------------

 ---------
 b3lyp opt
 ---------
 Symbolic Z-matrix:
 Charge =  2 Multiplicity = 3

                         Standard orientation:
 ---------------------------------------------------------------------
 Center     Atomic      Atomic             Coordinates (Angstroms)
 Number     Number       Type             X           Y           Z
 ---------------------------------------------------------------------
      1          6           0       -1.850904    0.001793    0.003733
      2          1           0       -2.304695   -0.818789   -0.620910
      3          1           0       -2.285034    0.959928   -0.413351
      4          1           0       -2.216078   -0.099961    1.058617
      5          6           0       -0.484706   -0.032279   -0.005445
      6          6           0        0.816526   -0.002946   -0.001150
      7          6           0        2.127741    0.077545   -0.003955
      8          1           0        3.153865   -0.305853    0.016549
 ---------------------------------------------------------------------

 SCF Done:  E(UB3LYP) =  -153.777394584     A.U. after   22 cycles

 The electronic state is 3-A.
 Alpha  occ. eigenvalues --  -10.79321 -10.79293 -10.78052 -10.66353  -1.35917
 Alpha  occ. eigenvalues --   -1.27822  -1.19588  -1.02184  -0.96657  -0.93138
 Alpha  occ. eigenvalues --   -0.91152  -0.86642  -0.83567  -0.73234
 Alpha virt. eigenvalues --   -0.63478  -0.47720  -0.42636  -0.34676  -0.34159
 Alpha virt. eigenvalues --   -0.28872  -0.27329  -0.27039  -0.25738  -0.24912
 Alpha virt. eigenvalues --   -0.24364  -0.22546  -0.21466  -0.21215  -0.20647

  Beta  occ. eigenvalues --  -10.78528 -10.77802 -10.77369 -10.66252  -1.32357
  Beta  occ. eigenvalues --   -1.25267  -1.17172  -1.00504  -0.95400  -0.90630
  Beta  occ. eigenvalues --   -0.87515  -0.82503
  Beta virt. eigenvalues --   -0.73120  -0.61846  -0.58197  -0.41456  -0.39922
  Beta virt. eigenvalues --   -0.34218  -0.31858  -0.28209  -0.26932  -0.26452
  Beta virt. eigenvalues --   -0.24724  -0.24087  -0.23779  -0.22052  -0.21031

 Mulliken charges and spin densities:
               1          2
     1  C   -0.217381   0.049711
     2  H    0.295405   0.077254
     3  H    0.298784   0.115892
     4  H    0.290151  -0.004598
     5  C    0.291071   0.528158
     6  C    0.478066   0.512052
     7  C    0.161328   0.737579
     8  H    0.402577  -0.016047
 Sum of Mulliken charges =   2.00000   2.00000

 Dipole moment (field-independent basis, Debye):
    X=              1.0877    Y=             -0.2467    Z=              0.0013  Tot=              1.1153
 Quadrupole moment (field-independent basis, Debye-Ang):
   XX=             23.0999   YY=            -17.7134   ZZ=            -17.9412
   XY=             -1.1646   XZ=              0.1710   YZ=             -0.0158

  Exact polarizability:  91.245   0.205  24.283   0.631   0.025  24.134
 Approx polarizability: 178.116   3.188  34.610   0.292  -0.024  34.172

                      1                      2                      3
                      A                      A                      A
 Frequencies --    130.5822               182.7659               206.9359
 Red. masses --      1.7714                 2.9447                 1.7464
 Frc consts  --      0.0178                 0.0580                 0.0441
 IR Inten    --     13.9295                17.8409                45.2740

                      4                      5                      6
                      A                      A                      A
 Frequencies --    299.8539               407.0533               462.3857
 Red. masses --      1.2111                 8.0811                 2.5980
 Frc consts  --      0.0642                 0.7889                 0.3273
 IR Inten    --     55.9192                10.2146                10.7528

                      7                      8                      9
                      A                      A                      A
 Frequencies --    701.8930               799.6265               808.0443
 Red. masses --      1.4768                 1.7985                 4.4681
 Frc consts  --      0.4287                 0.6776                 1.7189
 IR Inten    --     87.1603                60.4264                37.9834

                     10                     11                     12
                      A                      A                      A
 Frequencies --    954.6942              1076.3323              1239.1443
 Red. masses --      1.0813                 1.0934                 1.1838
 Frc consts  --      0.5807                 0.7463                 1.0710
 IR Inten    --     53.4126               139.9549               201.6415

                     13                     14                     15
                      A                      A                      A
 Frequencies --   1460.1942              1856.9029              2601.8115
 Red. masses --      7.1362                 7.9477                 1.0742
 Frc consts  --      8.9647                16.1461                 4.2842
 IR Inten    --      0.7759               197.4216               365.6807

                     16                     17                     18
                      A                      A                      A
 Frequencies --   2691.1504              2798.7113              3113.5745
 Red. masses --      1.0548                 1.0750                 1.1177
 Frc consts  --      4.5008                 4.9612                 6.3840
 IR Inten    --    966.3638               340.9551               421.1578

 - Thermochemistry -
 -------------------
 Temperature   298.150 Kelvin.  Pressure   1.00000 Atm.
 Atom     1 has atomic number  6 and mass  12.00000

 Molecular mass:    52.03130 amu.
 Principal axes and moments of inertia in atomic units:
                           1         2         3
     Eigenvalues --    12.41018 476.00089 476.33298
           X            0.99997  -0.00788   0.00061
           Y            0.00788   0.99997  -0.00110
           Z           -0.00060   0.00110   1.00000
 This molecule is an asymmetric top.
 Rotational symmetry number  1.
 Rotational temperatures (Kelvin)      6.97926     0.18196     0.18183
 Rotational constants (GHZ):         145.42425     3.79147     3.78882
 Zero-point vibrational energy     130343.0 (Joules/Mol)
                                   31.15274 (Kcal/Mol)
 Warning -- explicit consideration of   6 degrees of freedom as
           vibrations may cause significant error
 Vibrational temperatures:    187.88   262.96   297.73   431.42   585.66
          (Kelvin)            665.27  1009.87  1150.48  1162.59  1373.59
                             1548.60  1782.85  2100.89  2671.67  3743.42
                             3871.96  4026.72  4479.73

 Zero-point correction=                           0.049645 (Hartree/Particle)
 Thermal correction to Energy=                    0.055629
 Thermal correction to Enthalpy=                  0.056573
 Thermal correction to Gibbs Free Energy=         0.021471
 Sum of electronic and zero-point Energies=           -153.727750
 Sum of electronic and thermal Energies=              -153.721766
 Sum of electronic and thermal Enthalpies=            -153.720821
 Sum of electronic and thermal Free Energies=         -153.755924

                     E (Thermal)             CV                S
                      KCal/Mol        Cal/Mol-Kelvin    Cal/Mol-Kelvin
 Total                   34.908             19.175             73.879
 Electronic               0.000              0.000              2.183
 Translational            0.889              2.981             37.771
 Rotational               0.889              2.981             22.558
 Vibrational             33.130             13.213             11.367
 Vibration     1          0.612              1.923              2.937
 Vibration     2          0.630              1.863              2.300
 Vibration     3          0.641              1.830              2.071
 Vibration     4          0.692              1.674              1.418
 Vibration     5          0.772              1.455              0.937
 Vibration     6          0.820              1.333              0.759

 Normal termination of Gaussian 09 at Tue Jun 21 23:41:22 2016.
