 Gaussian 09, Revision E.01,
 Gaussian 09:  EM64L-G09RevE.01 30-Nov-2015

 ---------------------------------------------
 #p b3lyp/6-311++G(3df,2p) freq symmetry=Loose
 ---------------------------------------------

 ---------
 b3lyp opt
 ---------
 Symbolic Z-matrix:
 Charge =  2 Multiplicity = 3

                         Standard orientation:
 ---------------------------------------------------------------------
 Center     Atomic      Atomic             Coordinates (Angstroms)
 Number     Number       Type             X           Y           Z
 ---------------------------------------------------------------------
      1          6           0        1.267294   -0.000000    0.000146
      2          6           0       -0.000037   -0.756502   -0.000404
      3          1           0        1.883218   -0.000104    0.929026
      4          1           0        1.883860    0.000104   -0.928108
      5          1           0       -1.884087    0.000104   -0.927973
      6          6           0       -0.000037    0.756502   -0.000235
      7          6           0       -1.267221   -0.000000    0.000156
      8          1           0       -1.882981   -0.000104    0.929077
 ---------------------------------------------------------------------

 SCF Done:  E(UB3LYP) =  -153.714789640     A.U. after   12 cycles

 The electronic state is 3-A.
 Alpha  occ. eigenvalues --  -10.87263 -10.87233 -10.76335 -10.76332  -1.53804
 Alpha  occ. eigenvalues --   -1.28307  -1.10260  -1.08633  -1.03125  -0.98172
 Alpha  occ. eigenvalues --   -0.93952  -0.92951  -0.89601  -0.77669
 Alpha virt. eigenvalues --   -0.64102  -0.57150  -0.38185  -0.33850  -0.31757
 Alpha virt. eigenvalues --   -0.31480  -0.30871  -0.30700  -0.30079  -0.26929
 Alpha virt. eigenvalues --   -0.25173  -0.21987  -0.21184  -0.20755  -0.20481

  Beta  occ. eigenvalues --  -10.85461 -10.85445 -10.76432 -10.76430  -1.51288
  Beta  occ. eigenvalues --   -1.27803  -1.06659  -1.03772  -0.99767  -0.96536
  Beta  occ. eigenvalues --   -0.92353  -0.91415
  Beta virt. eigenvalues --   -0.72842  -0.66806  -0.56965  -0.52177  -0.37399
  Beta virt. eigenvalues --   -0.32519  -0.31035  -0.30848  -0.30321  -0.29864
  Beta virt. eigenvalues --   -0.29172  -0.25669  -0.24333  -0.21184  -0.20520

 Mulliken charges and spin densities:
               1          2
     1  C   -0.350076  -0.192622
     2  C    0.743377   0.990388
     3  H    0.303366   0.101154
     4  H    0.303341   0.101039
     5  H    0.303315   0.101092
     6  C    0.743377   0.990388
     7  C   -0.350075  -0.192657
     8  H    0.303374   0.101220
 Sum of Mulliken charges =   2.00000   2.00000

 Dipole moment (field-independent basis, Debye):
    X=             -0.0002    Y=              0.0000    Z=              0.0008  Tot=              0.0008
 Quadrupole moment (field-independent basis, Debye-Ang):
   XX=             -0.4559   YY=            -16.1737   ZZ=            -15.0493
   XY=             -0.0000   XZ=              0.0005   YZ=             -0.0001

  Exact polarizability:  46.630   0.000  27.871   0.001   0.000  24.026
 Approx polarizability:  73.448  -0.000  68.609   0.000   0.004  35.492

                      1                      2                      3
                      A                      A                      A
 Frequencies --    259.1164               390.0956               428.7268
 Red. masses --      2.5671                 4.6329                 9.4885
 Frc consts  --      0.1016                 0.4154                 1.0276
 IR Inten    --      7.7522                12.1775                 0.0008

                      4                      5                      6
                      A                      A                      A
 Frequencies --    783.2974               817.2507               881.4435
 Red. masses --      1.0078                 1.2366                 1.2615
 Frc consts  --      0.3643                 0.4866                 0.5775
 IR Inten    --      0.0000                 0.0000                 0.0001

                      7                      8                      9
                      A                      A                      A
 Frequencies --    917.0703               944.3328              1090.9977
 Red. masses --      6.7923                 1.4004                 1.2670
 Frc consts  --      3.3657                 0.7358                 0.8885
 IR Inten    --      0.0000                 5.5280               141.3980

                     10                     11                     12
                      A                      A                      A
 Frequencies --   1100.0215              1124.5168              1182.8335
 Red. masses --      1.2904                 7.5450                 3.8642
 Frc consts  --      0.9200                 5.6214                 3.1854
 IR Inten    --      0.0027                 0.0004               107.8976

                     13                     14                     15
                      A                      A                      A
 Frequencies --   1332.8182              1343.8454              2767.5278
 Red. masses --      1.2899                 1.0859                 1.0381
 Frc consts  --      1.3500                 1.1554                 4.6844
 IR Inten    --    127.8559                 0.0027               803.2500

                     16                     17                     18
                      A                      A                      A
 Frequencies --   2840.2838              2843.4270              2876.1290
 Red. masses --      1.0524                 1.1048                 1.1189
 Frc consts  --      5.0022                 5.2629                 5.4532
 IR Inten    --      0.0692                 0.0475               335.1929

 - Thermochemistry -
 -------------------
 Temperature   298.150 Kelvin.  Pressure   1.00000 Atm.
 Atom     1 has atomic number  6 and mass  12.00000

 Molecular mass:    52.03130 amu.
 Principal axes and moments of inertia in atomic units:
                           1         2         3
     Eigenvalues --    61.46113 201.12330 237.75995
           X            1.00000   0.00000   0.00000
           Y            0.00000   1.00000  -0.00011
           Z           -0.00000   0.00011   1.00000
 This molecule is an asymmetric top.
 Rotational symmetry number  1.
 Rotational temperatures (Kelvin)      1.40925     0.43065     0.36429
 Rotational constants (GHZ):          29.36394     8.97331     7.59060
 Zero-point vibrational energy     143095.7 (Joules/Mol)
                                   34.20069 (Kcal/Mol)
 Warning -- explicit consideration of   3 degrees of freedom as
           vibrations may cause significant error
 Vibrational temperatures:    372.81   561.26   616.84  1126.99  1175.84
          (Kelvin)           1268.20  1319.46  1358.68  1569.70  1582.68
                             1617.93  1701.83  1917.63  1933.49  3981.85
                             4086.53  4091.05  4138.10

 Zero-point correction=                           0.054502 (Hartree/Particle)
 Thermal correction to Energy=                    0.058832
 Thermal correction to Enthalpy=                  0.059776
 Thermal correction to Gibbs Free Energy=         0.027860
 Sum of electronic and zero-point Energies=           -153.660287
 Sum of electronic and thermal Energies=              -153.655958
 Sum of electronic and thermal Enthalpies=            -153.655014
 Sum of electronic and thermal Free Energies=         -153.686929

                     E (Thermal)             CV                S
                      KCal/Mol        Cal/Mol-Kelvin    Cal/Mol-Kelvin
 Total                   36.918             14.661             67.173
 Electronic               0.000              0.000              2.183
 Translational            0.889              2.981             37.771
 Rotational               0.889              2.981             22.601
 Vibrational             35.140              8.699              4.618
 Vibration     1          0.668              1.747              1.668
 Vibration     2          0.758              1.491              1.000
 Vibration     3          0.790              1.408              0.863

 Optimization completed.
    -- Stationary point found.
 Normal termination of Gaussian 09 at Tue Jul 19 19:02:25 2016.
