 Gaussian 09, Revision E.01,
 Gaussian 09:  EM64L-G09RevE.01 30-Nov-2015

 ---------------------------------------------
 #p b3lyp/6-311++G(3df,2p) freq symmetry=Loose
 ---------------------------------------------

 ---------
 b3lyp opt
 ---------
 Symbolic Z-matrix:
 Charge =  2 Multiplicity = 1

                         Standard orientation:
 ---------------------------------------------------------------------
 Center     Atomic      Atomic             Coordinates (Angstroms)
 Number     Number       Type             X           Y           Z
 ---------------------------------------------------------------------
      1          6           0       -0.854377    0.000000   -0.000020
      2          6           0        0.000000   -0.000000   -1.170227
      3          6           0        0.854377   -0.000000   -0.000020
      4          6           0       -0.000000    0.000000    1.170260
      5          1           0        0.000000    0.891181   -1.858176
      6          1           0       -0.000000   -0.891181   -1.858176
      7          1           0       -0.000000    0.891312    1.858197
      8          1           0        0.000000   -0.891312    1.858197
 ---------------------------------------------------------------------

 SCF Done:  E(RB3LYP) =  -153.770920410     A.U. after   10 cycles

 The electronic state is 1-A1.
 Alpha  occ. eigenvalues --  -10.84291 -10.84283 -10.75484 -10.75480  -1.50876
 Alpha  occ. eigenvalues --   -1.26381  -1.09662  -1.08355  -1.00906  -0.96311
 Alpha  occ. eigenvalues --   -0.94830  -0.92269  -0.82317
 Alpha virt. eigenvalues --   -0.66356  -0.61678  -0.57464  -0.37148  -0.36510
 Alpha virt. eigenvalues --   -0.32141  -0.31120  -0.31093  -0.29466  -0.28383
 Alpha virt. eigenvalues --   -0.27399  -0.23000  -0.22108  -0.20747  -0.20611

 Mulliken charges:
               1
     1  C    0.743226
     2  C   -0.375566
     3  C    0.743226
     4  C   -0.375575
     5  H    0.316173
     6  H    0.316173
     7  H    0.316171
     8  H    0.316171
 Sum of Mulliken charges =   2.00000

 Dipole moment (field-independent basis, Debye):
    X=              0.0000    Y=             -0.0000    Z=              0.0001  Tot=              0.0001
 Quadrupole moment (field-independent basis, Debye-Ang):
   XX=            -18.5842   YY=            -14.2524   ZZ=              1.3313
   XY=              0.0000   XZ=              0.0000   YZ=              0.0000

  Exact polarizability:  33.403   0.000  25.831  -0.000   0.000  46.250
 Approx polarizability:  85.237  -0.000  42.227   0.000  -0.000  80.748

                      1                      2                      3
                     B2                     B2                     B1
 Frequencies --    318.9462               423.0758               585.3144
 Red. masses --      1.2852                 1.3302                 4.2645
 Frc consts  --      0.0770                 0.1403                 0.8608
 IR Inten    --     59.4503                 0.0006                59.3547

                      4                      5                      6
                     A2                     A1                     B1
 Frequencies --    659.4478               824.7048               830.8609
 Red. masses --      1.0078                 8.4509                11.9143
 Frc consts  --      0.2582                 3.3865                 4.8459
 IR Inten    --      0.0000                 0.0000                 0.0000

                      7                      8                      9
                     B2                     B1                     A1
 Frequencies --    918.9402              1015.1837              1038.1379
 Red. masses --      3.1808                 1.2580                 1.3283
 Frc consts  --      1.5826                 0.7639                 0.8434
 IR Inten    --      4.1846                 0.0007               678.8596

                     10                     11                     12
                     A2                     B1                     A1
 Frequencies --   1050.6828              1054.3833              1126.5173
 Red. masses --      1.1740                 1.2976                 5.8654
 Frc consts  --      0.7636                 0.8499                 4.3856
 IR Inten    --      0.0000                79.8820                 0.0001

                     13                     14                     15
                     A1                     A1                     A1
 Frequencies --   1139.6998              1305.9737              2728.3898
 Red. masses --      1.0731                 3.3908                 1.0530
 Frc consts  --      0.8212                 3.4074                 4.6186
 IR Inten    --      0.0009                 5.2606              1470.3907

                     16                     17                     18
                     B2                     B2                     A1
 Frequencies --   2738.8005              2753.4765              2809.1873
 Red. masses --      1.0853                 1.1050                 1.0748
 Frc consts  --      4.7966                 4.9362                 4.9972
 IR Inten    --      0.4822               670.7520                 0.0365

 - Thermochemistry -
 -------------------
 Temperature   298.150 Kelvin.  Pressure   1.00000 Atm.
 Atom     1 has atomic number  6 and mass  12.00000

 Molecular mass:    52.03130 amu.
 Principal axes and moments of inertia in atomic units:
                           1         2         3
     Eigenvalues --    73.99670 178.51368 229.64027
           X            0.00000   1.00000  -0.00000
           Y            0.00000  -0.00000   1.00000
           Z            1.00000  -0.00000  -0.00000
 This molecule is an asymmetric top.
 Rotational symmetry number  2.
 Rotational temperatures (Kelvin)      1.17051     0.48519     0.37717
 Rotational constants (GHZ):          24.38948    10.10982     7.85899
 Zero-point vibrational energy     139494.9 (Joules/Mol)
                                   33.34008 (Kcal/Mol)
 Warning -- explicit consideration of   3 degrees of freedom as
           vibrations may cause significant error
 Vibrational temperatures:    458.89   608.71   842.14   948.80  1186.56
          (Kelvin)           1195.42  1322.15  1460.62  1493.65  1511.70
                             1517.02  1620.81  1639.77  1879.00  3925.54
                             3940.52  3961.63  4041.79

 Zero-point correction=                           0.053131 (Hartree/Particle)
 Thermal correction to Energy=                    0.057319
 Thermal correction to Enthalpy=                  0.058264
 Thermal correction to Gibbs Free Energy=         0.028324
 Sum of electronic and zero-point Energies=           -153.717790
 Sum of electronic and thermal Energies=              -153.713601
 Sum of electronic and thermal Enthalpies=            -153.712657
 Sum of electronic and thermal Free Energies=         -153.742596

                     E (Thermal)             CV                S
                      KCal/Mol        Cal/Mol-Kelvin    Cal/Mol-Kelvin
 Total                   35.968             14.676             63.013
 Electronic               0.000              0.000              0.000
 Translational            0.889              2.981             37.771
 Rotational               0.889              2.981             21.255
 Vibrational             34.191              8.714              3.987
 Vibration     1          0.705              1.637              1.316
 Vibration     2          0.785              1.420              0.882
 Vibration     3          0.942              1.063              0.476

 Optimization completed.
    -- Stationary point found.
 Normal termination of Gaussian 09 at Tue Jul 19 17:47:15 2016.
