 Gaussian 09, Revision E.01,
 Gaussian 09:  EM64L-G09RevE.01 30-Nov-2015

 ---------------------------------------------
 #p b3lyp/6-311++G(3df,2p) freq symmetry=Loose
 ---------------------------------------------

 ---------
 b3lyp opt
 ---------
 Symbolic Z-matrix:
 Charge =  1 Multiplicity = 4

                         Standard orientation:
 ---------------------------------------------------------------------
 Center     Atomic      Atomic             Coordinates (Angstroms)
 Number     Number       Type             X           Y           Z
 ---------------------------------------------------------------------
      1          6           0        1.764097   -0.165838    0.000171
      2          1           0        2.320635   -0.286417    0.933020
      3          1           0        2.320821   -0.286362   -0.932574
      4          6           0        0.523817    0.102875    0.000055
      5          6           0       -0.851705    0.423241   -0.000072
      6          1           0       -1.003062    1.114560   -0.858711
      7          1           0       -1.003233    1.114509    0.858577
      8          6           0       -1.875403   -0.636326   -0.000206
 ---------------------------------------------------------------------

 SCF Done:  E(UB3LYP) =  -154.249413709     A.U. after   19 cycles

 The electronic state is 4-A.
 Alpha  occ. eigenvalues --  -10.51269 -10.47791 -10.46743 -10.44098  -1.09427
 Alpha  occ. eigenvalues --   -1.01745  -0.86554  -0.77443  -0.72498  -0.72428
 Alpha  occ. eigenvalues --   -0.67787  -0.61204  -0.54232  -0.45488  -0.44547
 Alpha virt. eigenvalues --   -0.35896  -0.24307  -0.17444  -0.13219  -0.12638
 Alpha virt. eigenvalues --   -0.10452  -0.10400  -0.08809  -0.08117  -0.06047
 Alpha virt. eigenvalues --   -0.04953  -0.04464  -0.03727  -0.02427  -0.01927

  Beta  occ. eigenvalues --  -10.50890 -10.47565 -10.44055 -10.42242  -1.07999
  Beta  occ. eigenvalues --   -1.00295  -0.80812  -0.74780  -0.71565  -0.71508
  Beta  occ. eigenvalues --   -0.67079  -0.55077
  Beta virt. eigenvalues --   -0.37213  -0.34469  -0.25979  -0.25004  -0.22563
  Beta virt. eigenvalues --   -0.17017  -0.13081  -0.12513  -0.10226  -0.09917
  Beta virt. eigenvalues --   -0.08424  -0.07680  -0.05103  -0.04540  -0.02825

 Mulliken charges and spin densities:
               1          2
     1  C   -0.227027  -0.038100
     2  H    0.251110   0.011935
     3  H    0.251110   0.011935
     4  C    0.575364   0.136514
     5  C   -0.267327   0.114218
     6  H    0.256713   0.014103
     7  H    0.256713   0.014103
     8  C   -0.096655   2.735291
 Sum of Mulliken charges =   1.00000   3.00000

 Dipole moment (field-independent basis, Debye):
    X=              1.7971    Y=              1.1010    Z=              0.0002  Tot=              2.1076
 Quadrupole moment (field-independent basis, Debye-Ang):
   XX=             -8.3820   YY=            -20.6866   ZZ=            -18.8552
   XY=             -2.5802   XZ=              0.0010   YZ=             -0.0003

  Exact polarizability:  92.377   2.531  33.480   0.006   0.000  30.557
 Approx polarizability: 149.373   4.471  48.450   0.011   0.001  44.396

                      1                      2                      3
                      A                      A                      A
 Frequencies --     59.8566               207.0051               271.5599
 Red. masses --      1.1912                 5.0070                 1.4002
 Frc consts  --      0.0025                 0.1264                 0.0608
 IR Inten    --     18.8834                 1.1600                 1.1623

                      4                      5                      6
                      A                      A                      A
 Frequencies --    523.3964               551.3082               834.5453
 Red. masses --      1.4986                 6.3049                 1.9578
 Frc consts  --      0.2419                 1.1291                 0.8034
 IR Inten    --      0.0623                29.9576                13.5722

                      7                      8                      9
                      A                      A                      A
 Frequencies --    871.2203               878.6168              1027.2215
 Red. masses --      3.4499                 1.4092                 2.3332
 Frc consts  --      1.5428                 0.6409                 1.4506
 IR Inten    --     18.5818                52.4791               182.8616

                     10                     11                     12
                      A                      A                      A
 Frequencies --   1104.3989              1154.3260              1216.6152
 Red. masses --      1.1874                 1.6746                 1.1631
 Frc consts  --      0.8533                 1.3147                 1.0143
 IR Inten    --      0.0690                 6.8799               101.8356

                     13                     14                     15
                      A                      A                      A
 Frequencies --   1293.3177              1879.2908              2874.7946
 Red. masses --      1.1552                 9.0976                 1.0607
 Frc consts  --      1.1385                18.9307                 5.1648
 IR Inten    --     33.9783               115.1855               120.7476

                     16                     17                     18
                      A                      A                      A
 Frequencies --   2879.7914              3050.9517              3112.2516
 Red. masses --      1.0844                 1.0628                 1.1095
 Frc consts  --      5.2988                 5.8286                 6.3318
 IR Inten    --     64.3804               204.5925                96.4259

 - Thermochemistry -
 -------------------
 Temperature   298.150 Kelvin.  Pressure   1.00000 Atm.
 Atom     1 has atomic number  6 and mass  12.00000

 Molecular mass:    52.03130 amu.
 Principal axes and moments of inertia in atomic units:
                           1         2         3
     Eigenvalues --    47.12442 384.48505 408.46958
           X            0.99933  -0.03660  -0.00010
           Y            0.03660   0.99933  -0.00003
           Z            0.00010   0.00003   1.00000
 This molecule is an asymmetric top.
 Rotational symmetry number  1.
 Rotational temperatures (Kelvin)      1.83798     0.22527     0.21204
 Rotational constants (GHZ):          38.29736     4.69392     4.41830
 Zero-point vibrational energy     142298.6 (Joules/Mol)
                                   34.01018 (Kcal/Mol)
 Warning -- explicit consideration of   5 degrees of freedom as
           vibrations may cause significant error
 Vibrational temperatures:     86.12   297.83   390.71   753.05   793.21
          (Kelvin)           1200.72  1253.49  1264.13  1477.94  1588.98
                             1660.82  1750.44  1860.79  2703.88  4136.18
                             4143.37  4389.63  4477.83

 Zero-point correction=                           0.054199 (Hartree/Particle)
 Thermal correction to Energy=                    0.059542
 Thermal correction to Enthalpy=                  0.060486
 Thermal correction to Gibbs Free Energy=         0.025298
 Sum of electronic and zero-point Energies=           -154.195215
 Sum of electronic and thermal Energies=              -154.189871
 Sum of electronic and thermal Enthalpies=            -154.188927
 Sum of electronic and thermal Free Energies=         -154.224115

                     E (Thermal)             CV                S
                      KCal/Mol        Cal/Mol-Kelvin    Cal/Mol-Kelvin
 Total                   37.363             16.718             74.060
 Electronic               0.000              0.000              2.755
 Translational            0.889              2.981             37.771
 Rotational               0.889              2.981             23.519
 Vibrational             35.586             10.757             10.015
 Vibration     1          0.597              1.973              4.462
 Vibration     2          0.641              1.830              2.070
 Vibration     3          0.675              1.726              1.586
 Vibration     4          0.878              1.198              0.602
 Vibration     5          0.907              1.137              0.541

 Optimization completed.
    -- Stationary point found.
 Normal termination of Gaussian 09 at Wed Jul 20 01:38:48 2016.
