 Gaussian 09, Revision E.01,
 Gaussian 09:  EM64L-G09RevE.01 30-Nov-2015

 ---------------------------------------------
 #p b3lyp/6-311++G(3df,2p) freq symmetry=Loose
 ---------------------------------------------

 ---------
 b3lyp opt
 ---------
 Symbolic Z-matrix:
 Charge =  2 Multiplicity = 1

                         Standard orientation:
 ---------------------------------------------------------------------
 Center     Atomic      Atomic             Coordinates (Angstroms)
 Number     Number       Type             X           Y           Z
 ---------------------------------------------------------------------
      1          6           0        0.000000    0.966155    0.195281
      2          1           0        0.000000    1.953573    0.669928
      3          6           0       -0.966155    0.000000   -0.195281
      4          1           0       -1.953573    0.000000   -0.669928
      5          6           0        0.000000   -0.966155    0.195281
      6          1           0        0.000000   -1.953573    0.669928
      7          6           0        0.966155   -0.000000   -0.195281
      8          1           0        1.953573   -0.000000   -0.669928
 ---------------------------------------------------------------------

 SCF Done:  E(RB3LYP) =  -153.912124701     A.U. after    8 cycles

 The electronic state is 1-A1.
 Alpha  occ. eigenvalues --  -10.78397 -10.78354 -10.78354 -10.78308  -1.49522
 Alpha  occ. eigenvalues --   -1.18204  -1.18204  -1.04760  -1.04457  -0.94459
 Alpha  occ. eigenvalues --   -0.92440  -0.92440  -0.89805
 Alpha virt. eigenvalues --   -0.59594  -0.59594  -0.51849  -0.33600  -0.33349
 Alpha virt. eigenvalues --   -0.33349  -0.32702  -0.31605  -0.27471  -0.26413
 Alpha virt. eigenvalues --   -0.26340  -0.26340  -0.25202  -0.22477  -0.22477

 Mulliken charges:
               1
     1  C    0.156199
     2  H    0.343801
     3  C    0.156199
     4  H    0.343801
     5  C    0.156199
     6  H    0.343801
     7  C    0.156199
     8  H    0.343801
 Sum of Mulliken charges =   2.00000

 Dipole moment (field-independent basis, Debye):
    X=              0.0000    Y=              0.0000    Z=              0.0000  Tot=              0.0000
 Quadrupole moment (field-independent basis, Debye-Ang):
   XX=             -6.7835   YY=             -6.7835   ZZ=            -16.5619
   XY=             -0.0000   XZ=             -0.0000   YZ=             -0.0000

  Exact polarizability:  34.278  -0.000  34.278  -0.000  -0.000  20.712
 Approx polarizability:  57.784  -0.000  57.784   0.000   0.000  30.975

                      1                      2                      3
                     A1                     B2                      E
 Frequencies --    393.9867               551.3922               912.7051
 Red. masses --      2.2598                 1.7692                 1.2795
 Frc consts  --      0.2067                 0.3169                 0.6280
 IR Inten    --      0.0000                16.4609                 0.5915

                      4                      5                      6
                      E                     B1                     A1
 Frequencies --    912.7051               995.6411              1018.6731
 Red. masses --      1.2795                 1.8915                 1.5828
 Frc consts  --      0.6280                 1.1047                 0.9677
 IR Inten    --      0.5915                 0.0000                 0.0000

                      7                      8                      9
                     B2                     B1                      E
 Frequencies --   1023.5937              1049.0052              1077.5523
 Red. masses --      1.9313                 1.8285                 1.2850
 Frc consts  --      1.1922                 1.1855                 0.8791
 IR Inten    --     64.5078                 0.0000                19.1352

                     10                     11                     12
                      E                     A2                     A1
 Frequencies --   1077.5523              1170.7056              1355.5420
 Red. masses --      1.2850                 1.3159                 5.2125
 Frc consts  --      0.8791                 1.0626                 5.6431
 IR Inten    --     19.1352                 0.0000                 0.0000

                     13                     14                     15
                      E                      E                     B2
 Frequencies --   1383.7420              1383.7420              3085.9977
 Red. masses --      3.6739                 3.6739                 1.0937
 Frc consts  --      4.1446                 4.1446                 6.1365
 IR Inten    --    137.2789               137.2789               110.2979

                     16                     17                     18
                      E                      E                     A1
 Frequencies --   3099.9548              3099.9548              3125.9178
 Red. masses --      1.1091                 1.1091                 1.1299
 Frc consts  --      6.2797                 6.2797                 6.5052
 IR Inten    --    333.2776               333.2776                 0.0000

 - Thermochemistry -
 -------------------
 Temperature   298.150 Kelvin.  Pressure   1.00000 Atm.
 Atom     1 has atomic number  6 and mass  12.00000

 Molecular mass:    52.03130 amu.
 Principal axes and moments of inertia in atomic units:
                           1         2         3
     Eigenvalues --   120.47097 120.47097 214.94652
           X            0.98936  -0.14550   0.00000
           Y            0.14550   0.98936   0.00000
           Z            0.00000  -0.00000   1.00000
 This molecule is an oblate symmetric top.
 Rotational symmetry number  4.
 Rotational temperatures (Kelvin)      0.71896     0.71896     0.40296
 Rotational constants (GHZ):          14.98071    14.98071     8.39623
 Zero-point vibrational energy     159811.3 (Joules/Mol)
                                   38.19582 (Kcal/Mol)
 Warning -- explicit consideration of   2 degrees of freedom as
           vibrations may cause significant error
 Vibrational temperatures:    566.86   793.33  1313.18  1313.18  1432.50
          (Kelvin)           1465.64  1472.72  1509.28  1550.36  1550.36
                             1684.38  1950.32  1990.89  1990.89  4440.06
                             4460.14  4460.14  4497.49

 Zero-point correction=                           0.060869 (Hartree/Particle)
 Thermal correction to Energy=                    0.064542
 Thermal correction to Enthalpy=                  0.065487
 Thermal correction to Gibbs Free Energy=         0.036952
 Sum of electronic and zero-point Energies=           -153.851256
 Sum of electronic and thermal Energies=              -153.847582
 Sum of electronic and thermal Enthalpies=            -153.846638
 Sum of electronic and thermal Free Energies=         -153.875172

                     E (Thermal)             CV                S
                      KCal/Mol        Cal/Mol-Kelvin    Cal/Mol-Kelvin
 Total                   40.501             12.137             60.055
 Electronic               0.000              0.000              0.000
 Translational            0.889              2.981             37.771
 Rotational               0.889              2.981             19.906
 Vibrational             38.724              6.175              2.379
 Vibration     1          0.761              1.483              0.985
 Vibration     2          0.907              1.137              0.541

 Optimization completed.
    -- Stationary point found.
 Normal termination of Gaussian 09 at Tue Jul 19 17:43:36 2016.
