 Gaussian 09, Revision E.01,
 Gaussian 09:  EM64L-G09RevE.01 30-Nov-2015

 ---------------------------------------------
 #p b3lyp/6-311++G(3df,2p) freq symmetry=Loose
 ---------------------------------------------

 ---------
 b3lyp opt
 ---------
 Symbolic Z-matrix:
 Charge =  1 Multiplicity = 2

                         Standard orientation:
 ---------------------------------------------------------------------
 Center     Atomic      Atomic             Coordinates (Angstroms)
 Number     Number       Type             X           Y           Z
 ---------------------------------------------------------------------
      1          6           0       -0.000000    1.027908    0.000000
      2          1           0       -0.959301    1.531617    0.000000
      3          1           0        0.851174    1.709302    0.000000
      4          6           0       -0.440940   -1.071523   -0.000000
      5          6           0        0.105779   -0.188171    0.903594
      6          1           0        0.742138   -0.360577    1.765833
      7          6           0        0.105779   -0.188171   -0.903594
      8          1           0        0.742138   -0.360577   -1.765833
 ---------------------------------------------------------------------

 SCF Done:  E(UB3LYP) =  -154.399052977     A.U. after   14 cycles

 The electronic state is 2-A'.
 Alpha  occ. eigenvalues --  -10.50765 -10.50762 -10.49919 -10.45011  -1.20535
 Alpha  occ. eigenvalues --   -0.93855  -0.90400  -0.80054  -0.73512  -0.68848
 Alpha  occ. eigenvalues --   -0.67334  -0.62059  -0.59037  -0.53260
 Alpha virt. eigenvalues --   -0.30926  -0.28444  -0.15629  -0.14861  -0.14255
 Alpha virt. eigenvalues --   -0.12078  -0.10109  -0.08698  -0.07757  -0.07455
 Alpha virt. eigenvalues --   -0.06702  -0.05768  -0.05487  -0.03020  -0.02744

  Beta  occ. eigenvalues --  -10.50655 -10.50654 -10.48280 -10.44863  -1.19358
  Beta  occ. eigenvalues --   -0.92467  -0.89991  -0.79722  -0.71442  -0.67860
  Beta  occ. eigenvalues --   -0.66253  -0.61871  -0.57121
  Beta virt. eigenvalues --   -0.37666  -0.30697  -0.26401  -0.15439  -0.14701
  Beta virt. eigenvalues --   -0.14187  -0.11583  -0.09910  -0.08666  -0.07461
  Beta virt. eigenvalues --   -0.07387  -0.06625  -0.05436  -0.05320  -0.02643

 Mulliken charges and spin densities:
               1          2
     1  C   -0.399453   0.060741
     2  H    0.249184  -0.005221
     3  H    0.173041   0.036611
     4  C    0.069959   0.996441
     5  C    0.195665  -0.046999
     6  H    0.257970   0.002713
     7  C    0.195665  -0.046999
     8  H    0.257970   0.002713
 Sum of Mulliken charges =   1.00000   1.00000

 Dipole moment (field-independent basis, Debye):
    X=              1.1255    Y=              0.4660    Z=             -0.0000  Tot=              1.2182
 Quadrupole moment (field-independent basis, Debye-Ang):
   XX=            -19.5966   YY=            -17.6880   ZZ=            -14.6262
   XY=             -0.3536   XZ=             -0.0000   YZ=              0.0000

  Exact polarizability:  28.573   3.629  39.806   0.000   0.000  38.282
 Approx polarizability:  43.309   8.810  62.053   0.000   0.000  65.961

                      1                      2                      3
                     A'                     A'                     A"
 Frequencies --    372.6937               681.4947               741.9594
 Red. masses --      2.3793                 2.2979                 4.6513
 Frc consts  --      0.1947                 0.6288                 1.5086
 IR Inten    --      6.8442                 1.3011                 0.2810

                      4                      5                      6
                     A'                     A"                     A'
 Frequencies --    960.8877               964.6190               970.4267
 Red. masses --      1.5528                 1.1953                 1.8387
 Frc consts  --      0.8447                 0.6553                 1.0202
 IR Inten    --     11.1897                 0.9318                22.0036

                      7                      8                      9
                     A"                     A'                     A"
 Frequencies --   1027.9285              1066.7241              1139.4875
 Red. masses --      1.2369                 1.7105                 1.1893
 Frc consts  --      0.7701                 1.1468                 0.9098
 IR Inten    --      7.3748                 0.4593                 8.4702

                     10                     11                     12
                     A"                     A'                     A"
 Frequencies --   1160.9937              1214.9583              1332.9303
 Red. masses --      1.3601                 2.0867                 4.0188
 Frc consts  --      1.0801                 1.8148                 4.2069
 IR Inten    --      2.1175                23.8324                31.0992

                     13                     14                     15
                     A'                     A'                     A'
 Frequencies --   1430.0974              1505.6540              3069.9173
 Red. masses --      2.0069                 1.7505                 1.0605
 Frc consts  --      2.4183                 2.3381                 5.8886
 IR Inten    --      1.3187                 6.0160                19.8265

                     16                     17                     18
                     A'                     A"                     A'
 Frequencies --   3176.4902              3180.4481              3181.5587
 Red. masses --      1.1090                 1.0968                 1.0990
 Frc consts  --      6.5928                 6.5366                 6.5542
 IR Inten    --     11.0285                62.7433                27.1676

 - Thermochemistry -
 -------------------
 Temperature   298.150 Kelvin.  Pressure   1.00000 Atm.
 Atom     1 has atomic number  6 and mass  12.00000

 Molecular mass:    52.03130 amu.
 Principal axes and moments of inertia in atomic units:
                           1         2         3
     Eigenvalues --   108.81750 136.02628 212.05207
           X            0.16024   0.00000   0.98708
           Y            0.98708   0.00000  -0.16024
           Z           -0.00000   1.00000  -0.00000
 This molecule is an asymmetric top.
 Rotational symmetry number  1.
 Rotational temperatures (Kelvin)      0.79595     0.63674     0.40846
 Rotational constants (GHZ):          16.58503    13.26759     8.51084
 Zero-point vibrational energy     162568.1 (Joules/Mol)
                                   38.85472 (Kcal/Mol)
 Warning -- explicit consideration of   1 degrees of freedom as
           vibrations may cause significant error
 Vibrational temperatures:    536.22   980.52  1067.51  1382.50  1387.87
          (Kelvin)           1396.23  1478.96  1534.78  1639.47  1670.41
                             1748.05  1917.79  2057.59  2166.30  4416.92
                             4570.26  4575.95  4577.55

 Zero-point correction=                           0.061919 (Hartree/Particle)
 Thermal correction to Energy=                    0.065571
 Thermal correction to Enthalpy=                  0.066515
 Thermal correction to Gibbs Free Energy=         0.036040
 Sum of electronic and zero-point Energies=           -154.337134
 Sum of electronic and thermal Energies=              -154.333482
 Sum of electronic and thermal Enthalpies=            -154.332538
 Sum of electronic and thermal Free Energies=         -154.363013

                     E (Thermal)             CV                S
                      KCal/Mol        Cal/Mol-Kelvin    Cal/Mol-Kelvin
 Total                   41.147             11.991             64.141
 Electronic               0.000              0.000              1.377
 Translational            0.889              2.981             37.771
 Rotational               0.889              2.981             22.667
 Vibrational             39.369              6.029              2.327
 Vibration     1          0.744              1.528              1.069

 Optimization completed.
    -- Stationary point found.
 Normal termination of Gaussian 09 at Tue Jul 19 23:38:03 2016.
