 Gaussian 09, Revision E.01,
 Gaussian 09:  EM64L-G09RevE.01 30-Nov-2015

 ---------------------------------------------
 #p b3lyp/6-311++G(3df,2p) freq symmetry=Loose
 ---------------------------------------------

 ---------
 b3lyp opt
 ---------
 Symbolic Z-matrix:
 Charge =  3 Multiplicity = 2

                         Standard orientation:
 ---------------------------------------------------------------------
 Center     Atomic      Atomic             Coordinates (Angstroms)
 Number     Number       Type             X           Y           Z
 ---------------------------------------------------------------------
      1          6           0       -1.654928   -0.263484    0.000186
      2          1           0       -2.782405    0.254493   -0.000658
      3          1           0       -1.956727   -0.654791    1.046030
      4          1           0       -1.957030   -0.657069   -1.044724
      5          6           0       -0.341325    0.401940   -0.000241
      6          1           0       -0.415141    1.552930   -0.000077
      7          6           0        0.952689    0.006720   -0.000296
      8          6           0        2.228781   -0.227770    0.000256
 ---------------------------------------------------------------------

 SCF Done:  E(UB3LYP) =  -152.839651689     A.U. after   22 cycles

 The electronic state is 2-A.
 Alpha  occ. eigenvalues --  -11.12451 -11.03897 -11.03405 -10.97239  -1.60175
 Alpha  occ. eigenvalues --   -1.52442  -1.41038  -1.24431  -1.20429  -1.16364
 Alpha  occ. eigenvalues --   -1.15574  -1.08939  -1.08359
 Alpha virt. eigenvalues --   -0.91440  -0.88811  -0.77169  -0.67811  -0.59697
 Alpha virt. eigenvalues --   -0.55160  -0.53871  -0.48547  -0.46580  -0.44923
 Alpha virt. eigenvalues --   -0.42700  -0.41747  -0.40004  -0.39965  -0.39595

  Beta  occ. eigenvalues --  -11.08770 -11.04086 -11.02658 -10.98179  -1.58492
  Beta  occ. eigenvalues --   -1.50133  -1.42062  -1.25292  -1.20956  -1.18231
  Beta  occ. eigenvalues --   -1.07276  -1.06066
  Beta virt. eigenvalues --   -0.92680  -0.89472  -0.86534  -0.68622  -0.64730
  Beta virt. eigenvalues --   -0.62628  -0.55438  -0.54922  -0.48347  -0.47157
  Beta virt. eigenvalues --   -0.45332  -0.42546  -0.42237  -0.40914  -0.40149

 Mulliken charges and spin densities:
               1          2
     1  C   -0.170495  -0.582957
     2  H    0.401960  -0.224439
     3  H    0.371504  -0.057023
     4  H    0.371457  -0.057258
     5  C    0.117050  -0.151873
     6  H    0.334416   0.006978
     7  C    0.932767   0.494265
     8  C    0.641342   1.572307
 Sum of Mulliken charges =   3.00000   1.00000

 Dipole moment (field-independent basis, Debye):
    X=             -2.4674    Y=              0.1745    Z=              0.0003  Tot=              2.4736
 Quadrupole moment (field-independent basis, Debye-Ang):
   XX=             36.5172   YY=            -11.5344   ZZ=            -14.5978
   XY=             -0.6695   XZ=              0.0036   YZ=              0.0021

  Exact polarizability:  70.461  -2.446  24.759   0.001   0.001  22.771
 Approx polarizability: 134.137 -10.859  38.105   0.006   0.001  32.349

                      1                      2                      3
                      A                      A                      A
 Frequencies --    189.8073               213.8584               277.1345
 Red. masses --      1.2722                 4.2591                 1.9720
 Frc consts  --      0.0270                 0.1148                 0.0892
 IR Inten    --     50.6267                23.2267                68.1937

                      4                      5                      6
                      A                      A                      A
 Frequencies --    349.4250               508.8229               624.7916
 Red. masses --      1.6197                 4.5932                 1.2870
 Frc consts  --      0.1165                 0.7007                 0.2960
 IR Inten    --    196.0906                 6.7350                 5.3749

                      7                      8                      9
                      A                      A                      A
 Frequencies --    737.5917               778.6285               975.4169
 Red. masses --      1.9363                 2.3140                 1.2107
 Frc consts  --      0.6207                 0.8266                 0.6787
 IR Inten    --     45.2333                21.3409                29.6759

                     10                     11                     12
                      A                      A                      A
 Frequencies --   1000.5582              1012.1103              1168.4361
 Red. masses --      1.4959                 1.0863                 1.4889
 Frc consts  --      0.8823                 0.6556                 1.1977
 IR Inten    --     32.9092                 1.6602               139.8335

                     13                     14                     15
                      A                      A                      A
 Frequencies --   1261.6870              1781.5744              1805.3416
 Red. masses --      2.9577                 1.0818                10.6342
 Frc consts  --      2.7740                 2.0230                20.4209
 IR Inten    --     61.2086               713.0235               355.3208

                     16                     17                     18
                      A                      A                      A
 Frequencies --   2460.5993              2497.3512              2513.8574
 Red. masses --      1.0515                 1.0605                 1.1106
 Frc consts  --      3.7508                 3.8969                 4.1350
 IR Inten    --    762.5085               561.1599               559.6141

 - Thermochemistry -
 -------------------
 Temperature   298.150 Kelvin.  Pressure   1.00000 Atm.
 Atom     1 has atomic number  6 and mass  12.00000

 Molecular mass:    52.03130 amu.
 Principal axes and moments of inertia in atomic units:
                           1         2         3
     Eigenvalues --    31.94105 434.65793 450.86678
           X            0.99995   0.01009  -0.00000
           Y           -0.01009   0.99995   0.00027
           Z            0.00000  -0.00027   1.00000
 This molecule is an asymmetric top.
 Rotational symmetry number  1.
 Rotational temperatures (Kelvin)      2.71168     0.19927     0.19211
 Rotational constants (GHZ):          56.50225     4.15210     4.00283
 Zero-point vibrational energy     120565.6 (Joules/Mol)
                                   28.81587 (Kcal/Mol)
 Warning -- explicit consideration of   5 degrees of freedom as
           vibrations may cause significant error
 Vibrational temperatures:    273.09   307.69   398.73   502.74   732.08
          (Kelvin)            898.93  1061.23  1120.27  1403.41  1439.58
                             1456.20  1681.12  1815.28  2563.29  2597.48
                             3540.25  3593.13  3616.88

 Zero-point correction=                           0.045921 (Hartree/Particle)
 Thermal correction to Energy=                    0.051377
 Thermal correction to Enthalpy=                  0.052321
 Thermal correction to Gibbs Free Energy=         0.018411
 Sum of electronic and zero-point Energies=           -152.793731
 Sum of electronic and thermal Energies=              -152.788275
 Sum of electronic and thermal Enthalpies=            -152.787331
 Sum of electronic and thermal Free Energies=         -152.821240

                     E (Thermal)             CV                S
                      KCal/Mol        Cal/Mol-Kelvin    Cal/Mol-Kelvin
 Total                   32.239             18.180             71.368
 Electronic               0.000              0.000              1.377
 Translational            0.889              2.981             37.771
 Rotational               0.889              2.981             23.352
 Vibrational             30.462             12.219              8.868
 Vibration     1          0.633              1.854              2.230
 Vibration     2          0.644              1.820              2.010
 Vibration     3          0.678              1.716              1.551
 Vibration     4          0.727              1.576              1.169
 Vibration     5          0.864              1.230              0.636

 Optimization completed.
    -- Stationary point found.
 Normal termination of Gaussian 09 at Wed Jun 22 00:19:53 2016.
