 Gaussian 09, Revision E.01,
 Gaussian 09:  EM64L-G09RevE.01 30-Nov-2015

 ---------------------------------------------
 #p b3lyp/6-311++G(3df,2p) freq symmetry=Loose
 ---------------------------------------------

 ---------
 b3lyp opt
 ---------
 Symbolic Z-matrix:
 Charge =  0 Multiplicity = 1

                         Standard orientation:
 ---------------------------------------------------------------------
 Center     Atomic      Atomic             Coordinates (Angstroms)
 Number     Number       Type             X           Y           Z
 ---------------------------------------------------------------------
      1          6           0       -1.228764   -0.002268    0.186033
      2          1           0       -1.522630   -0.012715    1.238194
      3          6           0        0.000014    0.685407   -0.300902
      4          1           0        2.055607    0.004413   -0.509300
      5          6           0        0.000014   -0.678104   -0.314232
      6          1           0       -2.055561    0.004413   -0.509486
      7          6           0        1.228747   -0.002268    0.186144
      8          1           0        1.522517   -0.012715    1.238332
 ---------------------------------------------------------------------

 SCF Done:  E(RB3LYP) =  -154.680560460     A.U. after   10 cycles

 The electronic state is 1-A.
 Alpha  occ. eigenvalues --  -10.22940 -10.22938 -10.21075 -10.21004  -0.96435
 Alpha  occ. eigenvalues --   -0.73843  -0.59760  -0.49943  -0.48717  -0.48030
 Alpha  occ. eigenvalues --   -0.42018  -0.33631  -0.28524  -0.27094
 Alpha virt. eigenvalues --   -0.08766  -0.00328   0.01181   0.01899   0.03254
 Alpha virt. eigenvalues --    0.04284   0.05479   0.05617   0.07633   0.08337
 Alpha virt. eigenvalues --    0.10934   0.10938   0.11392   0.12326   0.12338

 Mulliken charges:
               1
     1  C   -0.240389
     2  H    0.136737
     3  C   -0.048575
     4  H    0.150478
     5  C   -0.045079
     6  H    0.150478
     7  C   -0.240388
     8  H    0.136737
 Sum of Mulliken charges =  -0.00000

 Dipole moment (field-independent basis, Debye):
    X=             -0.0000    Y=             -0.0152    Z=              0.8435  Tot=              0.8436
 Quadrupole moment (field-independent basis, Debye-Ang):
   XX=            -20.3720   YY=            -28.9869   ZZ=            -23.9051
   XY=              0.0000   XZ=              0.0002   YZ=             -0.0477

  Exact polarizability:  52.026  -0.000  41.481   0.006   0.030  37.679
 Approx polarizability:  73.061  -0.000  84.246   0.001   0.287  54.216

                      1                      2                      3
                      A                      A                      A
 Frequencies --    366.9987               400.2307               712.5200
 Red. masses --      2.2849                 7.5459                 1.9432
 Frc consts  --      0.1813                 0.7122                 0.5812
 IR Inten    --      3.6699               141.0824                 0.0009

                      4                      5                      6
                      A                      A                      A
 Frequencies --    930.1716               935.1230              1067.8095
 Red. masses --      5.4930                 1.2286                 1.2391
 Frc consts  --      2.8002                 0.6330                 0.8325
 IR Inten    --     15.7228                 1.7786                 0.7369

                      7                      8                      9
                      A                      A                      A
 Frequencies --   1072.5324              1108.5435              1134.9415
 Red. masses --      1.1625                 1.2502                 1.4815
 Frc consts  --      0.7879                 0.9052                 1.1243
 IR Inten    --     14.7202                 0.0001                 1.2768

                     10                     11                     12
                      A                      A                      A
 Frequencies --   1160.7185              1334.2767              1411.2013
 Red. masses --      1.8004                 5.9412                 3.4584
 Frc consts  --      1.4291                 6.2319                 4.0579
 IR Inten    --      0.0025                30.9344                 1.8254

                     13                     14                     15
                      A                      A                      A
 Frequencies --   1515.1065              1557.0818              3026.3212
 Red. masses --      1.1271                 1.3872                 1.0651
 Frc consts  --      1.5244                 1.9815                 5.7475
 IR Inten    --      4.2585                 1.9830                68.1040

                     16                     17                     18
                      A                      A                      A
 Frequencies --   3027.5570              3184.6980              3187.1075
 Red. masses --      1.0681                 1.0996                 1.1025
 Frc consts  --      5.7682                 6.5708                 6.5980
 IR Inten    --     65.7227                 3.0987                 3.2915

 - Thermochemistry -
 -------------------
 Temperature   298.150 Kelvin.  Pressure   1.00000 Atm.
 Atom     1 has atomic number  6 and mass  12.00000

 Molecular mass:    52.03130 amu.
 Principal axes and moments of inertia in atomic units:
                           1         2         3
     Eigenvalues --    63.67809 200.34205 216.34206
           X            1.00000  -0.00000  -0.00005
           Y           -0.00000   0.99997  -0.00807
           Z            0.00005   0.00807   0.99997
 This molecule is an asymmetric top.
 Rotational symmetry number  1.
 Rotational temperatures (Kelvin)      1.36018     0.43233     0.40036
 Rotational constants (GHZ):          28.34164     9.00830     8.34207
 Zero-point vibrational energy     162291.0 (Joules/Mol)
                                   38.78848 (Kcal/Mol)
 Warning -- explicit consideration of   2 degrees of freedom as
           vibrations may cause significant error
 Vibrational temperatures:    528.03   575.84  1025.16  1338.31  1345.43
          (Kelvin)           1536.34  1543.13  1594.94  1632.93  1670.01
                             1919.72  2030.40  2179.90  2240.29  4354.20
                             4355.97  4582.06  4585.53

 Zero-point correction=                           0.061813 (Hartree/Particle)
 Thermal correction to Energy=                    0.065648
 Thermal correction to Enthalpy=                  0.066592
 Thermal correction to Gibbs Free Energy=         0.036533
 Sum of electronic and zero-point Energies=           -154.618747
 Sum of electronic and thermal Energies=              -154.614913
 Sum of electronic and thermal Enthalpies=            -154.613968
 Sum of electronic and thermal Free Energies=         -154.644028

                     E (Thermal)             CV                S
                      KCal/Mol        Cal/Mol-Kelvin    Cal/Mol-Kelvin
 Total                   41.195             12.427             63.265
 Electronic               0.000              0.000              0.000
 Translational            0.889              2.981             37.771
 Rotational               0.889              2.981             22.539
 Vibrational             39.417              6.465              2.956
 Vibration     1          0.740              1.540              1.092
 Vibration     2          0.766              1.470              0.962

 Normal termination of Gaussian 09 at Tue Jul 19 19:01:39 2016.
