 Gaussian 09, Revision E.01,
 Gaussian 09:  EM64L-G09RevE.01 30-Nov-2015

 ---------------------------------------------
 #p b3lyp/6-311++G(3df,2p) freq symmetry=Loose
 ---------------------------------------------

 ---------
 b3lyp opt
 ---------
 Symbolic Z-matrix:
 Charge =  0 Multiplicity = 1

                         Standard orientation:
 ---------------------------------------------------------------------
 Center     Atomic      Atomic             Coordinates (Angstroms)
 Number     Number       Type             X           Y           Z
 ---------------------------------------------------------------------
      1          6           0        0.000000    0.664708    0.787162
      2          1           0        0.000000    1.429507    1.548248
      3          6           0        0.000000    0.664708   -0.787162
      4          1           0        0.000000    1.429507   -1.548248
      5          6           0       -0.000000   -0.664708    0.787162
      6          6           0       -0.000000   -0.664708   -0.787162
      7          1           0       -0.000000   -1.429507   -1.548248
      8          1           0       -0.000000   -1.429507    1.548248
 ---------------------------------------------------------------------

 SCF Done:  E(RB3LYP) =  -154.731987778     A.U. after    9 cycles

 The electronic state is 1-AG.
 Alpha  occ. eigenvalues --  -10.18577 -10.18565 -10.18500 -10.18483  -0.87285
 Alpha  occ. eigenvalues --   -0.67409  -0.61030  -0.52163  -0.51619  -0.40187
 Alpha  occ. eigenvalues --   -0.39523  -0.36122  -0.32211  -0.20000
 Alpha virt. eigenvalues --   -0.06949   0.00098   0.01063   0.01421   0.03358
 Alpha virt. eigenvalues --    0.05943   0.06422   0.07404   0.07481   0.07766
 Alpha virt. eigenvalues --    0.09455   0.09908   0.11046   0.12069   0.12551

 Mulliken charges:
               1
     1  C   -0.202806
     2  H    0.202806
     3  C   -0.202806
     4  H    0.202806
     5  C   -0.202806
     6  C   -0.202806
     7  H    0.202806
     8  H    0.202806
 Sum of Mulliken charges =  -0.00000

 Dipole moment (field-independent basis, Debye):
    X=             -0.0000    Y=              0.0000    Z=              0.0000  Tot=              0.0000
 Quadrupole moment (field-independent basis, Debye-Ang):
   XX=            -27.1629   YY=            -21.0572   ZZ=            -22.6632
   XY=              0.0000   XZ=             -0.0000   YZ=             -0.0000

  Exact polarizability:  33.858   0.000  52.422  -0.000   0.000  47.320
 Approx polarizability:  48.451   0.000  93.586  -0.000  -0.000  61.214

                      1                      2                      3
                     AU                     B3U                    B2G
 Frequencies --    534.3410               589.2284               603.2306
 Red. masses --      2.5195                 1.0848                 1.2998
 Frc consts  --      0.4238                 0.2219                 0.2787
 IR Inten    --      0.0000               138.9826                 0.0000

                      4                      5                      6
                     B2U                    B3G                    AU
 Frequencies --    700.5928               848.9363               882.6356
 Red. masses --      2.6168                 5.9245                 1.4735
 Frc consts  --      0.7567                 2.5157                 0.6763
 IR Inten    --      9.4494                 0.0000                 0.0000

                      7                      8                      9
                     B1G                    AG                     B1U
 Frequencies --    897.0126               953.9842              1062.4426
 Red. masses --      1.3551                 1.8409                 1.0934
 Frc consts  --      0.6424                 0.9871                 0.7272
 IR Inten    --      0.0000                 0.0000                 0.0834

                     10                     11                     12
                     AG                     B3G                    B2U
 Frequencies --   1112.7285              1194.7470              1266.0249
 Red. masses --      1.7559                 1.3572                 1.4400
 Frc consts  --      1.2809                 1.1414                 1.3598
 IR Inten    --      0.0000                 0.0000                39.1908

                     13                     14                     15
                     AG                     B1U                    B3G
 Frequencies --   1621.4659              1628.2859              3192.9694
 Red. masses --      6.8904                 5.4365                 1.0800
 Frc consts  --     10.6736                 8.4925                 6.4876
 IR Inten    --      0.0000                 7.8595                 0.0000

                     16                     17                     18
                     B2U                    B1U                    AG
 Frequencies --   3208.3220              3229.6578              3239.5283
 Red. masses --      1.0860                 1.1125                 1.1194
 Frc consts  --      6.5865                 6.8370                 6.9218
 IR Inten    --     11.0610                15.3725                 0.0000

 - Thermochemistry -
 -------------------
 Temperature   298.150 Kelvin.  Pressure   1.00000 Atm.
 Atom     1 has atomic number  6 and mass  12.00000

 Molecular mass:    52.03130 amu.
 Principal axes and moments of inertia in atomic units:
                           1         2         3
     Eigenvalues --   105.15386 140.71875 245.87261
           X            0.00000  -0.00000   1.00000
           Y            0.00000   1.00000   0.00000
           Z            1.00000  -0.00000  -0.00000
 This molecule is an asymmetric top.
 Rotational symmetry number  4.
 Rotational temperatures (Kelvin)      0.82369     0.61551     0.35227
 Rotational constants (GHZ):          17.16286    12.82517     7.34015
 Zero-point vibrational energy     160097.0 (Joules/Mol)
                                   38.26411 (Kcal/Mol)
 Warning -- explicit consideration of   3 degrees of freedom as
           vibrations may cause significant error
 Vibrational temperatures:    768.80   847.77   867.91  1008.00  1221.43
          (Kelvin)           1269.91  1290.60  1372.57  1528.62  1600.97
                             1718.97  1821.53  2332.92  2342.74  4593.97
                             4616.05  4646.75  4660.95

 Zero-point correction=                           0.060978 (Hartree/Particle)
 Thermal correction to Energy=                    0.064757
 Thermal correction to Enthalpy=                  0.065701
 Thermal correction to Gibbs Free Energy=         0.036994
 Sum of electronic and zero-point Energies=           -154.671010
 Sum of electronic and thermal Energies=              -154.667231
 Sum of electronic and thermal Enthalpies=            -154.666287
 Sum of electronic and thermal Free Energies=         -154.694994

                     E (Thermal)             CV                S
                      KCal/Mol        Cal/Mol-Kelvin    Cal/Mol-Kelvin
 Total                   40.636             13.129             60.419
 Electronic               0.000              0.000              0.000
 Translational            0.889              2.981             37.771
 Rotational               0.889              2.981             20.058
 Vibrational             38.858              7.167              2.590
 Vibration     1          0.889              1.174              0.578
 Vibration     2          0.947              1.055              0.469
 Vibration     3          0.962              1.025              0.444

 Optimization completed.
    -- Stationary point found.
 Normal termination of Gaussian 09 at Tue Jul 19 18:25:10 2016.
