 Gaussian 09, Revision E.01,
 Gaussian 09:  EM64L-G09RevE.01 30-Nov-2015

 ---------------------------------------------
 #p b3lyp/6-311++G(3df,2p) freq symmetry=Loose
 ---------------------------------------------

 ---------
 b3lyp opt
 ---------
 Symbolic Z-matrix:
 Charge =  0 Multiplicity = 3

                         Standard orientation:
 ---------------------------------------------------------------------
 Center     Atomic      Atomic             Coordinates (Angstroms)
 Number     Number       Type             X           Y           Z
 ---------------------------------------------------------------------
      1          6           0        1.143474   -0.000010    0.131898
      2          6           0        0.000026    0.863305   -0.253507
      3          1           0        2.044336    0.000036   -0.474443
      4          1           0        1.380311   -0.000092    1.205540
      5          1           0       -1.380556   -0.000092    1.205259
      6          6           0        0.000026   -0.863266   -0.253638
      7          6           0       -1.143501   -0.000010    0.131665
      8          1           0       -2.044240    0.000036   -0.474860
 ---------------------------------------------------------------------

 SCF Done:  E(UB3LYP) =  -154.632761961     A.U. after   14 cycles

 The electronic state is 3-A.
 Alpha  occ. eigenvalues --  -10.22691 -10.22683 -10.21864 -10.21860  -0.93881
 Alpha  occ. eigenvalues --   -0.72442  -0.58698  -0.55946  -0.50919  -0.45197
 Alpha  occ. eigenvalues --   -0.41234  -0.38612  -0.30880  -0.24032  -0.21914
 Alpha virt. eigenvalues --   -0.02124  -0.00551   0.01023   0.01829   0.03196
 Alpha virt. eigenvalues --    0.04406   0.05859   0.07463   0.08285   0.09615
 Alpha virt. eigenvalues --    0.10993   0.11565   0.11647   0.12476   0.13194

  Beta  occ. eigenvalues --  -10.21820 -10.21818 -10.21293 -10.21287  -0.91549
  Beta  occ. eigenvalues --   -0.71653  -0.56980  -0.52082  -0.48326  -0.43620
  Beta  occ. eigenvalues --   -0.40450  -0.37379  -0.26125
  Beta virt. eigenvalues --   -0.11756  -0.08233  -0.00314   0.00828   0.01104
  Beta virt. eigenvalues --    0.01965   0.03819   0.04509   0.06115   0.07539
  Beta virt. eigenvalues --    0.08491   0.10874   0.11106   0.11675   0.11957

 Mulliken charges and spin densities:
               1          2
     1  C   -0.184823  -0.037501
     2  C   -0.118728   0.892871
     3  H    0.141249   0.038298
     4  H    0.162301   0.106331
     5  H    0.162301   0.106331
     6  C   -0.118727   0.892871
     7  C   -0.184824  -0.037500
     8  H    0.141250   0.038298
 Sum of Mulliken charges =  -0.00000   2.00000

 Dipole moment (field-independent basis, Debye):
    X=             -0.0001    Y=             -0.0001    Z=              1.3447  Tot=              1.3447
 Quadrupole moment (field-independent basis, Debye-Ang):
   XX=            -20.1779   YY=            -30.5686   ZZ=            -24.3402
   XY=             -0.0000   XZ=              0.0004   YZ=             -0.0005

  Exact polarizability:  50.921   0.003  53.715  -0.002   0.002  40.420
 Approx polarizability:  70.174  -0.000 106.677   0.001   0.004  56.721

                      1                      2                      3
                      A                      A                      A
 Frequencies --    364.1197               629.7856               768.4561
 Red. masses --      1.8668                 3.9327                 7.4496
 Frc consts  --      0.1458                 0.9190                 2.5919
 IR Inten    --     10.8616               118.5959                 2.9517

                      4                      5                      6
                      A                      A                      A
 Frequencies --    821.9338               848.1932               891.5224
 Red. masses --      2.2107                 1.2771                 1.6059
 Frc consts  --      0.8800                 0.5413                 0.7520
 IR Inten    --      0.0000                 1.4790                 0.0000

                      7                      8                      9
                      A                      A                      A
 Frequencies --   1044.5097              1059.2500              1100.6553
 Red. masses --      1.8388                 1.2075                 1.2321
 Frc consts  --      1.1820                 0.7983                 0.8795
 IR Inten    --      1.2013                14.3718                 0.0000

                     10                     11                     12
                      A                      A                      A
 Frequencies --   1111.9099              1136.1589              1215.3425
 Red. masses --      5.0487                 1.2836                 7.1756
 Frc consts  --      3.6777                 0.9763                 6.2446
 IR Inten    --      1.9198                 2.8128                 0.3829

                     13                     14                     15
                      A                      A                      A
 Frequencies --   1421.5735              1442.0951              2932.5583
 Red. masses --      1.0975                 1.1267                 1.0668
 Frc consts  --      1.3068                 1.3805                 5.4053
 IR Inten    --     11.4026                 3.8709                 2.4394

                     16                     17                     18
                      A                      A                      A
 Frequencies --   2944.7471              3122.6800              3122.7176
 Red. masses --      1.0702                 1.0883                 1.0932
 Frc consts  --      5.4676                 6.2527                 6.2810
 IR Inten    --      6.4797                 4.2124                 0.0890

 - Thermochemistry -
 -------------------
 Temperature   298.150 Kelvin.  Pressure   1.00000 Atm.
 Atom     1 has atomic number  6 and mass  12.00000

 Molecular mass:    52.03130 amu.
 Principal axes and moments of inertia in atomic units:
                           1         2         3
     Eigenvalues --    82.80825 174.79849 219.73640
           X            1.00000  -0.00000  -0.00010
           Y           -0.00000   1.00000  -0.00008
           Z            0.00010   0.00008   1.00000
 This molecule is an asymmetric top.
 Rotational symmetry number  1.
 Rotational temperatures (Kelvin)      1.04596     0.49551     0.39417
 Rotational constants (GHZ):          21.79422    10.32470     8.21321
 Zero-point vibrational energy     155384.2 (Joules/Mol)
                                   37.13771 (Kcal/Mol)
 Warning -- explicit consideration of   1 degrees of freedom as
           vibrations may cause significant error
 Vibrational temperatures:    523.89   906.12  1105.64  1182.58  1220.36
          (Kelvin)           1282.70  1502.81  1524.02  1583.60  1599.79
                             1634.68  1748.60  2045.32  2074.85  4219.29
                             4236.83  4492.83  4492.89

 Zero-point correction=                           0.059183 (Hartree/Particle)
 Thermal correction to Energy=                    0.062947
 Thermal correction to Enthalpy=                  0.063891
 Thermal correction to Gibbs Free Energy=         0.032875
 Sum of electronic and zero-point Energies=           -154.573579
 Sum of electronic and thermal Energies=              -154.569815
 Sum of electronic and thermal Enthalpies=            -154.568871
 Sum of electronic and thermal Free Energies=         -154.599887

                     E (Thermal)             CV                S
                      KCal/Mol        Cal/Mol-Kelvin    Cal/Mol-Kelvin
 Total                   39.500             12.716             65.277
 Electronic               0.000              0.000              2.183
 Translational            0.889              2.981             37.771
 Rotational               0.889              2.981             22.680
 Vibrational             37.722              6.754              2.644
 Vibration     1          0.738              1.546              1.104

 Optimization completed.
    -- Stationary point found.
 Normal termination of Gaussian 09 at Tue Jul 19 20:26:25 2016.
