 Gaussian 09, Revision E.01,
 Gaussian 09:  EM64L-G09RevE.01 30-Nov-2015

 ---------------------------------------------
 #p b3lyp/6-311++G(3df,2p) freq symmetry=Loose
 ---------------------------------------------

 ---------
 b3lyp opt
 ---------
 Symbolic Z-matrix:
 Charge =  0 Multiplicity = 3

                         Standard orientation:
 ---------------------------------------------------------------------
 Center     Atomic      Atomic             Coordinates (Angstroms)
 Number     Number       Type             X           Y           Z
 ---------------------------------------------------------------------
      1          6           0       -1.568808   -0.157769   -0.000087
      2          1           0       -1.883710   -1.190442   -0.000009
      3          1           0       -2.331120    0.610415   -0.000211
      4          6           0       -0.263994    0.184031   -0.000035
      5          6           0        1.188354   -0.509895    0.000126
      6          1           0        1.503983   -1.003962   -0.916214
      7          1           0        1.503863   -1.003787    0.916602
      8          6           0        0.845613    0.914930   -0.000033
 ---------------------------------------------------------------------

 SCF Done:  E(UB3LYP) =  -154.675758346     A.U. after   15 cycles

 The electronic state is 3-A.
 Alpha  occ. eigenvalues --  -10.21746 -10.21714 -10.21631 -10.19588  -0.89762
 Alpha  occ. eigenvalues --   -0.75170  -0.62210  -0.51835  -0.47307  -0.47047
 Alpha  occ. eigenvalues --   -0.40988  -0.37969  -0.32658  -0.24775  -0.21624
 Alpha virt. eigenvalues --   -0.00486   0.01136   0.01897   0.02173   0.03834
 Alpha virt. eigenvalues --    0.04963   0.05463   0.07396   0.08262   0.09510
 Alpha virt. eigenvalues --    0.10110   0.10866   0.11730   0.12412   0.13128

  Beta  occ. eigenvalues --  -10.21785 -10.21309 -10.19640 -10.18801  -0.87731
  Beta  occ. eigenvalues --   -0.73187  -0.60312  -0.50470  -0.45909  -0.45888
  Beta  occ. eigenvalues --   -0.36408  -0.35234  -0.29787
  Beta virt. eigenvalues --   -0.12133  -0.09873  -0.00290   0.01232   0.02397
  Beta virt. eigenvalues --    0.02523   0.05233   0.05264   0.05706   0.07527
  Beta virt. eigenvalues --    0.09627   0.10291   0.11021   0.11446   0.12330

 Mulliken charges and spin densities:
               1          2
     1  C   -0.595726   0.608829
     2  H    0.182380  -0.015200
     3  H    0.165525   0.004134
     4  C    0.452059  -0.156538
     5  C   -0.444607   0.238895
     6  H    0.155474   0.021937
     7  H    0.155474   0.021937
     8  C   -0.070580   1.276006
 Sum of Mulliken charges =  -0.00000   2.00000

 Dipole moment (field-independent basis, Debye):
    X=             -0.6143    Y=             -1.4962    Z=              0.0001  Tot=              1.6174
 Quadrupole moment (field-independent basis, Debye-Ang):
   XX=            -22.9247   YY=            -25.0181   ZZ=            -25.5460
   XY=             -1.9067   XZ=              0.0004   YZ=             -0.0002

  Exact polarizability:  68.687   3.009  47.738   0.002  -0.001  35.644
 Approx polarizability: 103.810  12.038  74.232   0.002  -0.002  49.173

                      1                      2                      3
                      A                      A                      A
 Frequencies --    331.1104               368.8747               542.4406
 Red. masses --      2.5512                 3.2575                 1.0433
 Frc consts  --      0.1648                 0.2612                 0.1809
 IR Inten    --      6.5388                 2.1586                 0.6340

                      4                      5                      6
                      A                      A                      A
 Frequencies --    592.0808               762.0555               891.0408
 Red. masses --      5.1201                 1.3150                 1.2338
 Frc consts  --      1.0575                 0.4499                 0.5771
 IR Inten    --     10.1382                48.5785                 0.1136

                      7                      8                      9
                      A                      A                      A
 Frequencies --    982.4282               995.0748              1011.7681
 Red. masses --      1.3632                 2.9376                 1.3073
 Frc consts  --      0.7752                 1.7138                 0.7885
 IR Inten    --     33.5844                33.5269                 0.0019

                     10                     11                     12
                      A                      A                      A
 Frequencies --   1058.7220              1125.3868              1448.9274
 Red. masses --      1.9124                 4.6318                 1.1698
 Frc consts  --      1.2630                 3.4562                 1.4469
 IR Inten    --      8.9850                 1.1453                 2.6102

                     13                     14                     15
                      A                      A                      A
 Frequencies --   1480.0937              1618.0512              3047.9074
 Red. masses --      1.1511                 8.9627                 1.0465
 Frc consts  --      1.4857                13.8252                 5.7281
 IR Inten    --      4.8177                12.8460                20.1337

                     16                     17                     18
                      A                      A                      A
 Frequencies --   3121.6854              3137.9737              3231.7530
 Red. masses --      1.1164                 1.0539                 1.1157
 Frc consts  --      6.4098                 6.1142                 6.8655
 IR Inten    --     11.4280                 2.0777                 0.6911

 - Thermochemistry -
 -------------------
 Temperature   298.150 Kelvin.  Pressure   1.00000 Atm.
 Atom     1 has atomic number  6 and mass  12.00000

 Molecular mass:    52.03130 amu.
 Principal axes and moments of inertia in atomic units:
                           1         2         3
     Eigenvalues --    68.50925 254.47713 310.89654
           X            0.99917  -0.04081  -0.00007
           Y            0.04081   0.99917   0.00010
           Z            0.00006  -0.00010   1.00000
 This molecule is an asymmetric top.
 Rotational symmetry number  1.
 Rotational temperatures (Kelvin)      1.26426     0.34036     0.27859
 Rotational constants (GHZ):          26.34303     7.09196     5.80496
 Zero-point vibrational energy     154003.5 (Joules/Mol)
                                   36.80772 (Kcal/Mol)
 Warning -- explicit consideration of   4 degrees of freedom as
           vibrations may cause significant error
 Vibrational temperatures:    476.39   530.73   780.45   851.87  1096.43
          (Kelvin)           1282.01  1413.49  1431.69  1455.71  1523.26
                             1619.18  2084.68  2129.52  2328.01  4385.25
                             4491.40  4514.84  4649.77

 Zero-point correction=                           0.058657 (Hartree/Particle)
 Thermal correction to Energy=                    0.062896
 Thermal correction to Enthalpy=                  0.063841
 Thermal correction to Gibbs Free Energy=         0.031835
 Sum of electronic and zero-point Energies=           -154.617102
 Sum of electronic and thermal Energies=              -154.612862
 Sum of electronic and thermal Enthalpies=            -154.611918
 Sum of electronic and thermal Free Energies=         -154.643923

                     E (Thermal)             CV                S
                      KCal/Mol        Cal/Mol-Kelvin    Cal/Mol-Kelvin
 Total                   39.468             14.484             67.361
 Electronic               0.000              0.000              2.183
 Translational            0.889              2.981             37.771
 Rotational               0.889              2.981             23.209
 Vibrational             37.691              8.522              4.197
 Vibration     1          0.713              1.613              1.255
 Vibration     2          0.741              1.536              1.084
 Vibration     3          0.898              1.156              0.560
 Vibration     4          0.950              1.049              0.463

 Optimization completed.
    -- Stationary point found.
 Normal termination of Gaussian 09 at Tue Jul 19 21:12:52 2016.
