 Gaussian 09, Revision E.01,
 Gaussian 09:  EM64L-G09RevE.01 30-Nov-2015

 ---------------------------------------------
 #p b3lyp/6-311++G(3df,2p) freq symmetry=Loose
 ---------------------------------------------

 ---------
 b3lyp opt
 ---------
 Symbolic Z-matrix:
 Charge =  2 Multiplicity = 1

                         Standard orientation:
 ---------------------------------------------------------------------
 Center     Atomic      Atomic             Coordinates (Angstroms)
 Number     Number       Type             X           Y           Z
 ---------------------------------------------------------------------
      1          6           0       -0.208749    0.687855    0.000000
      2          1           0       -1.316135    0.969854    0.000000
      3          6           0        0.208749   -0.687855    0.000000
      4          1           0        1.316135   -0.969854    0.000000
      5          6           0        0.208749    1.873281    0.000000
      6          6           0       -0.208749   -1.873281    0.000000
      7          1           0       -0.396739   -2.949896    0.000000
      8          1           0        0.396739    2.949896    0.000000
 ---------------------------------------------------------------------

 SCF Done:  E(RB3LYP) =  -153.842741001     A.U. after   10 cycles

 The electronic state is 1-AG.
 Alpha  occ. eigenvalues --  -10.76561 -10.76559 -10.71048 -10.71010  -1.33631
 Alpha  occ. eigenvalues --   -1.28211  -1.10702  -1.03029  -0.99377  -0.97614
 Alpha  occ. eigenvalues --   -0.89710  -0.84541  -0.76518
 Alpha virt. eigenvalues --   -0.59477  -0.56453  -0.51983  -0.38496  -0.35258
 Alpha virt. eigenvalues --   -0.32439  -0.32192  -0.29778  -0.27026  -0.26376
 Alpha virt. eigenvalues --   -0.25281  -0.22557  -0.21895  -0.20456  -0.20357

 Mulliken charges:
               1
     1  C    0.179893
     2  H    0.255088
     3  C    0.179893
     4  H    0.255088
     5  C    0.121374
     6  C    0.121374
     7  H    0.443645
     8  H    0.443645
 Sum of Mulliken charges =   2.00000

 Dipole moment (field-independent basis, Debye):
    X=              0.0000    Y=              0.0000    Z=              0.0000  Tot=              0.0000
 Quadrupole moment (field-independent basis, Debye-Ang):
   XX=            -12.7482   YY=             21.8668   ZZ=            -21.9411
   XY=              1.8522   XZ=              0.0000   YZ=              0.0000

  Exact polarizability:  27.905   5.247  60.083   0.000   0.000  21.444
 Approx polarizability:  47.705  19.202 103.746  -0.000  -0.000  29.191

                      1                      2                      3
                     AU                     BU                     AG
 Frequencies --    134.1974               156.8876               234.4593
 Red. masses --      2.3116                 2.7942                 2.4536
 Frc consts  --      0.0245                 0.0405                 0.0795
 IR Inten    --      2.1818                44.3884                 0.0000

                      4                      5                      6
                     AU                     BG                     AU
 Frequencies --    487.8617               657.8000               685.2147
 Red. masses --      1.2327                 1.8974                 1.3270
 Frc consts  --      0.1729                 0.4837                 0.3671
 IR Inten    --    135.9799                 0.0000                76.8766

                      7                      8                      9
                     BG                     BU                     AG
 Frequencies --    691.2296               775.1732               813.3315
 Red. masses --      1.4790                 1.0817                 4.0413
 Frc consts  --      0.4164                 0.3830                 1.5751
 IR Inten    --      0.0000                18.2005                 0.0000

                     10                     11                     12
                     BU                     AG                     AG
 Frequencies --   1020.2173              1023.1372              1058.3468
 Red. masses --      1.3843                 1.2625                 1.5899
 Frc consts  --      0.8489                 0.7787                 1.0492
 IR Inten    --      6.5661                 0.0000                 0.0000

                     13                     14                     15
                     BU                     AG                     AG
 Frequencies --   1849.9507              1964.9584              2670.3696
 Red. masses --      5.3002                 6.0297                 1.0741
 Frc consts  --     10.6872                13.7169                 4.5125
 IR Inten    --    169.0360                 0.0000                 0.0000

                     16                     17                     18
                     BU                     BU                     AG
 Frequencies --   2679.3368              3164.7466              3170.3575
 Red. masses --      1.0724                 1.1508                 1.1478
 Frc consts  --      4.5360                 6.7911                 6.7971
 IR Inten    --    466.6414               718.7077                 0.0000

 - Thermochemistry -
 -------------------
 Temperature   298.150 Kelvin.  Pressure   1.00000 Atm.
 Atom     1 has atomic number  6 and mass  12.00000

 Molecular mass:    52.03130 amu.
 Principal axes and moments of inertia in atomic units:
                           1         2         3
     Eigenvalues --    20.00112 411.78395 431.78507
           X            0.05225   0.99863   0.00000
           Y            0.99863  -0.05225   0.00000
           Z            0.00000  -0.00000   1.00000
 This molecule is an asymmetric top.
 Rotational symmetry number  2.
 Rotational temperatures (Kelvin)      4.33045     0.21034     0.20059
 Rotational constants (GHZ):          90.23202     4.38274     4.17972
 Zero-point vibrational energy     138991.6 (Joules/Mol)
                                   33.21978 (Kcal/Mol)
 Warning -- explicit consideration of   4 degrees of freedom as
           vibrations may cause significant error
 Vibrational temperatures:    193.08   225.73   337.33   701.92   946.43
          (Kelvin)            985.87   994.52  1115.30  1170.20  1467.86
                             1472.06  1522.72  2661.66  2827.13  3842.06
                             3854.96  4553.36  4561.43

 Zero-point correction=                           0.052939 (Hartree/Particle)
 Thermal correction to Energy=                    0.058442
 Thermal correction to Enthalpy=                  0.059386
 Thermal correction to Gibbs Free Energy=         0.026666
 Sum of electronic and zero-point Energies=           -153.789802
 Sum of electronic and thermal Energies=              -153.784299
 Sum of electronic and thermal Enthalpies=            -153.783355
 Sum of electronic and thermal Free Energies=         -153.816075

                     E (Thermal)             CV                S
                      KCal/Mol        Cal/Mol-Kelvin    Cal/Mol-Kelvin
 Total                   36.673             17.841             68.865
 Electronic               0.000              0.000              0.000
 Translational            0.889              2.981             37.771
 Rotational               0.889              2.981             21.413
 Vibrational             34.895             11.879              9.682
 Vibration     1          0.613              1.919              2.885
 Vibration     2          0.621              1.895              2.587
 Vibration     3          0.654              1.788              1.845
 Vibration     4          0.844              1.277              0.689

 Optimization completed.
    -- Stationary point found.
 Normal termination of Gaussian 09 at Tue Jun 21 23:21:17 2016.
