 Gaussian 09, Revision E.01,
 Gaussian 09:  EM64L-G09RevE.01 30-Nov-2015

 ---------------------------------------------
 #p b3lyp/6-311++G(3df,2p) freq symmetry=Loose
 ---------------------------------------------

 ---------
 b3lyp opt
 ---------
 Symbolic Z-matrix:
 Charge =  1 Multiplicity = 4

                         Standard orientation:
 ---------------------------------------------------------------------
 Center     Atomic      Atomic             Coordinates (Angstroms)
 Number     Number       Type             X           Y           Z
 ---------------------------------------------------------------------
      1          6           0        0.000000    0.809959   -0.570057
      2          1           0       -0.901062    1.266401   -0.991291
      3          1           0        0.901062    1.266401   -0.991291
      4          6           0       -0.000000   -0.809959   -0.570057
      5          1           0       -0.901062   -1.266401   -0.991291
      6          1           0        0.901062   -1.266401   -0.991291
      7          6           0        0.000000    0.708864    0.900488
      8          6           0       -0.000000   -0.708864    0.900488
 ---------------------------------------------------------------------

 SCF Done:  E(UB3LYP) =  -154.299816906     A.U. after   12 cycles

 The electronic state is 4-A2.
 Alpha  occ. eigenvalues --  -10.53791 -10.53743 -10.45709 -10.45696  -1.18047
 Alpha  occ. eigenvalues --   -0.93903  -0.93158  -0.74452  -0.73331  -0.72182
 Alpha  occ. eigenvalues --   -0.67593  -0.64327  -0.56246  -0.54128  -0.53360
 Alpha virt. eigenvalues --   -0.31285  -0.17101  -0.15798  -0.14014  -0.13566
 Alpha virt. eigenvalues --   -0.10246  -0.09511  -0.08402  -0.07517  -0.06745
 Alpha virt. eigenvalues --   -0.06425  -0.05850  -0.02920  -0.02786  -0.01458

  Beta  occ. eigenvalues --  -10.51427 -10.51391 -10.45364 -10.45352  -1.13833
  Beta  occ. eigenvalues --   -0.91522  -0.89163  -0.72202  -0.68469  -0.67556
  Beta  occ. eigenvalues --   -0.63927  -0.63053
  Beta virt. eigenvalues --   -0.42964  -0.38287  -0.35428  -0.22824  -0.16775
  Beta virt. eigenvalues --   -0.14832  -0.13700  -0.12646  -0.09510  -0.09093
  Beta virt. eigenvalues --   -0.08270  -0.07125  -0.05981  -0.05613  -0.04104

 Mulliken charges and spin densities:
               1          2
     1  C   -0.188237   0.091298
     2  H    0.218370   0.039755
     3  H    0.218370   0.039755
     4  C   -0.188237   0.091298
     5  H    0.218370   0.039755
     6  H    0.218370   0.039755
     7  C    0.251497   1.329193
     8  C    0.251497   1.329193
 Sum of Mulliken charges =   1.00000   3.00000

 Dipole moment (field-independent basis, Debye):
    X=              0.0000    Y=             -0.0000    Z=             -0.9937  Tot=              0.9937
 Quadrupole moment (field-independent basis, Debye-Ang):
   XX=            -19.0001   YY=            -16.6720   ZZ=            -17.9132
   XY=             -0.0000   XZ=              0.0000   YZ=              0.0000

  Exact polarizability:  28.403  -0.000  43.182   0.000   0.000  40.624
 Approx polarizability:  42.279   0.000  69.959   0.000  -0.000  64.975

                      1                      2                      3
                     A2                     B1                     A1
 Frequencies --    304.6529               687.1990               728.9840
 Red. masses --      1.8884                 1.1545                 5.8854
 Frc consts  --      0.1033                 0.3212                 1.8427
 IR Inten    --      0.0000                 4.4400                13.2716

                      4                      5                      6
                     B2                     B1                     A2
 Frequencies --    785.0235               930.9917               941.9876
 Red. masses --      7.5969                 1.0787                 2.0852
 Frc consts  --      2.7584                 0.5508                 1.0901
 IR Inten    --     12.3944                 0.5522                 0.0000

                      7                      8                      9
                     B2                     A1                     A2
 Frequencies --    950.1614              1079.1996              1087.5488
 Red. masses --      3.1966                 3.1162                 1.0959
 Frc consts  --      1.7003                 2.1383                 0.7637
 IR Inten    --     27.5114                 0.2224                 0.0000

                     10                     11                     12
                     A1                     B2                     A1
 Frequencies --   1089.9127              1209.4588              1340.5554
 Red. masses --      1.4064                 1.7137                 2.9409
 Frc consts  --      0.9843                 1.4770                 3.1139
 IR Inten    --     59.2645                 7.3724                 5.6090

                     13                     14                     15
                     B2                     A1                     B2
 Frequencies --   1353.4360              1384.8602              3003.4060
 Red. masses --      1.0651                 1.4995                 1.0505
 Frc consts  --      1.1495                 1.6944                 5.5830
 IR Inten    --     15.7684                15.7095                72.8380

                     16                     17                     18
                     A1                     A2                     B1
 Frequencies --   3020.6577              3067.9349              3083.4716
 Red. masses --      1.0554                 1.1079                 1.1061
 Frc consts  --      5.6736                 6.1436                 6.1962
 IR Inten    --     59.5957                 0.0000                52.3814

 - Thermochemistry -
 -------------------
 Temperature   298.150 Kelvin.  Pressure   1.00000 Atm.
 Atom     1 has atomic number  6 and mass  12.00000

 Molecular mass:    52.03130 amu.
 Principal axes and moments of inertia in atomic units:
                           1         2         3
     Eigenvalues --   122.12054 134.06802 232.81192
           X            0.00000   0.00000   1.00000
           Y            1.00000   0.00000  -0.00000
           Z            0.00000   1.00000   0.00000
 This molecule is an asymmetric top.
 Rotational symmetry number  2.
 Rotational temperatures (Kelvin)      0.70925     0.64604     0.37203
 Rotational constants (GHZ):          14.77836    13.46138     7.75193
 Zero-point vibrational energy     155810.3 (Joules/Mol)
                                   37.23955 (Kcal/Mol)
 Warning -- explicit consideration of   1 degrees of freedom as
           vibrations may cause significant error
 Vibrational temperatures:    438.33   988.72  1048.84  1129.47  1339.49
          (Kelvin)           1355.31  1367.07  1552.73  1564.74  1568.14
                             1740.14  1928.76  1947.29  1992.50  4321.23
                             4346.05  4414.07  4436.42

 Zero-point correction=                           0.059345 (Hartree/Particle)
 Thermal correction to Energy=                    0.063155
 Thermal correction to Enthalpy=                  0.064099
 Thermal correction to Gibbs Free Energy=         0.033276
 Sum of electronic and zero-point Energies=           -154.240472
 Sum of electronic and thermal Energies=              -154.236662
 Sum of electronic and thermal Enthalpies=            -154.235718
 Sum of electronic and thermal Free Energies=         -154.266541

                     E (Thermal)             CV                S
                      KCal/Mol        Cal/Mol-Kelvin    Cal/Mol-Kelvin
 Total                   39.630             12.712             64.872
 Electronic               0.000              0.000              2.755
 Translational            0.889              2.981             37.771
 Rotational               0.889              2.981             21.482
 Vibrational             37.853              6.751              2.864
 Vibration     1          0.696              1.665              1.391

 Optimization completed.
    -- Stationary point found.
 Normal termination of Gaussian 09 at Tue Jun 21 22:40:10 2016.
