 Gaussian 09, Revision E.01,
 Gaussian 09:  EM64L-G09RevE.01 30-Nov-2015

 ------------------------------------------------------
 #p b3lyp/6-311++G(3df,2p) freq IOp(2/17=3) IOp(2/18=3)
 ------------------------------------------------------

 ---------
 b3lyp opt
 ---------
 Symbolic Z-matrix:
 Charge =  0 Multiplicity = 1

                         Standard orientation:
 ---------------------------------------------------------------------
 Center     Atomic      Atomic             Coordinates (Angstroms)
 Number     Number       Type             X           Y           Z
 ---------------------------------------------------------------------
      1          6           0        0.000000    1.084832    0.000000
      2          6           0       -0.121634   -0.175998    0.799513
      3          1           0        0.978288    1.547242    0.000000
      4          1           0       -0.819805    1.801564    0.000000
      5          1           0       -0.848568   -0.354808    1.583866
      6          6           0        0.499948   -1.172666   -0.000000
      7          6           0       -0.121634   -0.175998   -0.799513
      8          1           0       -0.848568   -0.354808   -1.583866
 ---------------------------------------------------------------------

 SCF Done:  E(RB3LYP) =  -154.707575612     A.U. after   12 cycles

 The electronic state is 1-A'.
 Alpha  occ. eigenvalues --  -10.23352 -10.23340 -10.21677 -10.18647  -0.95323
 Alpha  occ. eigenvalues --   -0.70571  -0.62955  -0.55878  -0.50808  -0.45282
 Alpha  occ. eigenvalues --   -0.37931  -0.34375  -0.33267  -0.23337
 Alpha virt. eigenvalues --   -0.04420  -0.01120  -0.00605   0.00987   0.01351
 Alpha virt. eigenvalues --    0.02786   0.06564   0.06808   0.07144   0.07909
 Alpha virt. eigenvalues --    0.08794   0.11453   0.11691   0.11778   0.12531

 Mulliken charges:
               1
     1  C   -0.502491
     2  C    0.216432
     3  H    0.191910
     4  H    0.105181
     5  H    0.168898
     6  C   -0.565261
     7  C    0.216432
     8  H    0.168898
 Sum of Mulliken charges =  -0.00000

 Dipole moment (field-independent basis, Debye):
    X=             -1.9432    Y=              3.2078    Z=              0.0000  Tot=              3.7505
 Quadrupole moment (field-independent basis, Debye-Ang):
   XX=            -24.3044   YY=            -29.7446   ZZ=            -22.8160
   XY=              2.7704   XZ=             -0.0000   YZ=              0.0000

  Exact polarizability:  37.244  -3.119  51.054   0.000   0.000  44.058
 Approx polarizability:  54.917  -4.760  71.622   0.000   0.000  73.769

                      1                      2                      3
                     A'                     A"                     A'
 Frequencies --    483.8995               728.3880               743.5981
 Red. masses --      3.8180                 3.3288                 1.6923
 Frc consts  --      0.5267                 1.0406                 0.5513
 IR Inten    --     19.4185                 0.0018                 3.4705

                      4                      5                      6
                     A"                     A'                     A'
 Frequencies --    894.5636               935.3429              1006.7934
 Red. masses --      2.2505                 1.7561                 1.5183
 Frc consts  --      1.0611                 0.9052                 0.9067
 IR Inten    --     11.0727                16.3556                 2.0143

                      7                      8                      9
                     A"                     A"                     A"
 Frequencies --   1008.2260              1099.2867              1105.4007
 Red. masses --      1.2855                 1.1508                 1.3600
 Frc consts  --      0.7699                 0.8193                 0.9791
 IR Inten    --      1.0633                 5.5689                 2.5789

                     10                     11                     12
                     A'                     A'                     A"
 Frequencies --   1136.2538              1227.6225              1229.3757
 Red. masses --      1.3933                 3.3626                 1.8499
 Frc consts  --      1.0598                 2.9857                 1.6473
 IR Inten    --      5.5161                 5.4684                 9.2807

                     13                     14                     15
                     A'                     A'                     A'
 Frequencies --   1398.4027              1521.2558              3064.4843
 Red. masses --      4.5862                 1.1499                 1.0606
 Frc consts  --      5.2841                 1.5679                 5.8682
 IR Inten    --     15.7598                 1.1185                48.4051

                     16                     17                     18
                     A"                     A'                     A'
 Frequencies --   3145.8787              3152.2000              3163.1182
 Red. masses --      1.0884                 1.0971                 1.1063
 Frc consts  --      6.3466                 6.4229                 6.5213
 IR Inten    --      5.7997                 0.3976                 7.6890

 - Thermochemistry -
 -------------------
 Temperature   298.150 Kelvin.  Pressure   1.00000 Atm.
 Atom     1 has atomic number  6 and mass  12.00000

 Molecular mass:    52.03130 amu.
 Principal axes and moments of inertia in atomic units:
                           1         2         3
     Eigenvalues --    91.93143 155.61262 209.36512
           X           -0.17930   0.00000   0.98379
           Y            0.98379   0.00000   0.17930
           Z           -0.00000   1.00000  -0.00000
 This molecule is an asymmetric top.
 Rotational symmetry number  1.
 Rotational temperatures (Kelvin)      0.94216     0.55660     0.41370
 Rotational constants (GHZ):          19.63138    11.59765     8.62007
 Zero-point vibrational energy     161759.6 (Joules/Mol)
                                   38.66147 (Kcal/Mol)
 Warning -- explicit consideration of   1 degrees of freedom as
           vibrations may cause significant error
 Vibrational temperatures:    696.22  1047.99  1069.87  1287.08  1345.75
          (Kelvin)           1448.55  1450.61  1581.63  1590.42  1634.81
                             1766.27  1768.80  2011.99  2188.75  4409.10
                             4526.21  4535.31  4551.02

 Zero-point correction=                           0.061611 (Hartree/Particle)
 Thermal correction to Energy=                    0.065165
 Thermal correction to Enthalpy=                  0.066109
 Thermal correction to Gibbs Free Energy=         0.036485
 Sum of electronic and zero-point Energies=           -154.645965
 Sum of electronic and thermal Energies=              -154.642411
 Sum of electronic and thermal Enthalpies=            -154.641467
 Sum of electronic and thermal Free Energies=         -154.671090

                     E (Thermal)             CV                S
                      KCal/Mol        Cal/Mol-Kelvin    Cal/Mol-Kelvin
 Total                   40.891             11.827             62.348
 Electronic               0.000              0.000              0.000
 Translational            0.889              2.981             37.771
 Rotational               0.889              2.981             22.620
 Vibrational             39.114              5.866              1.957
 Vibration     1          0.840              1.286              0.700

 Optimization completed.
    -- Stationary point found.
 Normal termination of Gaussian 09 at Thu Jan 31 06:16:38 2019.
