 Gaussian 09, Revision E.01,
 Gaussian 09:  EM64L-G09RevE.01 30-Nov-2015

 ---------------------------------------------
 #p b3lyp/6-311++G(3df,2p) freq symmetry=Loose
 ---------------------------------------------

 ---------
 b3lyp opt
 ---------
 Symbolic Z-matrix:
 Charge =  2 Multiplicity = 3

                         Standard orientation:
 ---------------------------------------------------------------------
 Center     Atomic      Atomic             Coordinates (Angstroms)
 Number     Number       Type             X           Y           Z
 ---------------------------------------------------------------------
      1          6           0        1.580003   -0.327621   -0.000087
      2          1           0        1.470485   -1.407637   -0.000714
      3          1           0        2.242309    0.066758    0.823601
      4          1           0        2.242746    0.068077   -0.822692
      5          6           0        0.403104    0.471772    0.000088
      6          1           0        0.496611    1.581772   -0.000288
      7          6           0       -0.914006    0.058175    0.000040
      8          6           0       -2.144460   -0.253821   -0.000027
 ---------------------------------------------------------------------

 SCF Done:  E(UB3LYP) =  -153.726372095     A.U. after   18 cycles

 The electronic state is 3-A.
 Alpha  occ. eigenvalues --  -10.87247 -10.80238 -10.78061 -10.64348  -1.37871
 Alpha  occ. eigenvalues --   -1.29508  -1.16319  -1.01401  -0.95152  -0.93394
 Alpha  occ. eigenvalues --   -0.89690  -0.87045  -0.84741  -0.83749
 Alpha virt. eigenvalues --   -0.64470  -0.54508  -0.44759  -0.35651  -0.31452
 Alpha virt. eigenvalues --   -0.30385  -0.29020  -0.27655  -0.26111  -0.23825
 Alpha virt. eigenvalues --   -0.23577  -0.22370  -0.20904  -0.20315  -0.19624

  Beta  occ. eigenvalues --  -10.83753 -10.79576 -10.78029 -10.64323  -1.34736
  Beta  occ. eigenvalues --   -1.26350  -1.15521  -1.00060  -0.92622  -0.89149
  Beta  occ. eigenvalues --   -0.84973  -0.82424
  Beta virt. eigenvalues --   -0.71769  -0.69292  -0.62230  -0.45602  -0.42184
  Beta virt. eigenvalues --   -0.35070  -0.30960  -0.30053  -0.29103  -0.27077
  Beta virt. eigenvalues --   -0.26076  -0.23328  -0.22911  -0.21299  -0.20708

 Mulliken charges and spin densities:
               1          2
     1  C   -0.293877   0.017374
     2  H    0.252288   0.003701
     3  H    0.303847  -0.015325
     4  H    0.303730  -0.015292
     5  C   -0.133955   0.041203
     6  H    0.281224   0.035712
     7  C    0.777105   0.436003
     8  C    0.509637   1.496624
 Sum of Mulliken charges =   2.00000   2.00000

 Dipole moment (field-independent basis, Debye):
    X=             -1.3470    Y=              0.6776    Z=              0.0006  Tot=              1.5078
 Quadrupole moment (field-independent basis, Debye-Ang):
   XX=             11.6844   YY=            -13.7974   ZZ=            -18.7923
   XY=              1.8951   XZ=              0.0022   YZ=             -0.0009

  Exact polarizability:  70.252   1.682  27.880   0.002  -0.001  24.259
 Approx polarizability: 137.243   7.078  41.520   0.009  -0.002  34.624

                      1                      2                      3
                      A                      A                      A
 Frequencies --    148.8200               189.7142               273.5570
 Red. masses --      1.1702                 4.1730                 5.0929
 Frc consts  --      0.0153                 0.0885                 0.2246
 IR Inten    --     33.3374                 3.0748                 0.0710

                      4                      5                      6
                      A                      A                      A
 Frequencies --    545.7919               734.5125               830.3792
 Red. masses --      5.7299                 1.0697                 2.3172
 Frc consts  --      1.0057                 0.3400                 0.9414
 IR Inten    --      0.2608                16.7781                63.5508

                      7                      8                      9
                      A                      A                      A
 Frequencies --    910.5262               933.6378              1036.6494
 Red. masses --      2.0728                 1.8952                 1.1993
 Frc consts  --      1.0125                 0.9733                 0.7594
 IR Inten    --      1.3308               209.6228               187.8514

                     10                     11                     12
                      A                      A                      A
 Frequencies --   1193.4686              1256.2454              1290.5050
 Red. masses --      1.5510                 1.0644                 1.9032
 Frc consts  --      1.3016                 0.9897                 1.8675
 IR Inten    --      7.5179                37.0350                14.2175

                     13                     14                     15
                      A                      A                      A
 Frequencies --   1436.8526              1902.3369              2699.4634
 Red. masses --      1.2082                11.6534                 1.0713
 Frc consts  --      1.4697                24.8473                 4.5994
 IR Inten    --     27.9393               159.8898               165.4082

                     16                     17                     18
                      A                      A                      A
 Frequencies --   2762.4290              2866.3980              3161.6797
 Red. masses --      1.0560                 1.0776                 1.0972
 Frc consts  --      4.7479                 5.2163                 6.4619
 IR Inten    --    570.1839               306.1875                49.7159

 - Thermochemistry -
 -------------------
 Temperature   298.150 Kelvin.  Pressure   1.00000 Atm.
 Atom     1 has atomic number  6 and mass  12.00000

 Molecular mass:    52.03130 amu.
 Principal axes and moments of inertia in atomic units:
                           1         2         3
     Eigenvalues --    38.05108 393.77240 422.06914
           X            0.99996  -0.00940   0.00000
           Y            0.00940   0.99996  -0.00006
           Z           -0.00000   0.00006   1.00000
 This molecule is an asymmetric top.
 Rotational symmetry number  1.
 Rotational temperatures (Kelvin)      2.27625     0.21996     0.20521
 Rotational constants (GHZ):          47.42944     4.58321     4.27594
 Zero-point vibrational energy     144586.4 (Joules/Mol)
                                   34.55699 (Kcal/Mol)
 Warning -- explicit consideration of   4 degrees of freedom as
           vibrations may cause significant error
 Vibrational temperatures:    214.12   272.96   393.59   785.27  1056.80
          (Kelvin)           1194.73  1310.04  1343.29  1491.51  1717.13
                             1807.45  1856.75  2067.31  2737.04  3883.92
                             3974.51  4124.10  4548.95

 Zero-point correction=                           0.055070 (Hartree/Particle)
 Thermal correction to Energy=                    0.060122
 Thermal correction to Enthalpy=                  0.061066
 Thermal correction to Gibbs Free Energy=         0.027203
 Sum of electronic and zero-point Energies=           -153.671302
 Sum of electronic and thermal Energies=              -153.666250
 Sum of electronic and thermal Enthalpies=            -153.665306
 Sum of electronic and thermal Free Energies=         -153.699169

                     E (Thermal)             CV                S
                      KCal/Mol        Cal/Mol-Kelvin    Cal/Mol-Kelvin
 Total                   37.727             15.883             71.271
 Electronic               0.000              0.000              2.183
 Translational            0.889              2.981             37.771
 Rotational               0.889              2.981             23.363
 Vibrational             35.950              9.921              7.954
 Vibration     1          0.618              1.904              2.687
 Vibration     2          0.633              1.854              2.231
 Vibration     3          0.676              1.722              1.574
 Vibration     4          0.901              1.149              0.553

 Optimization completed.
    -- Stationary point found.
 Normal termination of Gaussian 09 at Tue Jun 21 23:41:33 2016.
