 Gaussian 09, Revision E.01,
 Gaussian 09:  EM64L-G09RevE.01 30-Nov-2015

 ---------------------------------------------
 #p b3lyp/6-311++G(3df,2p) freq symmetry=Loose
 ---------------------------------------------

 ---------
 b3lyp opt
 ---------
 Symbolic Z-matrix:
 Charge =  0 Multiplicity = 3

                         Standard orientation:
 ---------------------------------------------------------------------
 Center     Atomic      Atomic             Coordinates (Angstroms)
 Number     Number       Type             X           Y           Z
 ---------------------------------------------------------------------
      1          6           0       -0.019670   -1.015367   -0.000043
      2          1           0       -0.040543   -2.092787   -0.000089
      3          6           0        0.019670    1.015367    0.000043
      4          1           0        0.040543    2.092787    0.000089
      5          6           0        1.015367   -0.019670   -0.000021
      6          6           0       -1.015367    0.019670    0.000021
      7          1           0        2.092787   -0.040543   -0.000044
      8          1           0       -2.092787    0.040543    0.000044
 ---------------------------------------------------------------------

 SCF Done:  E(UB3LYP) =  -154.722567930     A.U. after    9 cycles

 The electronic state is 3-AG.
 Alpha  occ. eigenvalues --  -10.19180 -10.19149 -10.19149 -10.19107  -0.89481
 Alpha  occ. eigenvalues --   -0.65458  -0.65458  -0.52843  -0.52323  -0.40440
 Alpha  occ. eigenvalues --   -0.39910  -0.37066  -0.37066  -0.19144  -0.19144
 Alpha virt. eigenvalues --    0.00033   0.01243   0.01243   0.03405   0.03568
 Alpha virt. eigenvalues --    0.05637   0.07170   0.07424   0.09365   0.09365
 Alpha virt. eigenvalues --    0.09683   0.09683   0.12131   0.12783   0.12827

  Beta  occ. eigenvalues --  -10.18440 -10.18406 -10.18406 -10.18367  -0.87281
  Beta  occ. eigenvalues --   -0.63060  -0.63060  -0.52063  -0.50880  -0.39339
  Beta  occ. eigenvalues --   -0.36298  -0.36298  -0.33048
  Beta virt. eigenvalues --   -0.07870  -0.07870   0.00063   0.01293   0.01293
  Beta virt. eigenvalues --    0.03432   0.06082   0.07401   0.07511   0.08518
  Beta virt. eigenvalues --    0.09505   0.09505   0.10562   0.10562   0.12461

 Mulliken charges and spin densities:
               1          2
     1  C   -0.209536   0.529331
     2  H    0.209536  -0.029331
     3  C   -0.209536   0.529331
     4  H    0.209536  -0.029331
     5  C   -0.209536   0.529331
     6  C   -0.209536   0.529331
     7  H    0.209536  -0.029331
     8  H    0.209536  -0.029331
 Sum of Mulliken charges =  -0.00000   2.00000

 Dipole moment (field-independent basis, Debye):
    X=             -0.0000    Y=              0.0000    Z=             -0.0000  Tot=              0.0000
 Quadrupole moment (field-independent basis, Debye-Ang):
   XX=            -21.9706   YY=            -21.9706   ZZ=            -27.2884
   XY=              0.0000   XZ=             -0.0001   YZ=              0.0002

  Exact polarizability:  53.461  -0.000  53.461  -0.000   0.001  35.055
 Approx polarizability:  84.264   0.000  84.264  -0.001   0.002  49.026

                      1                      2                      3
                     AU                     AU                     AG
 Frequencies --    468.9814               558.7004               610.1884
 Red. masses --      1.8915                 1.0848                 1.3276
 Frc consts  --      0.2451                 0.1995                 0.2912
 IR Inten    --      0.0000               125.7773                 0.0000

                      4                      5                      6
                     AG                     AU                     AU
 Frequencies --    610.1888               716.5606               896.7681
 Red. masses --      1.3276                 1.8285                 1.7723
 Frc consts  --      0.2912                 0.5532                 0.8398
 IR Inten    --      0.0000                 0.0000                18.1345

                      7                      8                      9
                     AU                     AG                     AG
 Frequencies --    896.7682               948.3991              1016.2377
 Red. masses --      1.7723                 6.5012                 1.0996
 Frc consts  --      0.8398                 3.4453                 0.6691
 IR Inten    --     18.1345                 0.0000                 0.0000

                     10                     11                     12
                     AG                     AG                     AU
 Frequencies --   1217.6134              1287.2524              1320.0396
 Red. masses --      1.3276                 5.5778                 1.9339
 Frc consts  --      1.1597                 5.4455                 1.9854
 IR Inten    --      0.0000                 0.0000                 5.1827

                     13                     14                     15
                     AU                     AG                     AG
 Frequencies --   1320.0397              1357.9483              3216.6149
 Red. masses --      1.9339                 6.0176                 1.0849
 Frc consts  --      1.9854                 6.5379                 6.6136
 IR Inten    --      5.1827                 0.0000                 0.0000

                     16                     17                     18
                     AU                     AU                     AG
 Frequencies --   3230.3386              3230.3386              3254.3398
 Red. masses --      1.0916                 1.0916                 1.1157
 Frc consts  --      6.7116                 6.7116                 6.9619
 IR Inten    --      4.4943                 4.4943                 0.0000

 - Thermochemistry -
 -------------------
 Temperature   298.150 Kelvin.  Pressure   1.00000 Atm.
 Atom     1 has atomic number  6 and mass  12.00000

 Molecular mass:    52.03130 amu.
 Principal axes and moments of inertia in atomic units:
                           1         2         3
     Eigenvalues --   119.93038 119.93038 239.86076
           X            0.23165   0.97280   0.00002
           Y            0.97280  -0.23165  -0.00004
           Z            0.00004  -0.00003   1.00000
 This molecule is an oblate symmetric top.
 Rotational symmetry number  1.
 Rotational temperatures (Kelvin)      0.72220     0.72220     0.36110
 Rotational constants (GHZ):          15.04824    15.04824     7.52412
 Zero-point vibrational energy     156455.5 (Joules/Mol)
                                   37.39376 (Kcal/Mol)
 Warning -- explicit consideration of   4 degrees of freedom as
           vibrations may cause significant error
 Vibrational temperatures:    674.76   803.84   877.92   877.92  1030.97
          (Kelvin)           1290.25  1290.25  1364.53  1462.14  1751.87
                             1852.07  1899.24  1899.24  1953.78  4627.99
                             4647.73  4647.73  4682.26

 Zero-point correction=                           0.059591 (Hartree/Particle)
 Thermal correction to Energy=                    0.063516
 Thermal correction to Enthalpy=                  0.064461
 Thermal correction to Gibbs Free Energy=         0.033217
 Sum of electronic and zero-point Energies=           -154.662977
 Sum of electronic and thermal Energies=              -154.659052
 Sum of electronic and thermal Enthalpies=            -154.658107
 Sum of electronic and thermal Free Energies=         -154.689351

                     E (Thermal)             CV                S
                      KCal/Mol        Cal/Mol-Kelvin    Cal/Mol-Kelvin
 Total                   39.857             13.773             65.758
 Electronic               0.000              0.000              2.183
 Translational            0.889              2.981             37.771
 Rotational               0.889              2.981             22.760
 Vibrational             38.080              7.811              3.043
 Vibration     1          0.826              1.319              0.740
 Vibration     2          0.914              1.121              0.526
 Vibration     3          0.969              1.010              0.432
 Vibration     4          0.969              1.010              0.432

 Optimization completed.
    -- Stationary point found.
 Normal termination of Gaussian 09 at Tue Jul 19 19:38:14 2016.
