 Gaussian 09, Revision E.01,
 Gaussian 09:  EM64L-G09RevE.01 30-Nov-2015

 ---------------------------------------------
 #p b3lyp/6-311++G(3df,2p) freq symmetry=Loose
 ---------------------------------------------

 ---------
 b3lyp opt
 ---------
 Symbolic Z-matrix:
 Charge =  0 Multiplicity = 1

                         Standard orientation:
 ---------------------------------------------------------------------
 Center     Atomic      Atomic             Coordinates (Angstroms)
 Number     Number       Type             X           Y           Z
 ---------------------------------------------------------------------
      1          6           0       -1.574841   -0.331258   -0.000029
      2          1           0       -2.191252   -0.100051    0.874300
      3          1           0       -1.322994   -1.387530   -0.002221
      4          1           0       -2.192418   -0.096088   -0.872134
      5          6           0       -0.367252    0.533810    0.000139
      6          1           0       -0.548406    1.608933    0.000604
      7          6           0        0.889186    0.101906   -0.000510
      8          6           0        2.095419   -0.308669    0.000308
 ---------------------------------------------------------------------

 SCF Done:  E(RB3LYP) =  -154.715759970     A.U. after   12 cycles

 The electronic state is 1-A.
 Alpha  occ. eigenvalues --  -10.26644 -10.21061 -10.20187 -10.17414  -0.84594
 Alpha  occ. eigenvalues --   -0.75213  -0.67259  -0.54324  -0.47138  -0.46353
 Alpha  occ. eigenvalues --   -0.42363  -0.33185  -0.28129  -0.27343
 Alpha virt. eigenvalues --   -0.13736  -0.02443   0.00442   0.01697   0.02227
 Alpha virt. eigenvalues --    0.03292   0.05469   0.06007   0.06113   0.07082
 Alpha virt. eigenvalues --    0.07481   0.09828   0.10307   0.10895   0.11963

 Mulliken charges:
               1
     1  C   -0.415323
     2  H    0.165863
     3  H    0.164670
     4  H    0.165918
     5  C   -0.485291
     6  H    0.166272
     7  C    0.977051
     8  C   -0.739160
 Sum of Mulliken charges =  -0.00000

 Dipole moment (field-independent basis, Debye):
    X=             -5.3122    Y=              1.2267    Z=             -0.0005  Tot=              5.4520
 Quadrupole moment (field-independent basis, Debye-Ang):
   XX=            -32.3565   YY=            -24.3275   ZZ=            -24.3697
   XY=              1.4484   XZ=             -0.0054   YZ=              0.0001

  Exact polarizability:  79.632  -6.678  41.846  -0.010  -0.000  36.549
 Approx polarizability: 135.187 -21.584  61.562  -0.022   0.000  53.467

                      1                      2                      3
                      A                      A                      A
 Frequencies --    142.5698               191.7709               235.2638
 Red. masses --      1.2637                 4.8652                 3.7199
 Frc consts  --      0.0151                 0.1054                 0.1213
 IR Inten    --      0.6324                 2.1245                 3.6377

                      4                      5                      6
                      A                      A                      A
 Frequencies --    531.6400               780.6198               869.1015
 Red. masses --      3.7882                 1.1470                 2.2489
 Frc consts  --      0.6308                 0.4118                 1.0008
 IR Inten    --      6.8225                 9.2234                17.8197

                      7                      8                      9
                      A                      A                      A
 Frequencies --   1066.8871              1121.5958              1186.1220
 Red. masses --      1.7102                 1.9486                 1.9251
 Frc consts  --      1.1469                 1.4442                 1.5957
 IR Inten    --      0.0029                 6.4485                 7.2827

                     10                     11                     12
                      A                      A                      A
 Frequencies --   1388.2930              1408.8213              1469.2952
 Red. masses --      1.2328                 1.5679                 1.0461
 Frc consts  --      1.3999                 1.8335                 1.3305
 IR Inten    --     26.3101                15.9673                 8.7860

                     13                     14                     15
                      A                      A                      A
 Frequencies --   1488.9074              2039.7261              3010.4959
 Red. masses --      1.2417                11.3721                 1.0396
 Frc consts  --      1.6218                27.8764                 5.5512
 IR Inten    --     14.0782               506.1996                 0.3416

                     16                     17                     18
                      A                      A                      A
 Frequencies --   3051.0694              3083.7590              3141.5866
 Red. masses --      1.0960                 1.0870                 1.0997
 Frc consts  --      6.0112                 6.0906                 6.3946
 IR Inten    --      1.9634                 8.1453                 5.2643

 - Thermochemistry -
 -------------------
 Temperature   298.150 Kelvin.  Pressure   1.00000 Atm.
 Atom     1 has atomic number  6 and mass  12.00000

 Molecular mass:    52.03130 amu.
 Principal axes and moments of inertia in atomic units:
                           1         2         3
     Eigenvalues --    43.17338 378.97715 411.17335
           X            0.99989   0.01456  -0.00001
           Y           -0.01456   0.99989   0.00004
           Z            0.00001  -0.00004   1.00000
 This molecule is an asymmetric top.
 Rotational symmetry number  1.
 Rotational temperatures (Kelvin)      2.00619     0.22855     0.21065
 Rotational constants (GHZ):          41.80217     4.76214     4.38925
 Zero-point vibrational energy     156755.8 (Joules/Mol)
                                   37.46554 (Kcal/Mol)
 Warning -- explicit consideration of   4 degrees of freedom as
           vibrations may cause significant error
 Vibrational temperatures:    205.13   275.92   338.49   764.91  1123.14
          (Kelvin)           1250.44  1535.01  1613.72  1706.56  1997.44
                             2026.98  2113.99  2142.20  2934.71  4331.43
                             4389.80  4436.84  4520.04

 Zero-point correction=                           0.059705 (Hartree/Particle)
 Thermal correction to Energy=                    0.064717
 Thermal correction to Enthalpy=                  0.065661
 Thermal correction to Gibbs Free Energy=         0.032776
 Sum of electronic and zero-point Energies=           -154.656055
 Sum of electronic and thermal Energies=              -154.651043
 Sum of electronic and thermal Enthalpies=            -154.650099
 Sum of electronic and thermal Free Energies=         -154.682984

                     E (Thermal)             CV                S
                      KCal/Mol        Cal/Mol-Kelvin    Cal/Mol-Kelvin
 Total                   40.611             15.088             69.213
 Electronic               0.000              0.000              0.000
 Translational            0.889              2.981             37.771
 Rotational               0.889              2.981             23.424
 Vibrational             38.833              9.126              8.019
 Vibration     1          0.616              1.911              2.769
 Vibration     2          0.634              1.851              2.211
 Vibration     3          0.655              1.787              1.838
 Vibration     4          0.887              1.180              0.584

 Normal termination of Gaussian 09 at Tue Jun 21 21:15:06 2016.
