 Gaussian 09, Revision E.01,
 Gaussian 09:  EM64L-G09RevE.01 30-Nov-2015

 ---------------------------------------------
 #p b3lyp/6-311++G(3df,2p) freq symmetry=Loose
 ---------------------------------------------

 ---------
 b3lyp opt
 ---------
 Symbolic Z-matrix:
 Charge =  3 Multiplicity = 2

                         Standard orientation:
 ---------------------------------------------------------------------
 Center     Atomic      Atomic             Coordinates (Angstroms)
 Number     Number       Type             X           Y           Z
 ---------------------------------------------------------------------
      1          6           0       -1.160240    0.056928   -0.000000
      2          6           0        0.000000    0.792834    0.000000
      3          1           0       -2.037458   -0.014963    0.840897
      4          1           0       -2.037458   -0.014963   -0.840897
      5          6           0        1.239105    0.231647    0.000000
      6          6           0        0.166439   -0.806533   -0.000000
      7          1           0        0.242382   -1.950215   -0.000000
      8          1           0        2.360708    0.330883    0.000000
 ---------------------------------------------------------------------

 SCF Done:  E(UB3LYP) =  -152.914100801     A.U. after   14 cycles

 The electronic state is 2-A".
 Alpha  occ. eigenvalues --  -11.13461 -11.11363 -11.08057 -11.06934  -1.79721
 Alpha  occ. eigenvalues --   -1.54459  -1.39494  -1.34299  -1.25559  -1.25173
 Alpha  occ. eigenvalues --   -1.21579  -1.19603  -1.11155
 Alpha virt. eigenvalues --   -0.88032  -0.85838  -0.81442  -0.65936  -0.62610
 Alpha virt. eigenvalues --   -0.58006  -0.57111  -0.55909  -0.51454  -0.48107
 Alpha virt. eigenvalues --   -0.46976  -0.45096  -0.43481  -0.41656  -0.41396

  Beta  occ. eigenvalues --  -11.13472 -11.11288 -11.07538 -11.06399  -1.78840
  Beta  occ. eigenvalues --   -1.52541  -1.39181  -1.31626  -1.24747  -1.21236
  Beta  occ. eigenvalues --   -1.21208  -1.19258
  Beta virt. eigenvalues --   -1.00127  -0.87181  -0.85608  -0.77531  -0.65222
  Beta virt. eigenvalues --   -0.61147  -0.57417  -0.55032  -0.53444  -0.50951
  Beta virt. eigenvalues --   -0.47961  -0.46749  -0.44570  -0.42878  -0.41535

 Mulliken charges and spin densities:
               1          2
     1  C   -0.218929   0.297955
     2  C    0.932784   0.021787
     3  H    0.403917   0.169076
     4  H    0.403917   0.169076
     5  C    0.172828   0.303929
     6  C    0.408188   0.046623
     7  H    0.425150  -0.000646
     8  H    0.472146  -0.007802
 Sum of Mulliken charges =   3.00000   1.00000

 Dipole moment (field-independent basis, Debye):
    X=             -1.9687    Y=             -1.3317    Z=             -0.0000  Tot=              2.3768
 Quadrupole moment (field-independent basis, Debye-Ang):
   XX=             13.8261   YY=             -6.7772   ZZ=            -14.5890
   XY=              0.8696   XZ=              0.0000   YZ=              0.0000

  Exact polarizability:  45.478   0.682  29.040   0.000  -0.000  20.232
 Approx polarizability:  80.666   1.568  59.753   0.000   0.000  31.113

                      1                      2                      3
                     A'                     A"                     A"
 Frequencies --    345.0838               348.8102               500.4545
 Red. masses --      5.5886                 1.7567                 1.0837
 Frc consts  --      0.3921                 0.1259                 0.1599
 IR Inten    --     43.4536                43.1263                 5.9147

                      4                      5                      6
                     A"                     A'                     A"
 Frequencies --    661.2768               675.7992               755.3357
 Red. masses --      1.7798                 3.0770                 1.2573
 Frc consts  --      0.4585                 0.8280                 0.4227
 IR Inten    --    105.0811                10.3708                33.9653

                      7                      8                      9
                     A'                     A"                     A'
 Frequencies --    796.6261               856.0668               857.2851
 Red. masses --      1.9386                 1.5126                 1.2607
 Frc consts  --      0.7249                 0.6531                 0.5459
 IR Inten    --     84.7617                 0.6321               104.5887

                     10                     11                     12
                     A'                     A'                     A'
 Frequencies --    954.9796               984.4475              1046.1085
 Red. masses --      1.1149                 1.3954                 1.8589
 Frc consts  --      0.5990                 0.7968                 1.1986
 IR Inten    --    464.3121                41.1358               114.3198

                     13                     14                     15
                     A'                     A'                     A"
 Frequencies --   1220.0010              1516.3118              1698.2397
 Red. masses --      5.6439                 4.7045                 1.0528
 Frc consts  --      4.9494                 6.3729                 1.7889
 IR Inten    --     17.6380               309.7251               784.3071

                     16                     17                     18
                     A'                     A'                     A'
 Frequencies --   2214.4703              2604.5664              2826.6191
 Red. masses --      1.1865                 1.1060                 1.1362
 Frc consts  --      3.4280                 4.4205                 5.3486
 IR Inten    --   1132.4202               784.4970               514.5069

 - Thermochemistry -
 -------------------
 Temperature   298.150 Kelvin.  Pressure   1.00000 Atm.
 Atom     1 has atomic number  6 and mass  12.00000

 Molecular mass:    52.03130 amu.
 Principal axes and moments of inertia in atomic units:
                           1         2         3
     Eigenvalues --    76.01069 179.99146 245.82261
           X            0.99889  -0.04701   0.00000
           Y            0.04701   0.99889   0.00000
           Z           -0.00000   0.00000   1.00000
 This molecule is an asymmetric top.
 Rotational symmetry number  1.
 Rotational temperatures (Kelvin)      1.13950     0.48121     0.35234
 Rotational constants (GHZ):          23.74326    10.02682     7.34164
 Zero-point vibrational energy     124785.4 (Joules/Mol)
                                   29.82441 (Kcal/Mol)
 Warning -- explicit consideration of   3 degrees of freedom as
           vibrations may cause significant error
 Vibrational temperatures:    496.50   501.86   720.04   951.43   972.32
          (Kelvin)           1086.76  1146.17  1231.69  1233.44  1374.00
                             1416.40  1505.11  1755.31  2181.63  2443.39
                             3186.12  3747.39  4066.87

 Zero-point correction=                           0.047528 (Hartree/Particle)
 Thermal correction to Energy=                    0.052001
 Thermal correction to Enthalpy=                  0.052945
 Thermal correction to Gibbs Free Energy=         0.021242
 Sum of electronic and zero-point Energies=           -152.866573
 Sum of electronic and thermal Energies=              -152.862100
 Sum of electronic and thermal Enthalpies=            -152.861156
 Sum of electronic and thermal Free Energies=         -152.892859

                     E (Thermal)             CV                S
                      KCal/Mol        Cal/Mol-Kelvin    Cal/Mol-Kelvin
 Total                   32.631             16.122             66.725
 Electronic               0.000              0.000              1.377
 Translational            0.889              2.981             37.771
 Rotational               0.889              2.981             22.735
 Vibrational             30.854             10.160              4.841
 Vibration     1          0.723              1.585              1.189
 Vibration     2          0.726              1.578              1.172
 Vibration     3          0.856              1.249              0.657

 Optimization completed.
    -- Stationary point found.
 Normal termination of Gaussian 09 at Tue Jul 19 21:51:05 2016.
