 Gaussian 09, Revision E.01,
 Gaussian 09:  EM64L-G09RevE.01 30-Nov-2015

 ---------------------------------------------
 #p b3lyp/6-311++G(3df,2p) freq symmetry=Loose
 ---------------------------------------------

 ---------
 b3lyp opt
 ---------
 Symbolic Z-matrix:
 Charge =  2 Multiplicity = 1

                         Standard orientation:
 ---------------------------------------------------------------------
 Center     Atomic      Atomic             Coordinates (Angstroms)
 Number     Number       Type             X           Y           Z
 ---------------------------------------------------------------------
      1          6           0       -1.788236    0.084336   -0.187535
      2          1           0       -2.848572    0.189719   -0.433108
      3          6           0       -0.622390   -0.206548    0.172040
      4          1           0       -0.885645   -1.205505    0.653500
      5          6           0        0.778449    0.311645    0.181539
      6          1           0        1.210845    0.444339    1.232505
      7          1           0        0.915246    1.333454   -0.293374
      8          6           0        1.900198   -0.316435   -0.359298
 ---------------------------------------------------------------------

 SCF Done:  E(RB3LYP) =  -153.747219471     A.U. after   12 cycles

 The electronic state is 1-A.
 Alpha  occ. eigenvalues --  -10.83528 -10.76886 -10.71655 -10.71615  -1.35084
 Alpha  occ. eigenvalues --   -1.28823  -1.09217  -1.02507  -0.98456  -0.96202
 Alpha  occ. eigenvalues --   -0.90750  -0.81813  -0.78459
 Alpha virt. eigenvalues --   -0.61927  -0.58957  -0.57658  -0.47771  -0.35379
 Alpha virt. eigenvalues --   -0.34676  -0.32427  -0.30028  -0.28347  -0.27035
 Alpha virt. eigenvalues --   -0.26484  -0.24612  -0.22223  -0.21988  -0.20261

 Mulliken charges:
               1
     1  C    0.190265
     2  H    0.435750
     3  C    0.214214
     4  H    0.256659
     5  C    0.117656
     6  H    0.329538
     7  H    0.303719
     8  C    0.152198
 Sum of Mulliken charges =   2.00000

 Dipole moment (field-independent basis, Debye):
    X=             -1.7528    Y=              0.5221    Z=              0.4582  Tot=              1.8854
 Quadrupole moment (field-independent basis, Debye-Ang):
   XX=              7.8445   YY=            -14.6350   ZZ=            -17.1713
   XY=              1.8776   XZ=              2.7664   YZ=             -1.7382

  Exact polarizability:  48.936  -2.680  28.671   1.425  -0.615  27.524
 Approx polarizability:  74.820 -10.004  47.699   4.138  -1.715  44.353

                      1                      2                      3
                      A                      A                      A
 Frequencies --     58.3081               179.2858               250.7587
 Red. masses --      2.5248                 2.5696                 3.4026
 Frc consts  --      0.0051                 0.0487                 0.1261
 IR Inten    --      3.4905                23.8853                12.2172

                      4                      5                      6
                      A                      A                      A
 Frequencies --    379.6960               560.5688               710.5356
 Red. masses --      1.5069                 1.5181                 1.3294
 Frc consts  --      0.1280                 0.2811                 0.3954
 IR Inten    --      3.3269                68.4039                36.4961

                      7                      8                      9
                      A                      A                      A
 Frequencies --    762.4763               824.0389               962.9663
 Red. masses --      3.2673                 1.2354                 1.3530
 Frc consts  --      1.1192                 0.4943                 0.7392
 IR Inten    --     22.7611                12.0338                12.7738

                     10                     11                     12
                      A                      A                      A
 Frequencies --   1031.9346              1075.3743              1224.5843
 Red. masses --      1.4141                 1.2392                 1.0950
 Frc consts  --      0.8873                 0.8443                 0.9675
 IR Inten    --      3.5192                 3.1443                84.8600

                     13                     14                     15
                      A                      A                      A
 Frequencies --   1431.1257              1907.3028              2634.0830
 Red. masses --      4.9654                 5.6601                 1.0715
 Frc consts  --      5.9918                12.1315                 4.3801
 IR Inten    --    233.4683                72.5985               232.2143

                     16                     17                     18
                      A                      A                      A
 Frequencies --   2692.3722              2709.0493              3162.7166
 Red. masses --      1.0727                 1.0721                 1.1515
 Frc consts  --      4.5813                 4.6357                 6.7864
 IR Inten    --    110.1360               330.4153               312.4888

 - Thermochemistry -
 -------------------
 Temperature   298.150 Kelvin.  Pressure   1.00000 Atm.
 Atom     1 has atomic number  6 and mass  12.00000

 Molecular mass:    52.03130 amu.
 Principal axes and moments of inertia in atomic units:
                           1         2         3
     Eigenvalues --    40.33020 391.41031 398.48043
           X            0.99957   0.02791   0.00924
           Y           -0.02291   0.93632  -0.35039
           Z           -0.01844   0.35003   0.93656
 This molecule is an asymmetric top.
 Rotational symmetry number  1.
 Rotational temperatures (Kelvin)      2.14762     0.22129     0.21736
 Rotational constants (GHZ):          44.74913     4.61087     4.52906
 Zero-point vibrational energy     134921.9 (Joules/Mol)
                                   32.24710 (Kcal/Mol)
 Warning -- explicit consideration of   5 degrees of freedom as
           vibrations may cause significant error
 Vibrational temperatures:     83.89   257.95   360.79   546.30   806.53
          (Kelvin)           1022.30  1097.03  1185.61  1385.49  1484.72
                             1547.22  1761.90  2059.07  2744.18  3789.85
                             3873.72  3897.71  4550.44

 Zero-point correction=                           0.051389 (Hartree/Particle)
 Thermal correction to Energy=                    0.057027
 Thermal correction to Enthalpy=                  0.057971
 Thermal correction to Gibbs Free Energy=         0.023617
 Sum of electronic and zero-point Energies=           -153.695830
 Sum of electronic and thermal Energies=              -153.690193
 Sum of electronic and thermal Enthalpies=            -153.689249
 Sum of electronic and thermal Free Energies=         -153.723602

                     E (Thermal)             CV                S
                      KCal/Mol        Cal/Mol-Kelvin    Cal/Mol-Kelvin
 Total                   35.785             17.700             72.303
 Electronic               0.000              0.000              0.000
 Translational            0.889              2.981             37.771
 Rotational               0.889              2.981             23.357
 Vibrational             34.007             11.738             11.175
 Vibration     1          0.596              1.974              4.514
 Vibration     2          0.629              1.868              2.336
 Vibration     3          0.663              1.761              1.725
 Vibration     4          0.750              1.513              1.040
 Vibration     5          0.916              1.117              0.523

 Normal termination of Gaussian 09 at Tue Jun 21 23:06:14 2016.
