 Gaussian 09, Revision E.01,
 Gaussian 09:  EM64L-G09RevE.01 30-Nov-2015

 ---------------------------------------------
 #p b3lyp/6-311++G(3df,2p) freq symmetry=Loose
 ---------------------------------------------

 ---------
 b3lyp opt
 ---------
 Symbolic Z-matrix:
 Charge =  3 Multiplicity = 4

                         Standard orientation:
 ---------------------------------------------------------------------
 Center     Atomic      Atomic             Coordinates (Angstroms)
 Number     Number       Type             X           Y           Z
 ---------------------------------------------------------------------
      1          6           0        1.041438   -0.058709    0.000228
      2          6           0       -1.005474   -0.078827    0.000189
      3          6           0        0.091114   -1.187651   -0.000564
      4          1           0       -1.623272   -0.141295   -1.025138
      5          1           0       -1.622218   -0.141777    1.026135
      6          1           0        2.227786   -0.101460    0.000981
      7          6           0        0.035973    1.030033   -0.000224
      8          1           0        0.039397    2.155454    0.000249
 ---------------------------------------------------------------------

 SCF Done:  E(UB3LYP) =  -152.791998399     A.U. after   15 cycles

 The electronic state is 4-A.
 Alpha  occ. eigenvalues --  -11.15233 -11.10160 -11.08730 -11.05180  -1.73555
 Alpha  occ. eigenvalues --   -1.47473  -1.46464  -1.29633  -1.26505  -1.25098
 Alpha  occ. eigenvalues --   -1.23033  -1.14404  -1.11259  -1.10529
 Alpha virt. eigenvalues --   -0.93440  -0.80141  -0.65876  -0.62343  -0.60657
 Alpha virt. eigenvalues --   -0.56389  -0.55445  -0.54075  -0.52385  -0.48872
 Alpha virt. eigenvalues --   -0.44019  -0.43422  -0.42939  -0.41486  -0.38982

  Beta  occ. eigenvalues --  -11.12603 -11.09751 -11.07419 -11.04399  -1.69219
  Beta  occ. eigenvalues --   -1.43029  -1.42183  -1.23897  -1.22836  -1.20554
  Beta  occ. eigenvalues --   -1.19540
  Beta virt. eigenvalues --   -1.02508  -0.98298  -0.90775  -0.89271  -0.73567
  Beta virt. eigenvalues --   -0.61708  -0.60488  -0.58541  -0.53403  -0.53214
  Beta virt. eigenvalues --   -0.52071  -0.48941  -0.47207  -0.43464  -0.42253

 Mulliken charges and spin densities:
               1          2
     1  C    0.204937   0.779735
     2  C   -0.079589   0.377135
     3  C    0.708924   1.202614
     4  H    0.367459   0.156112
     5  H    0.367346   0.156008
     6  H    0.414859   0.145294
     7  C    0.559432   0.160298
     8  H    0.456632   0.022804
 Sum of Mulliken charges =   3.00000   3.00000

 Dipole moment (field-independent basis, Debye):
    X=             -0.2404    Y=              0.8448    Z=              0.0017  Tot=              0.8783
 Quadrupole moment (field-independent basis, Debye-Ang):
   XX=              4.8543   YY=             -2.4887   ZZ=            -13.3736
   XY=              0.1878   XZ=              0.0031   YZ=              0.0007

  Exact polarizability:  47.949   0.485  33.919   0.004   0.001  21.998
 Approx polarizability:  97.835   2.156  66.347   0.005   0.004  33.675

                      1                      2                      3
                      A                      A                      A
 Frequencies --    249.6043               270.6534               551.2933
 Red. masses --      5.0361                 2.1708                 1.1881
 Frc consts  --      0.1849                 0.0937                 0.2128
 IR Inten    --    137.9673                 2.4420               142.4666

                      4                      5                      6
                      A                      A                      A
 Frequencies --    633.4594               708.0610               770.3833
 Red. masses --      2.0543                 1.1153                 3.3316
 Frc consts  --      0.4857                 0.3294                 1.1650
 IR Inten    --    227.8664                13.1941                31.6247

                      7                      8                      9
                      A                      A                      A
 Frequencies --    822.2588               835.3451               848.9672
 Red. masses --      2.9247                 1.2121                 1.5647
 Frc consts  --      1.1651                 0.4984                 0.6644
 IR Inten    --      3.3385                23.5782                 4.4777

                     10                     11                     12
                      A                      A                      A
 Frequencies --    912.1281               923.3323               964.8658
 Red. masses --      1.5446                 1.7438                 1.6814
 Frc consts  --      0.7572                 0.8759                 0.9223
 IR Inten    --     46.6698                18.2203                 5.2868

                     13                     14                     15
                      A                      A                      A
 Frequencies --   1060.3422              1111.9484              2001.0310
 Red. masses --      1.6696                 2.1035                 1.0707
 Frc consts  --      1.1060                 1.5323                 2.5259
 IR Inten    --     13.0163                74.7628              3226.4747

                     16                     17                     18
                      A                      A                      A
 Frequencies --   2029.5339              2221.9753              2815.7881
 Red. masses --      1.1350                 1.0788                 1.1095
 Frc consts  --      2.7546                 3.1381                 5.1830
 IR Inten    --    728.9768               255.8036               468.0539

 - Thermochemistry -
 -------------------
 Temperature   298.150 Kelvin.  Pressure   1.00000 Atm.
 Atom     1 has atomic number  6 and mass  12.00000

 Molecular mass:    52.03130 amu.
 Principal axes and moments of inertia in atomic units:
                           1         2         3
     Eigenvalues --   130.34281 134.78471 249.98385
           X            0.97224   0.23399  -0.00005
           Y           -0.23399   0.97224  -0.00014
           Z            0.00001   0.00015   1.00000
 This molecule is an asymmetric top.
 Rotational symmetry number  1.
 Rotational temperatures (Kelvin)      0.66451     0.64261     0.34648
 Rotational constants (GHZ):          13.84611    13.38981     7.21943
 Zero-point vibrational energy     118017.4 (Joules/Mol)
                                   28.20684 (Kcal/Mol)
 Warning -- explicit consideration of   3 degrees of freedom as
           vibrations may cause significant error
 Vibrational temperatures:    359.12   389.41   793.19   911.41  1018.74
          (Kelvin)           1108.41  1183.05  1201.87  1221.47  1312.35
                             1328.47  1388.22  1525.59  1599.84  2879.03
                             2920.04  3196.92  4051.29

 Zero-point correction=                           0.044950 (Hartree/Particle)
 Thermal correction to Energy=                    0.049660
 Thermal correction to Enthalpy=                  0.050604
 Thermal correction to Gibbs Free Energy=         0.017648
 Sum of electronic and zero-point Energies=           -152.747048
 Sum of electronic and thermal Energies=              -152.742338
 Sum of electronic and thermal Enthalpies=            -152.741394
 Sum of electronic and thermal Free Energies=         -152.774351

                     E (Thermal)             CV                S
                      KCal/Mol        Cal/Mol-Kelvin    Cal/Mol-Kelvin
 Total                   31.162             16.832             69.363
 Electronic               0.000              0.000              2.755
 Translational            0.889              2.981             37.771
 Rotational               0.889              2.981             23.000
 Vibrational             29.385             10.870              5.837
 Vibration     1          0.662              1.763              1.733
 Vibration     2          0.674              1.727              1.592
 Vibration     3          0.907              1.137              0.541

 Normal termination of Gaussian 09 at Wed Jun 22 00:32:39 2016.
