 Gaussian 09, Revision E.01,
 Gaussian 09:  EM64L-G09RevE.01 30-Nov-2015

 ---------------------------------------------
 #p b3lyp/6-311++G(3df,2p) freq symmetry=Loose
 ---------------------------------------------

 ---------
 b3lyp opt
 ---------
 Symbolic Z-matrix:
 Charge =  1 Multiplicity = 2

                         Standard orientation:
 ---------------------------------------------------------------------
 Center     Atomic      Atomic             Coordinates (Angstroms)
 Number     Number       Type             X           Y           Z
 ---------------------------------------------------------------------
      1          6           0        1.306885    1.058483   -0.000000
      2          1           0        1.513589    2.121235   -0.000000
      3          1           0        2.149103    0.377714   -0.000000
      4          6           0       -0.000000    0.597413    0.000000
      5          1           0       -0.818084    1.308099    0.000000
      6          6           0       -1.562342   -1.252729    0.000000
      7          6           0       -0.298353   -0.778708    0.000000
      8          1           0        0.478252   -1.553801   -0.000000
 ---------------------------------------------------------------------

 SCF Done:  E(UB3LYP) =  -154.372725752     A.U. after   18 cycles

 The electronic state is 2-A".
 Alpha  occ. eigenvalues --  -10.53008 -10.47803 -10.47236 -10.45699  -1.10290
 Alpha  occ. eigenvalues --   -1.01700  -0.86612  -0.80239  -0.72550  -0.69332
 Alpha  occ. eigenvalues --   -0.63800  -0.62011  -0.55099  -0.52530
 Alpha virt. eigenvalues --   -0.35979  -0.31949  -0.20721  -0.15667  -0.15120
 Alpha virt. eigenvalues --   -0.12773  -0.10357  -0.10076  -0.08998  -0.07772
 Alpha virt. eigenvalues --   -0.06131  -0.05785  -0.04331  -0.03984  -0.03363

  Beta  occ. eigenvalues --  -10.52434 -10.47681 -10.46530 -10.45568  -1.09208
  Beta  occ. eigenvalues --   -0.99537  -0.85506  -0.79857  -0.72158  -0.68653
  Beta  occ. eigenvalues --   -0.63555  -0.58714  -0.54194
  Beta virt. eigenvalues --   -0.42608  -0.35298  -0.27467  -0.18695  -0.15536
  Beta virt. eigenvalues --   -0.15070  -0.12550  -0.09929  -0.09918  -0.08909
  Beta virt. eigenvalues --   -0.07665  -0.05734  -0.05641  -0.03875  -0.03552

 Mulliken charges and spin densities:
               1          2
     1  C   -0.271964   0.465130
     2  H    0.232490  -0.013337
     3  H    0.204821  -0.012179
     4  C    0.272182   0.105198
     5  H    0.221575  -0.001672
     6  C   -0.152486   0.328518
     7  C    0.286584   0.132846
     8  H    0.206799  -0.004504
 Sum of Mulliken charges =   1.00000   1.00000

 Dipole moment (field-independent basis, Debye):
    X=              2.2042    Y=              0.9000    Z=             -0.0000  Tot=              2.3809
 Quadrupole moment (field-independent basis, Debye-Ang):
   XX=            -16.2170   YY=            -12.8590   ZZ=            -23.1099
   XY=              1.9949   XZ=              0.0000   YZ=             -0.0000

  Exact polarizability:  58.012  20.315  55.122  -0.000  -0.000  27.532
 Approx polarizability:  93.952  36.042  86.837  -0.000  -0.000  39.056

                      1                      2                      3
                     A"                     A'                     A'
 Frequencies --    183.8579               184.8308               430.2764
 Red. masses --      4.4744                 5.5053                 2.6654
 Frc consts  --      0.0891                 0.1108                 0.2907
 IR Inten    --      2.2783                 9.4533                 1.4278

                      4                      5                      6
                     A"                     A"                     A"
 Frequencies --    438.6246               762.2516               967.3098
 Red. masses --      1.1332                 1.4798                 1.1373
 Frc consts  --      0.1284                 0.5066                 0.6270
 IR Inten    --      6.4902                 1.8950                48.9190

                      7                      8                      9
                     A'                     A'                     A"
 Frequencies --    969.6576               996.7634              1051.7925
 Red. masses --      1.5795                 1.3714                 1.4608
 Frc consts  --      0.8750                 0.8028                 0.9521
 IR Inten    --      0.1511                 0.3476                10.2327

                     10                     11                     12
                     A'                     A'                     A'
 Frequencies --   1224.6687              1285.2129              1405.1598
 Red. masses --      2.1220                 1.9347                 1.8648
 Frc consts  --      1.8751                 1.8828                 2.1694
 IR Inten    --      3.8821                71.3961               159.7555

                     13                     14                     15
                     A'                     A'                     A'
 Frequencies --   1507.8846              1617.2521              3043.7871
 Red. masses --      1.3852                 4.3496                 1.0836
 Frc consts  --      1.8556                 6.7028                 5.9147
 IR Inten    --     31.2053                67.9767                57.9985

                     16                     17                     18
                     A'                     A'                     A'
 Frequencies --   3142.1681              3178.4868              3250.4738
 Red. masses --      1.0559                 1.0931                 1.1215
 Frc consts  --      6.1426                 6.5064                 6.9815
 IR Inten    --     17.8789                13.4535                14.2533

 - Thermochemistry -
 -------------------
 Temperature   298.150 Kelvin.  Pressure   1.00000 Atm.
 Atom     1 has atomic number  6 and mass  12.00000

 Molecular mass:    52.03130 amu.
 Principal axes and moments of inertia in atomic units:
                           1         2         3
     Eigenvalues --    37.45522 359.25650 396.71172
           X            0.73003  -0.68341   0.00000
           Y            0.68341   0.73003   0.00000
           Z           -0.00000   0.00000   1.00000
 This molecule is an asymmetric top.
 Rotational symmetry number  1.
 Rotational temperatures (Kelvin)      2.31246     0.24109     0.21833
 Rotational constants (GHZ):          48.18398     5.02354     4.54925
 Zero-point vibrational energy     153364.0 (Joules/Mol)
                                   36.65488 (Kcal/Mol)
 Warning -- explicit consideration of   4 degrees of freedom as
           vibrations may cause significant error
 Vibrational temperatures:    264.53   265.93   619.07   631.08  1096.71
          (Kelvin)           1391.74  1395.12  1434.12  1513.29  1762.02
                             1849.13  2021.71  2169.51  2326.86  4379.33
                             4520.87  4573.13  4676.70

 Zero-point correction=                           0.058413 (Hartree/Particle)
 Thermal correction to Energy=                    0.063255
 Thermal correction to Enthalpy=                  0.064199
 Thermal correction to Gibbs Free Energy=         0.031260
 Sum of electronic and zero-point Energies=           -154.314312
 Sum of electronic and thermal Energies=              -154.309471
 Sum of electronic and thermal Enthalpies=            -154.308527
 Sum of electronic and thermal Free Energies=         -154.341465

                     E (Thermal)             CV                S
                      KCal/Mol        Cal/Mol-Kelvin    Cal/Mol-Kelvin
 Total                   39.693             15.291             69.325
 Electronic               0.000              0.000              1.377
 Translational            0.889              2.981             37.771
 Rotational               0.889              2.981             23.194
 Vibrational             37.915              9.330              6.982
 Vibration     1          0.631              1.862              2.289
 Vibration     2          0.631              1.861              2.279
 Vibration     3          0.791              1.404              0.858
 Vibration     4          0.799              1.386              0.831

 Optimization completed.
    -- Stationary point found.
 Normal termination of Gaussian 09 at Tue Jul 19 23:00:40 2016.
