 Gaussian 09, Revision E.01,
 Gaussian 09:  EM64L-G09RevE.01 30-Nov-2015

 ---------------------------------------------
 #p b3lyp/6-311++G(3df,2p) freq symmetry=Loose
 ---------------------------------------------

 ---------
 b3lyp opt
 ---------
 Symbolic Z-matrix:
 Charge =  2 Multiplicity = 3

                         Standard orientation:
 ---------------------------------------------------------------------
 Center     Atomic      Atomic             Coordinates (Angstroms)
 Number     Number       Type             X           Y           Z
 ---------------------------------------------------------------------
      1          6           0        0.000000    0.000000    0.118127
      2          6           0        0.000000   -1.252735   -0.552706
      3          1           0        0.000000   -2.196267   -0.001658
      4          1           0        0.000000   -1.301267   -1.646153
      5          6           0        0.000000    0.000000    1.536555
      6          6           0        0.000000    1.252735   -0.552706
      7          1           0        0.000000    1.301267   -1.646153
      8          1           0        0.000000    2.196267   -0.001658
 ---------------------------------------------------------------------

 SCF Done:  E(UB3LYP) =  -153.730628130     A.U. after   17 cycles

 The electronic state is 3-B2.
 Alpha  occ. eigenvalues --  -10.82751 -10.75575 -10.75574 -10.74003  -1.35995
 Alpha  occ. eigenvalues --   -1.19886  -1.18510  -1.01734  -0.96858  -0.94355
 Alpha  occ. eigenvalues --   -0.89579  -0.86847  -0.85649  -0.75489
 Alpha virt. eigenvalues --   -0.63921  -0.62367  -0.43413  -0.34010  -0.31052
 Alpha virt. eigenvalues --   -0.29357  -0.29086  -0.27289  -0.26995  -0.25358
 Alpha virt. eigenvalues --   -0.24308  -0.20822  -0.20784  -0.20679  -0.19159

  Beta  occ. eigenvalues --  -10.79068 -10.75512 -10.75511 -10.73750  -1.34245
  Beta  occ. eigenvalues --   -1.19548  -1.14023  -1.00470  -0.95739  -0.90998
  Beta  occ. eigenvalues --   -0.89437  -0.84962
  Beta virt. eigenvalues --   -0.66391  -0.62718  -0.59936  -0.54322  -0.42024
  Beta virt. eigenvalues --   -0.33798  -0.30501  -0.29198  -0.28621  -0.26949
  Beta virt. eigenvalues --   -0.26002  -0.25258  -0.23394  -0.20646  -0.20481

 Mulliken charges and spin densities:
               1          2
     1  C    1.162034   0.024412
     2  C   -0.301087   0.057981
     3  H    0.293112   0.002588
     4  H    0.285811   0.018949
     5  C    0.282295   1.816553
     6  C   -0.301087   0.057981
     7  H    0.285811   0.018949
     8  H    0.293112   0.002588
 Sum of Mulliken charges =   2.00000   2.00000

 Dipole moment (field-independent basis, Debye):
    X=              0.0000    Y=              0.0000    Z=             -0.6515  Tot=              0.6515
 Quadrupole moment (field-independent basis, Debye-Ang):
   XX=            -19.1719   YY=             -1.5362   ZZ=             -5.6711
   XY=              0.0000   XZ=             -0.0000   YZ=             -0.0000

  Exact polarizability:  21.145   0.000  44.113   0.000  -0.000  42.890
 Approx polarizability:  31.417   0.000  66.068  -0.000  -0.000  71.797

                      1                      2                      3
                     B1                     B1                     A1
 Frequencies --    325.4645               409.9299               411.7232
 Red. masses --      1.1058                 3.6493                 2.2206
 Frc consts  --      0.0690                 0.3613                 0.2218
 IR Inten    --      0.3990                27.0229                 0.0265

                      4                      5                      6
                     A2                     B2                     A1
 Frequencies --    432.3910               464.5099               939.0864
 Red. masses --      1.0094                 4.4365                 4.5509
 Frc consts  --      0.1112                 0.5640                 2.3646
 IR Inten    --      0.0000                 3.9431                 4.2021

                      7                      8                      9
                     B2                     A1                     A2
 Frequencies --    962.3479              1009.4178              1170.1974
 Red. masses --      1.3086                 1.9056                 1.3179
 Frc consts  --      0.7140                 1.1440                 1.0633
 IR Inten    --     15.2176                41.5098                 0.0000

                     10                     11                     12
                     B1                     A1                     B2
 Frequencies --   1196.8835              1236.1206              1331.2162
 Red. masses --      1.4522                 3.7697                 3.3760
 Frc consts  --      1.2257                 3.3938                 3.5249
 IR Inten    --     13.6678                70.9363               306.7587

                     13                     14                     15
                     B2                     A1                     B2
 Frequencies --   1476.4872              1491.9501              3050.7639
 Red. masses --      1.3218                 1.1713                 1.0586
 Frc consts  --      1.6977                 1.5361                 5.8048
 IR Inten    --      0.7082                 2.8898               114.6197

                     16                     17                     18
                     A1                     B2                     A1
 Frequencies --   3055.5421              3163.5532              3166.5386
 Red. masses --      1.0561                 1.1237                 1.1265
 Frc consts  --      5.8092                 6.6258                 6.6548
 IR Inten    --     55.1614                51.8790               137.5246

 - Thermochemistry -
 -------------------
 Temperature   298.150 Kelvin.  Pressure   1.00000 Atm.
 Atom     1 has atomic number  6 and mass  12.00000

 Molecular mass:    52.03130 amu.
 Principal axes and moments of inertia in atomic units:
                           1         2         3
     Eigenvalues --   146.72670 181.41020 328.13690
           X            0.00000   0.00000   1.00000
           Y            1.00000   0.00000  -0.00000
           Z           -0.00000   1.00000   0.00000
 This molecule is an asymmetric top.
 Rotational symmetry number  2.
 Rotational temperatures (Kelvin)      0.59031     0.47745     0.26396
 Rotational constants (GHZ):          12.30002     9.94840     5.49996
 Zero-point vibrational energy     151292.5 (Joules/Mol)
                                   36.15976 (Kcal/Mol)
 Warning -- explicit consideration of   5 degrees of freedom as
           vibrations may cause significant error
 Vibrational temperatures:    468.27   589.80   592.38   622.11   668.33
          (Kelvin)           1351.13  1384.60  1452.33  1683.65  1722.05
                             1778.50  1915.32  2124.33  2146.58  4389.36
                             4396.24  4551.64  4555.94

 Zero-point correction=                           0.057624 (Hartree/Particle)
 Thermal correction to Energy=                    0.062170
 Thermal correction to Enthalpy=                  0.063114
 Thermal correction to Gibbs Free Energy=         0.031050
 Sum of electronic and zero-point Energies=           -153.673004
 Sum of electronic and thermal Energies=              -153.668458
 Sum of electronic and thermal Enthalpies=            -153.667514
 Sum of electronic and thermal Free Energies=         -153.699578

                     E (Thermal)             CV                S
                      KCal/Mol        Cal/Mol-Kelvin    Cal/Mol-Kelvin
 Total                   39.012             15.351             67.486
 Electronic               0.000              0.000              2.183
 Translational            0.889              2.981             37.771
 Rotational               0.889              2.981             22.306
 Vibrational             37.235              9.389              5.226
 Vibration     1          0.710              1.625              1.283
 Vibration     2          0.774              1.449              0.927
 Vibration     3          0.776              1.445              0.921
 Vibration     4          0.793              1.400              0.851
 Vibration     5          0.822              1.329              0.753

 Optimization completed.
    -- Stationary point found.
 Normal termination of Gaussian 09 at Tue Jul 19 18:40:59 2016.
