 Gaussian 09, Revision E.01,
 Gaussian 09:  EM64L-G09RevE.01 30-Nov-2015

 ------------------------------------------------------
 #p b3lyp/6-311++G(3df,2p) freq IOp(2/17=3) IOp(2/18=3)
 ------------------------------------------------------

 ---------
 b3lyp opt
 ---------
 Symbolic Z-matrix:
 Charge =  3 Multiplicity = 2

                         Standard orientation:
 ---------------------------------------------------------------------
 Center     Atomic      Atomic             Coordinates (Angstroms)
 Number     Number       Type             X           Y           Z
 ---------------------------------------------------------------------
      1          6           0       -0.996095   -0.542677    0.000000
      2          1           0       -0.687897   -1.653376    0.000000
      3          6           0        1.402352    0.320438    0.000000
      4          6           0        2.669092    0.304117    0.000000
      5          6           0       -2.306480   -0.655857    0.000000
      6          1           0       -3.400983   -0.901987    0.000000
      7          6           0        0.000000    0.549028    0.000000
      8          1           0       -0.262036    1.352516    0.791910
      9          1           0       -0.262036    1.352516   -0.791910
 ---------------------------------------------------------------------

 SCF Done:  E(UB3LYP) =  -191.016484101     A.U. after   24 cycles

 The electronic state is 2-A'.
 Alpha  occ. eigenvalues --  -11.02698 -10.99496 -10.95362 -10.93235 -10.92954
 Alpha  occ. eigenvalues --   -1.54050  -1.49095  -1.41975  -1.26039  -1.21693
 Alpha  occ. eigenvalues --   -1.18518  -1.11605  -1.09966  -1.05555  -0.98988
 Alpha  occ. eigenvalues --   -0.97500
 Alpha virt. eigenvalues --   -0.90319  -0.80765  -0.67882  -0.66448  -0.65913
 Alpha virt. eigenvalues --   -0.52766  -0.51592  -0.50789  -0.45932  -0.44769
 Alpha virt. eigenvalues --   -0.43714  -0.41348  -0.40201  -0.38906  -0.36868

  Beta  occ. eigenvalues --  -11.03557 -10.96330 -10.95541 -10.93103 -10.92517
  Beta  occ. eigenvalues --   -1.55269  -1.47834  -1.39595  -1.26740  -1.21343
  Beta  occ. eigenvalues --   -1.19012  -1.11911  -1.11210  -1.01885  -0.95196
  Beta virt. eigenvalues --   -0.84592  -0.81906  -0.80755  -0.71697  -0.62507
  Beta virt. eigenvalues --   -0.59264  -0.52877  -0.52138  -0.50770  -0.45894
  Beta virt. eigenvalues --   -0.44802  -0.43654  -0.41206  -0.40207  -0.38931

 Mulliken charges and spin densities:
               1          2
     1  C   -0.004430  -0.161939
     2  H    0.295926   0.010408
     3  C    0.767371   0.339854
     4  C    0.618476   1.356933
     5  C    0.446825  -0.453457
     6  H    0.513742   0.011562
     7  C   -0.342457  -0.006600
     8  H    0.352273  -0.048381
     9  H    0.352273  -0.048381
 Sum of Mulliken charges =   3.00000   1.00000

 Dipole moment (field-independent basis, Debye):
    X=             -3.8021    Y=             -0.7514    Z=              0.0000  Tot=              3.8757
 Quadrupole moment (field-independent basis, Debye-Ang):
   XX=             43.1235   YY=             -9.9901   ZZ=            -20.9169
   XY=             13.6765   XZ=              0.0000   YZ=             -0.0000

  Exact polarizability: 115.960  23.088  42.094   0.000   0.000  25.694
 Approx polarizability: 259.851  49.277  67.824  -0.000  -0.000  38.108

                      1                      2                      3
                     A"                     A'                     A'
 Frequencies --    156.0666               171.5247               286.6286
 Red. masses --      2.5465                 4.9221                 3.1796
 Frc consts  --      0.0365                 0.0853                 0.1539
 IR Inten    --      1.5708                 7.5664                10.6476

                      4                      5                      6
                     A"                     A'                     A"
 Frequencies --    329.4651               472.9268               517.9033
 Red. masses --      2.4732                 5.9149                 1.5786
 Frc consts  --      0.1582                 0.7794                 0.2495
 IR Inten    --     46.4255                22.5035               115.2274

                      7                      8                      9
                     A'                     A"                     A"
 Frequencies --    646.1827               670.1588               690.6661
 Red. masses --      2.2306                 1.3378                 1.6918
 Frc consts  --      0.5488                 0.3540                 0.4755
 IR Inten    --    257.5097                28.5354                 0.7266

                     10                     11                     12
                     A'                     A"                     A'
 Frequencies --    834.1534               916.8494               956.7891
 Red. masses --      1.1742                 1.2752                 1.8875
 Frc consts  --      0.4814                 0.6316                 1.0181
 IR Inten    --    300.7977                 0.6197                15.6269

                     13                     14                     15
                     A'                     A'                     A'
 Frequencies --   1020.1517              1032.0861              1223.5242
 Red. masses --      1.5162                 1.5415                 2.0910
 Frc consts  --      0.9297                 0.9674                 1.8443
 IR Inten    --     29.8371                16.1831               235.0921

                     16                     17                     18
                     A'                     A'                     A"
 Frequencies --   1562.7631              1932.2044              2341.2981
 Red. masses --      4.9376                11.2309                 1.0601
 Frc consts  --      7.1048                24.7042                 3.4239
 IR Inten    --   1053.2941               432.2630               352.2276

                     19                     20                     21
                     A'                     A'                     A'
 Frequencies --   2512.5869              2555.5990              2882.2251
 Red. masses --      1.0759                 1.0771                 1.1389
 Frc consts  --      4.0020                 4.1446                 5.5742
 IR Inten    --    861.2217               127.4262               634.7694

 - Thermochemistry -
 -------------------
 Temperature   298.150 Kelvin.  Pressure   1.00000 Atm.
 Atom     1 has atomic number  6 and mass  12.00000

 Molecular mass:    64.03130 amu.
 Principal axes and moments of inertia in atomic units:
                           1         2         3
     Eigenvalues --    46.57815 743.42188 780.97196
           X            0.97368  -0.22793   0.00000
           Y            0.22793   0.97368   0.00000
           Z            0.00000   0.00000   1.00000
 This molecule is an asymmetric top.
 Rotational symmetry number  1.
 Rotational temperatures (Kelvin)      1.85954     0.11651     0.11091
 Rotational constants (GHZ):          38.74652     2.42761     2.31089
 Zero-point vibrational energy     141827.8 (Joules/Mol)
                                   33.89765 (Kcal/Mol)
 Warning -- explicit consideration of   6 degrees of freedom as
           vibrations may cause significant error
 Vibrational temperatures:    224.54   246.79   412.39   474.03   680.44
          (Kelvin)            745.15   929.71   964.21   993.71  1200.16
                             1319.14  1376.60  1467.77  1484.94  1760.38
                             2248.46  2780.01  3368.60  3615.05  3676.93
                             4146.87

 Zero-point correction=                           0.054019 (Hartree/Particle)
 Thermal correction to Energy=                    0.059997
 Thermal correction to Enthalpy=                  0.060941
 Thermal correction to Gibbs Free Energy=         0.025132
 Sum of electronic and zero-point Energies=           -190.962465
 Sum of electronic and thermal Energies=              -190.956487
 Sum of electronic and thermal Enthalpies=            -190.955543
 Sum of electronic and thermal Free Energies=         -190.991352

                     E (Thermal)             CV                S
                      KCal/Mol        Cal/Mol-Kelvin    Cal/Mol-Kelvin
 Total                   37.649             20.712             75.367
 Electronic               0.000              0.000              1.377
 Translational            0.889              2.981             38.389
 Rotational               0.889              2.981             24.806
 Vibrational             35.871             14.751             10.794
 Vibration     1          0.620              1.896              2.597
 Vibration     2          0.626              1.878              2.419
 Vibration     3          0.684              1.699              1.494
 Vibration     4          0.712              1.617              1.263
 Vibration     5          0.830              1.310              0.729
 Vibration     6          0.873              1.210              0.615

 Normal termination of Gaussian 09 at Thu Jan 31 08:24:19 2019.
