 Gaussian 09, Revision E.01,
 Gaussian 09:  EM64L-G09RevE.01 30-Nov-2015

 ---------------------------------------------
 #p b3lyp/6-311++G(3df,2p) freq symmetry=Loose
 ---------------------------------------------

 ---------
 b3lyp opt
 ---------
 Symbolic Z-matrix:
 Charge =  3 Multiplicity = 4

                         Standard orientation:
 ---------------------------------------------------------------------
 Center     Atomic      Atomic             Coordinates (Angstroms)
 Number     Number       Type             X           Y           Z
 ---------------------------------------------------------------------
      1          6           0       -0.475598   -0.989997   -0.251044
      2          6           0        0.607923   -0.059449    0.280101
      3          6           0       -1.611304   -0.131258    0.001619
      4          1           0        0.755561   -0.255728    1.420722
      5          1           0       -2.711925   -0.216201    0.152717
      6          6           0        1.976818    0.084559   -0.127846
      7          1           0        2.974357   -0.349008   -0.405054
      8          6           0       -0.571716    0.916926   -0.007088
      9          1           0       -0.574728    1.896251   -0.542825
 ---------------------------------------------------------------------

 SCF Done:  E(UB3LYP) =  -190.998744476     A.U. after   17 cycles

 The electronic state is 4-A.
 Alpha  occ. eigenvalues --  -11.05267 -11.03562 -11.01382 -11.00392 -10.98208
 Alpha  occ. eigenvalues --   -1.67422  -1.50502  -1.36419  -1.34392  -1.24546
 Alpha  occ. eigenvalues --   -1.20388  -1.17132  -1.15753  -1.14329  -1.05412
 Alpha  occ. eigenvalues --   -1.02083  -0.97502
 Alpha virt. eigenvalues --   -0.83576  -0.81481  -0.76496  -0.58330  -0.54109
 Alpha virt. eigenvalues --   -0.53775  -0.52073  -0.48669  -0.48273  -0.46225
 Alpha virt. eigenvalues --   -0.45045  -0.42464  -0.41588  -0.39271  -0.38167

  Beta  occ. eigenvalues --  -11.02970 -11.01778 -11.00621 -10.99688 -10.98198
  Beta  occ. eigenvalues --   -1.64529  -1.47431  -1.32656  -1.31339  -1.22262
  Beta  occ. eigenvalues --   -1.17346  -1.14609  -1.13437  -1.12932
  Beta virt. eigenvalues --   -0.93560  -0.84221  -0.80837  -0.80035  -0.74701
  Beta virt. eigenvalues --   -0.70127  -0.56169  -0.52617  -0.51723  -0.50632
  Beta virt. eigenvalues --   -0.47493  -0.46039  -0.45422  -0.43779  -0.41645

 Mulliken charges and spin densities:
               1          2
     1  C    0.369455   1.229092
     2  C    0.305105  -0.154682
     3  C    0.479725   0.394276
     4  H    0.369720   0.064621
     5  H    0.448501   0.000035
     6  C    0.106497   0.989152
     7  H    0.431617  -0.000261
     8  C    0.131376   0.451018
     9  H    0.358005   0.026748
 Sum of Mulliken charges =   3.00000   3.00000

 Dipole moment (field-independent basis, Debye):
    X=              1.4976    Y=              0.3411    Z=              0.2307  Tot=              1.5532
 Quadrupole moment (field-independent basis, Debye-Ang):
   XX=             21.0586   YY=            -12.9641   ZZ=            -17.5708
   XY=             -1.6184   XZ=             -0.7826   YZ=             -1.4661

  Exact polarizability:  57.180  -0.118  36.970  -0.134  -0.033  26.436
 Approx polarizability:  87.324   0.266  69.087  -0.664   2.228  42.543

                      1                      2                      3
                      A                      A                      A
 Frequencies --    254.0893               329.4399               434.2203
 Red. masses --      2.8485                 2.1237                 1.6336
 Frc consts  --      0.1084                 0.1358                 0.1815
 IR Inten    --     16.3780                16.6524                46.9229

                      4                      5                      6
                      A                      A                      A
 Frequencies --    464.1754               556.4675               661.1446
 Red. masses --      2.1647                 2.2632                 2.4239
 Frc consts  --      0.2748                 0.4129                 0.6243
 IR Inten    --      8.5172                18.9755                15.2242

                      7                      8                      9
                      A                      A                      A
 Frequencies --    717.8187               788.5111               814.5382
 Red. masses --      2.3084                 1.5818                 2.0393
 Frc consts  --      0.7008                 0.5795                 0.7972
 IR Inten    --     25.9574                19.7994                12.0231

                     10                     11                     12
                      A                      A                      A
 Frequencies --    866.5243               889.5580               954.9085
 Red. masses --      1.4633                 2.0105                 2.0368
 Frc consts  --      0.6473                 0.9374                 1.0942
 IR Inten    --      8.0002                15.8288                18.0149

                     13                     14                     15
                      A                      A                      A
 Frequencies --    996.5907              1080.5507              1102.2102
 Red. masses --      1.6363                 1.6700                 1.5768
 Frc consts  --      0.9575                 1.1489                 1.1286
 IR Inten    --      1.6500                34.1628                38.9951

                     16                     17                     18
                      A                      A                      A
 Frequencies --   1199.1729              1260.4966              2383.1189
 Red. masses --      3.8670                 4.0250                 1.0701
 Frc consts  --      3.2763                 3.7679                 3.5807
 IR Inten    --    169.1333                 7.6400               468.3135

                     19                     20                     21
                      A                      A                      A
 Frequencies --   2847.4004              2876.3885              2911.2855
 Red. masses --      1.1046                 1.0955                 1.1089
 Frc consts  --      5.2768                 5.3401                 5.5372
 IR Inten    --    598.8222               371.7301               427.2886

 - Thermochemistry -
 -------------------
 Temperature   298.150 Kelvin.  Pressure   1.00000 Atm.
 Atom     1 has atomic number  6 and mass  12.00000

 Molecular mass:    64.03130 amu.
 Principal axes and moments of inertia in atomic units:
                           1         2         3
     Eigenvalues --   108.55483 395.40844 473.00670
           X            0.99977  -0.02147  -0.00119
           Y            0.02136   0.99807  -0.05824
           Z            0.00243   0.05820   0.99830
 This molecule is an asymmetric top.
 Rotational symmetry number  1.
 Rotational temperatures (Kelvin)      0.79788     0.21905     0.18311
 Rotational constants (GHZ):          16.62516     4.56425     3.81547
 Zero-point vibrational energy     145876.3 (Joules/Mol)
                                   34.86527 (Kcal/Mol)
 Warning -- explicit consideration of   5 degrees of freedom as
           vibrations may cause significant error
 Vibrational temperatures:    365.58   473.99   624.75   667.84   800.63
          (Kelvin)            951.24  1032.78  1134.49  1171.94  1246.73
                             1279.87  1373.90  1433.87  1554.67  1585.83
                             1725.34  1813.57  3428.77  4096.77  4138.48
                             4188.69

 Zero-point correction=                           0.055561 (Hartree/Particle)
 Thermal correction to Energy=                    0.060646
 Thermal correction to Enthalpy=                  0.061590
 Thermal correction to Gibbs Free Energy=         0.027129
 Sum of electronic and zero-point Energies=           -190.943183
 Sum of electronic and thermal Energies=              -190.938099
 Sum of electronic and thermal Enthalpies=            -190.937155
 Sum of electronic and thermal Free Energies=         -190.971616

                     E (Thermal)             CV                S
                      KCal/Mol        Cal/Mol-Kelvin    Cal/Mol-Kelvin
 Total                   38.056             19.008             72.530
 Electronic               0.000              0.000              2.755
 Translational            0.889              2.981             38.389
 Rotational               0.889              2.981             24.522
 Vibrational             36.278             13.046              6.864
 Vibration     1          0.665              1.756              1.702
 Vibration     2          0.712              1.617              1.263
 Vibration     3          0.795              1.396              0.845
 Vibration     4          0.822              1.330              0.754
 Vibration     5          0.912              1.126              0.531

 Optimization completed.
    -- Stationary point found.
 Normal termination of Gaussian 09 at Mon Jun 20 12:56:16 2016.
